 Gaussian 09, Revision B.01,
 Gaussian 09:  EM64L-G09RevB.01 12-Aug-2010

 ------------------------------------------------
 # freq=raman b3lyp/6-31+g(d,p) geom=connectivity
 ------------------------------------------------

 ------------
 310 8000.com
 ------------
 Symbolic Z-matrix:
 Charge =  0 Multiplicity = 1

                         Standard orientation:
 ---------------------------------------------------------------------
 Center     Atomic      Atomic             Coordinates (Angstroms)
 Number     Number       Type             X           Y           Z
 ---------------------------------------------------------------------
      1          8           0        5.018676   -0.360765   -0.346652
      2          6           0        3.712267   -0.043721    0.154972
      3          6           0        3.191728    1.244155   -0.461500
      4          8           0        4.012278    2.394571   -0.210831
      5          1           0        4.964132    2.165043   -0.410931
      6          6           0        1.840017    1.572028    0.152474
      7          8           0        1.160426    2.701605   -0.414271
      8          1           0        0.316072    2.838175    0.104288
      9          6           0        3.036997   -2.567517    0.211027
     10          8           0        4.196809   -3.273373   -0.256014
     11          1           0        4.131844   -4.250228   -0.052101
     12          6           0        2.715698   -1.137773   -0.191438
     13          8           0        1.470771   -0.848815    0.461531
     14          6           0        0.918134    0.378215   -0.037159
     15          8           0       -0.309278    0.672335    0.646673
     16          6           0       -1.453971    0.242475   -0.103950
     17          6           0       -2.006457   -1.084588    0.390830
     18          8           0       -1.037816   -2.131371    0.555847
     19          1           0       -0.253672   -1.778511    1.066559
     20          6           0       -3.248798   -1.513631   -0.371974
     21          8           0       -3.739008   -2.829699   -0.074559
     22          1           0       -4.725817   -2.853376   -0.233352
     23          6           0       -2.360310    2.606211    0.015918
     24          8           0       -1.246507    3.334283    0.553734
     25          1           0       -1.367766    4.305685    0.352763
     26          6           0       -2.599066    1.139352    0.336729
     27          8           0       -3.734872    0.834919   -0.485596
     28          6           0       -4.243643   -0.421245   -0.014844
     29          8           0       -5.473581   -0.758298   -0.673546
     30          1           0        5.611497   -0.530398    0.389139
     31          1           0       -6.147318   -0.947065   -0.016245
     32          1           0       -4.389489   -0.387206    1.044624
     33          1           0       -3.041609   -1.457694   -1.420231
     34          1           0       -2.353172   -0.880261    1.382263
     35          1           0       -1.298522    0.262687   -1.162405
     36          1           0       -2.825656    1.001097    1.373282
     37          1           0       -3.243331    3.132984    0.312036
     38          1           0       -2.289993    2.680100   -1.049209
     39          1           0        1.972006    1.741784    1.200645
     40          1           0        3.079262    1.111861   -1.517317
     41          1           0        3.759578    0.067387    1.218136
     42          1           0        0.712713    0.263981   -1.081024
     43          1           0        2.553710   -1.117393   -1.248909
     44          1           0        2.189979   -3.158374   -0.068879
     45          1           0        3.086793   -2.577186    1.279824
 ---------------------------------------------------------------------

 SCF Done:  E(RB3LYP) =  -1297.93025628     A.U. after   14 cycles

 The electronic state is 1-A.
 Alpha  occ. eigenvalues --  -19.19990 -19.19858 -19.19612 -19.19468 -19.18883
 Alpha  occ. eigenvalues --  -19.17473 -19.16998 -19.16557 -19.15840 -19.14783
 Alpha  occ. eigenvalues --  -19.13611 -10.31848 -10.30311 -10.27045 -10.26144
 Alpha  occ. eigenvalues --  -10.25946 -10.25457 -10.25410 -10.25279 -10.24688
 Alpha  occ. eigenvalues --  -10.24522 -10.24227 -10.24027  -1.10521  -1.09658
 Alpha  occ. eigenvalues --   -1.05801  -1.05076  -1.04866  -1.04142  -1.02690
 Alpha  occ. eigenvalues --   -1.02117  -1.01784  -1.00533  -0.99589  -0.82861
 Alpha  occ. eigenvalues --   -0.80536  -0.80313  -0.78301  -0.71981  -0.69981
 Alpha  occ. eigenvalues --   -0.67077  -0.64694  -0.64014  -0.62168  -0.61899
 Alpha  occ. eigenvalues --   -0.60778  -0.57000  -0.55735  -0.55445  -0.54675
 Alpha  occ. eigenvalues --   -0.53872  -0.53757  -0.53074  -0.51744  -0.51278
 Alpha  occ. eigenvalues --   -0.50496  -0.49949  -0.49164  -0.48461  -0.46763
 Alpha  occ. eigenvalues --   -0.46034  -0.45371  -0.44585  -0.43809  -0.43584
 Alpha  occ. eigenvalues --   -0.42552  -0.41848  -0.40970  -0.40638  -0.40462
 Alpha  occ. eigenvalues --   -0.39102  -0.38026  -0.37592  -0.36690  -0.36070
 Alpha  occ. eigenvalues --   -0.35491  -0.35289  -0.34050  -0.33827  -0.33376
 Alpha  occ. eigenvalues --   -0.33138  -0.31267  -0.31191  -0.30468  -0.29946
 Alpha  occ. eigenvalues --   -0.29419  -0.28306  -0.28231  -0.27457  -0.26626
 Alpha  occ. eigenvalues --   -0.26047
 Alpha virt. eigenvalues --   -0.02776  -0.01909  -0.01798  -0.00194   0.00080
 Alpha virt. eigenvalues --    0.00779   0.01602   0.02120   0.03496   0.03787
 Alpha virt. eigenvalues --    0.03973   0.04352   0.05071   0.05291   0.05662

 Mulliken atomic charges:
              1
     1  O   -0.518159
     2  C   -0.180666
     3  C    0.067759
     4  O   -0.505888
     5  H    0.352750
     6  C   -0.185404
     7  O   -0.535273
     8  H    0.455430
     9  C   -0.034263
    10  O   -0.549193
    11  H    0.360409
    12  C    0.316645
    13  O   -0.398256
    14  C    0.361975
    15  O   -0.347452
    16  C   -0.107923
    17  C   -0.037189
    18  O   -0.467556
    19  H    0.383533
    20  C    0.057309
    21  O   -0.486219
    22  H    0.349853
    23  C   -0.104087
    24  O   -0.607390
    25  H    0.384386
    26  C    0.103588
    27  O   -0.321517
    28  C    0.160793
    29  O   -0.575758
    30  H    0.363983
    31  H    0.368703
    32  H    0.125947
    33  H    0.144306
    34  H    0.100634
    35  H    0.142862
    36  H    0.141741
    37  H    0.138114
    38  H    0.151946
    39  H    0.143152
    40  H    0.135591
    41  H    0.135713
    42  H    0.107011
    43  H    0.129756
    44  H    0.148840
    45  H    0.129467
 Sum of Mulliken atomic charges =   0.00000

 Dipole moment (field-independent basis, Debye):
    X=             -2.9120    Y=              0.2481    Z=              2.9419  Tot=              4.1468
 Quadrupole moment (field-independent basis, Debye-Ang):
   XX=           -116.4025   YY=           -139.9161   ZZ=           -138.9616
   XY=            -14.1718   XZ=             -0.1719   YZ=             -0.8324

  Exact polarizability: 224.471   0.403 193.231   1.086  -0.538 140.079
 Approx polarizability: 261.822  -0.434 249.316   1.312  -0.046 230.583

 ******    6 imaginary frequencies (negative Signs) ******

                     1                      2                      3
                     A                      A                      A
 Frequencies --  -323.6165              -295.1339              -269.5082
 Red. masses --     1.3943                 1.3297                 1.7575
 Frc consts  --     0.0860                 0.0682                 0.0752
 IR Inten    --    62.6145                53.2349                 5.7600
 Raman Activ --     0.4653                 0.6201                 0.0962

                     4                      5                      6
                     A                      A                      A
 Frequencies --  -266.0635               -70.5898               -58.1346
 Red. masses --     1.2044                 6.7570                 6.3818
 Frc consts  --     0.0502                 0.0198                 0.0127
 IR Inten    --   125.9559                 0.8941                 0.0138
 Raman Activ --     1.0479                 0.0885                 0.0231

                     7                      8                      9
                     A                      A                      A
 Frequencies --    36.8197                55.4623                85.5340
 Red. masses --     7.0071                 6.6246                 6.3221
 Frc consts  --     0.0056                 0.0120                 0.0273
 IR Inten    --     0.7484                 0.9427                 1.2404
 Raman Activ --     0.0618                 0.0511                 0.2839

                    10                     11                     12
                     A                      A                      A
 Frequencies --    95.8534               104.4693               156.3635
 Red. masses --     7.1579                 6.6467                 6.3504
 Frc consts  --     0.0387                 0.0427                 0.0915
 IR Inten    --     0.9300                 1.0191                 2.1223
 Raman Activ --     0.0394                 0.0519                 0.3332

                    13                     14                     15
                     A                      A                      A
 Frequencies --   169.2898               179.9178               203.0771
 Red. masses --     6.3437                 7.1599                 5.9896
 Frc consts  --     0.1071                 0.1366                 0.1455
 IR Inten    --     2.1789                 0.7840                 2.9936
 Raman Activ --     0.0578                 0.4744                 1.7444

                    16                     17                     18
                     A                      A                      A
 Frequencies --   222.0661               244.1316               266.9207
 Red. masses --     6.0944                 6.3863                 5.3160
 Frc consts  --     0.1771                 0.2243                 0.2232
 IR Inten    --     0.3124                 4.6089                 9.9865
 Raman Activ --     0.2592                 1.4189                 0.3206

                    19                     20                     21
                     A                      A                      A
 Frequencies --   281.6027               299.9958               311.0912
 Red. masses --     4.1822                 5.7023                 4.5230
 Frc consts  --     0.1954                 0.3024                 0.2579
 IR Inten    --    15.9255                 1.0976                 2.2617
 Raman Activ --     0.1623                 0.5949                 0.5377

                    22                     23                     24
                     A                      A                      A
 Frequencies --   318.3135               324.3383               330.2789
 Red. masses --     5.8810                 5.7934                 5.4267
 Frc consts  --     0.3511                 0.3591                 0.3488
 IR Inten    --     3.0153                 1.5941                 8.6125
 Raman Activ --     1.6734                 4.3616                 1.3169

                    25                     26                     27
                     A                      A                      A
 Frequencies --   357.0546               364.9925               399.4242
 Red. masses --     5.9344                 4.2537                 8.3014
 Frc consts  --     0.4458                 0.3339                 0.7803
 IR Inten    --    11.8333                 2.3619                 4.0984
 Raman Activ --     3.0838                 0.3479                 1.8196

                    28                     29                     30
                     A                      A                      A
 Frequencies --   407.8197               427.4236               441.5424
 Red. masses --     5.1213                 6.3829                 4.8790
 Frc consts  --     0.5018                 0.6870                 0.5604
 IR Inten    --     7.7834                 3.2113                 5.7545
 Raman Activ --     2.4479                 1.4844                 2.8202

                    31                     32                     33
                     A                      A                      A
 Frequencies --   448.8694               477.8354               512.0418
 Red. masses --     4.8747                 4.4383                 5.3559
 Frc consts  --     0.5787                 0.5971                 0.8274
 IR Inten    --     8.5442                 5.5407                16.7740
 Raman Activ --     4.7589                 2.0475                 0.5194

                    34                     35                     36
                     A                      A                      A
 Frequencies --   526.4868               538.1780               572.4570
 Red. masses --     3.2788                 3.1468                 4.5732
 Frc consts  --     0.5355                 0.5370                 0.8830
 IR Inten    --     5.9919                23.6442                10.6010
 Raman Activ --     5.5782                 1.1636                 1.3308

                    37                     38                     39
                     A                      A                      A
 Frequencies --   594.4337               602.7271               623.7851
 Red. masses --     6.8605                 4.4131                 3.5874
 Frc consts  --     1.4283                 0.9446                 0.8224
 IR Inten    --     4.0957                15.4504                60.9268
 Raman Activ --     1.6073                 1.1171                 0.7431

                    40                     41                     42
                     A                      A                      A
 Frequencies --   633.8315               656.3010               681.3358
 Red. masses --     3.4684                 1.0626                 4.9012
 Frc consts  --     0.8210                 0.2697                 1.3405
 IR Inten    --     9.8281               126.8330                26.0409
 Raman Activ --     0.7077                 2.2674                 0.1843

                    43                     44                     45
                     A                      A                      A
 Frequencies --   695.9877               706.8568               718.9520
 Red. masses --     1.0706                 1.0986                 1.0931
 Frc consts  --     0.3056                 0.3234                 0.3329
 IR Inten    --    65.0510               161.7818               179.0398
 Raman Activ --     2.2019                 4.9736                 2.2659

                    46                     47                     48
                     A                      A                      A
 Frequencies --   733.3380               847.1710               866.9038
 Red. masses --     1.0662                 1.8234                 1.4903
 Frc consts  --     0.3378                 0.7711                 0.6599
 IR Inten    --   107.6957                 1.7900                28.6377
 Raman Activ --     2.0678                 0.9555                 0.6180

                    49                     50                     51
                     A                      A                      A
 Frequencies --   905.8916               960.1689               970.1802
 Red. masses --     1.2086                 4.0352                 5.6624
 Frc consts  --     0.5844                 2.1919                 3.1402
 IR Inten    --    52.3843                49.2395                54.8900
 Raman Activ --     0.5639                 3.0321                 0.4466

                    52                     53                     54
                     A                      A                      A
 Frequencies --   976.4684               984.9075               989.1214
 Red. masses --     3.9501                 4.3311                 4.7165
 Frc consts  --     2.2191                 2.4753                 2.7187
 IR Inten    --    16.2329                72.6611                27.5873
 Raman Activ --     2.0398                 0.5736                 1.7566

                    55                     56                     57
                     A                      A                      A
 Frequencies --  1009.0961              1028.6712              1036.5026
 Red. masses --     6.2858                 5.5467                 4.7588
 Frc consts  --     3.7712                 3.4581                 3.0122
 IR Inten    --   237.3940               234.8701               215.6385
 Raman Activ --     0.4664                 1.5003                 2.6778

                    58                     59                     60
                     A                      A                      A
 Frequencies --  1045.4226              1061.2095              1063.7599
 Red. masses --     5.8915                 3.2559                 3.9018
 Frc consts  --     3.7937                 2.1603                 2.6014
 IR Inten    --   382.7179               102.2728               106.6692
 Raman Activ --     2.6533                 5.7710                 1.9194

                    61                     62                     63
                     A                      A                      A
 Frequencies --  1072.0615              1079.1932              1082.1833
 Red. masses --     2.6578                 4.6604                 3.7407
 Frc consts  --     1.7998                 3.1979                 2.5811
 IR Inten    --    69.4771                 8.8557                 1.6740
 Raman Activ --     7.3260                 2.0160                 1.6391

                    64                     65                     66
                     A                      A                      A
 Frequencies --  1103.3861              1109.4283              1114.3798
 Red. masses --     3.3690                 2.6106                 3.2329
 Frc consts  --     2.4166                 1.8932                 2.3654
 IR Inten    --    16.6344               126.0203                11.7072
 Raman Activ --    17.0185                 6.4541                18.2861

                    67                     68                     69
                     A                      A                      A
 Frequencies --  1119.4604              1125.6481              1134.2308
 Red. masses --     2.2486                 1.9939                 2.4153
 Frc consts  --     1.6603                 1.4885                 1.8307
 IR Inten    --    59.5990                 6.3253                27.3498
 Raman Activ --     8.8435                 4.2218                 5.5475

                    70                     71                     72
                     A                      A                      A
 Frequencies --  1145.8034              1159.1286              1162.3952
 Red. masses --     2.4015                 2.0371                 2.9665
 Frc consts  --     1.8576                 1.6126                 2.3616
 IR Inten    --    10.1633                28.2851                54.9976
 Raman Activ --     4.4277                 1.5638                 2.3882

                    73                     74                     75
                     A                      A                      A
 Frequencies --  1175.5104              1183.3364              1190.5283
 Red. masses --     2.2007                 1.9532                 2.5755
 Frc consts  --     1.7917                 1.6114                 2.1507
 IR Inten    --    47.0493                 5.3362                54.4815
 Raman Activ --     4.0106                 2.4048                 4.1968

                    76                     77                     78
                     A                      A                      A
 Frequencies --  1205.8788              1209.6720              1227.1063
 Red. masses --     1.5635                 1.3704                 1.3303
 Frc consts  --     1.3395                 1.1815                 1.1802
 IR Inten    --     4.0825                10.2081                 7.7433
 Raman Activ --     2.4640                 1.4095                 3.1081

                    79                     80                     81
                     A                      A                      A
 Frequencies --  1255.4647              1263.2429              1264.4081
 Red. masses --     1.3537                 1.2615                 1.3294
 Frc consts  --     1.2571                 1.1861                 1.2522
 IR Inten    --    44.4281                18.1350                13.4902
 Raman Activ --     3.3183                 1.4352                 0.5764

                    82                     83                     84
                     A                      A                      A
 Frequencies --  1273.6645              1285.8505              1296.1080
 Red. masses --     1.3237                 1.1805                 1.3323
 Frc consts  --     1.2651                 1.1500                 1.3187
 IR Inten    --    30.8308                 4.9523                21.5874
 Raman Activ --     0.9442                 4.2251                 4.8270

                    85                     86                     87
                     A                      A                      A
 Frequencies --  1298.9296              1300.8261              1310.3969
 Red. masses --     1.1888                 1.2291                 1.2574
 Frc consts  --     1.1818                 1.2254                 1.2721
 IR Inten    --    13.2954                 6.4695                41.3868
 Raman Activ --     5.3091                 1.8227                 8.1911

                    88                     89                     90
                     A                      A                      A
 Frequencies --  1319.1341              1325.0806              1332.9294
 Red. masses --     1.2570                 1.2541                 1.2634
 Frc consts  --     1.2887                 1.2974                 1.3225
 IR Inten    --    38.3236                 8.6294                16.8232
 Raman Activ --     6.4142                13.8343                 1.0608

                    91                     92                     93
                     A                      A                      A
 Frequencies --  1342.2539              1344.5528              1356.3858
 Red. masses --     1.2763                 1.1706                 1.2102
 Frc consts  --     1.3547                 1.2468                 1.3119
 IR Inten    --    20.6367                54.1409                24.5527
 Raman Activ --     3.5440                 9.1991                 0.9592

                    94                     95                     96
                     A                      A                      A
 Frequencies --  1381.6138              1384.3421              1390.9305
 Red. masses --     1.4377                 1.4312                 1.3009
 Frc consts  --     1.6169                 1.6160                 1.4829
 IR Inten    --     1.1417                 9.9498                 8.5326
 Raman Activ --    10.4725                 2.9597                 3.1434

                    97                     98                     99
                     A                      A                      A
 Frequencies --  1395.7890              1403.2614              1406.3193
 Red. masses --     1.5455                 1.4246                 1.4839
 Frc consts  --     1.7741                 1.6528                 1.7291
 IR Inten    --    14.3174                 7.9122                36.1737
 Raman Activ --     1.9805                 4.5847                 4.7349

                   100                    101                    102
                     A                      A                      A
 Frequencies --  1412.8772              1434.9601              1452.7496
 Red. masses --     1.5067                 1.2777                 1.4032
 Frc consts  --     1.7721                 1.5501                 1.7448
 IR Inten    --    35.6068                28.9331                 2.5660
 Raman Activ --     1.8816                 0.8849                 1.3138

                   103                    104                    105
                     A                      A                      A
 Frequencies --  1466.6793              1481.0406              1481.6448
 Red. masses --     1.3641                 1.1414                 1.1783
 Frc consts  --     1.7289                 1.4752                 1.5240
 IR Inten    --    19.4630                 0.1182                17.8849
 Raman Activ --     1.7934                 4.0005                 3.8528

                   106                    107                    108
                     A                      A                      A
 Frequencies --  1484.1248              1486.8857              3253.0139
 Red. masses --     1.1745                 1.2414                 1.0830
 Frc consts  --     1.5241                 1.6171                 6.7521
 IR Inten    --     5.9670                41.2194                 9.1112
 Raman Activ --     2.1791                 1.8827                37.2344

                   109                    110                    111
                     A                      A                      A
 Frequencies --  3264.1626              3265.6191              3278.4002
 Red. masses --     1.0651                 1.0592                 1.0635
 Frc consts  --     6.6862                 6.6552                 6.7347
 IR Inten    --   661.7011                78.5966               226.4336
 Raman Activ --    29.9810                86.8817               271.0260

                   112                    113                    114
                     A                      A                      A
 Frequencies --  3284.5716              3289.8378              3291.0371
 Red. masses --     1.0835                 1.0849                 1.0850
 Frc consts  --     6.8870                 6.9183                 6.9239
 IR Inten    --    25.0284                 4.5688                 3.3099
 Raman Activ --    21.5050                 6.8775                54.5814

                   115                    116                    117
                     A                      A                      A
 Frequencies --  3295.0226              3300.9062              3301.4077
 Red. masses --     1.0833                 1.0862                 1.0863
 Frc consts  --     6.9295                 6.9734                 6.9756
 IR Inten    --    15.4235                 3.8337                 8.3080
 Raman Activ --   162.5204                98.1858                 6.4344

                   118                    119                    120
                     A                      A                      A
 Frequencies --  3307.0285              3313.7862              3319.7052
 Red. masses --     1.0872                 1.0914                 1.0995
 Frc consts  --     7.0052                 7.0614                 7.1393
 IR Inten    --    43.8517                27.3426                47.8576
 Raman Activ --    49.6559                13.8153                23.9067

                   121                    122                    123
                     A                      A                      A
 Frequencies --  3321.4054              3328.3976              3377.8971
 Red. masses --     1.0923                 1.1005                 1.0664
 Frc consts  --     7.0997                 7.1828                 7.1688
 IR Inten    --    44.0840                72.8980               199.5010
 Raman Activ --    44.3553                36.9867               117.5623

                   124                    125                    126
                     A                      A                      A
 Frequencies --  3387.5971              3391.2504              3398.3853
 Red. masses --     1.0679                 1.0655                 1.0659
 Frc consts  --     7.2204                 7.2195                 7.2527
 IR Inten    --    47.8977                39.0268                27.6664
 Raman Activ --   168.7026               118.3520               139.0090

                   127                    128                    129
                     A                      A                      A
 Frequencies --  3403.5362              3918.7643              3919.8161
 Red. masses --     1.0669                 1.0677                 1.0678
 Frc consts  --     7.2816                 9.6603                 9.6661
 IR Inten    --    65.5487                82.4192                67.6232
 Raman Activ --   149.3694                96.8527                97.4944

 - Thermochemistry -
 -------------------
 Temperature   298.150 Kelvin.  Pressure   1.00000 Atm.
 Atom     1 has atomic number  8 and mass  15.99491

 Molecular mass:   342.11621 amu.
 Principal axes and moments of inertia in atomic units:
                           1         2         3
     Eigenvalues --  4496.04286********************
           X            0.99997  -0.00780  -0.00059
           Y            0.00780   0.99997  -0.00182
           Z            0.00061   0.00182   1.00000
 This molecule is an asymmetric top.
 Rotational symmetry number  1.
 Warning -- assumption of classical behavior for rotation
           may cause significant error
 Rotational temperatures (Kelvin)      0.01926     0.00717     0.00538
 Rotational constants (GHZ):           0.40141     0.14939     0.11213
    6 imaginary frequencies ignored.
 Zero-point vibrational energy     980913.9 (Joules/Mol)
                                  234.44405 (Kcal/Mol)
 Warning -- explicit consideration of  32 degrees of freedom as
           vibrations may cause significant error
 Vibrational temperatures:     52.98    79.80   123.06   137.91   150.31
          (Kelvin)            224.97   243.57   258.86   292.18   319.50
                              351.25   384.04   405.16   431.63   447.59
                              457.98   466.65   475.20   513.72   525.14
                              574.68   586.76   614.97   635.28   645.82
                              687.50   736.71   757.50   774.32   823.64
                              855.26   867.19   897.49   911.94   944.27
                              980.29  1001.37  1017.01  1034.41  1055.11
                             1218.89  1247.28  1303.37  1381.47  1395.87
                             1404.92  1417.06  1423.12  1451.86  1480.03
                             1491.29  1504.13  1526.84  1530.51  1542.46
                             1552.72  1557.02  1587.52  1596.22  1603.34
                             1610.65  1619.55  1631.90  1648.55  1667.73
                             1672.43  1691.30  1702.56  1712.90  1734.99
                             1740.45  1765.53  1806.33  1817.52  1819.20
                             1832.52  1850.05  1864.81  1868.87  1871.60
                             1885.37  1897.94  1906.49  1917.79  1931.20
                             1934.51  1951.53  1987.83  1991.76  2001.24
                             2008.23  2018.98  2023.38  2032.81  2064.58
                             2090.18  2110.22  2130.88  2131.75  2135.32
                             2139.29  4680.36  4696.40  4698.49  4716.88
                             4725.76  4733.34  4735.06  4740.80  4749.26
                             4749.98  4758.07  4767.79  4776.31  4778.76
                             4788.82  4860.03  4873.99  4879.25  4889.51
                             4896.92  5638.22  5639.73

 Zero-point correction=                           0.373610 (Hartree/Particle)
 Thermal correction to Energy=                    0.392348
 Thermal correction to Enthalpy=                  0.393292
 Thermal correction to Gibbs Free Energy=         0.327530
 Sum of electronic and zero-point Energies=          -1297.556646
 Sum of electronic and thermal Energies=             -1297.537908
 Sum of electronic and thermal Enthalpies=           -1297.536964
 Sum of electronic and thermal Free Energies=        -1297.602726

                     E (Thermal)             CV                S
                      KCal/Mol        Cal/Mol-Kelvin    Cal/Mol-Kelvin
 Total                  246.202             77.254            138.408
 Electronic               0.000              0.000              0.000
 Translational            0.889              2.981             43.384
 Rotational               0.889              2.981             35.124
 Vibrational            244.425             71.292             59.900
 Vibration     1          0.594              1.982              5.423
 Vibration     2          0.596              1.975              4.612
 Vibration     3          0.601              1.959              3.760
 Vibration     4          0.603              1.952              3.537
 Vibration     5          0.605              1.946              3.369
 Vibration     6          0.620              1.896              2.593
 Vibration     7          0.625              1.880              2.443
 Vibration     8          0.629              1.867              2.329
 Vibration     9          0.639              1.836              2.105
 Vibration    10          0.648              1.807              1.942
 Vibration    11          0.659              1.772              1.773
 Vibration    12          0.672              1.734              1.616
 Vibration    13          0.681              1.708              1.524
 Vibration    14          0.693              1.674              1.417
 Vibration    15          0.700              1.653              1.357
 Vibration    16          0.705              1.639              1.319
 Vibration    17          0.709              1.627              1.288
 Vibration    18          0.713              1.615              1.259
 Vibration    19          0.732              1.561              1.135
 Vibration    20          0.738              1.544              1.101
 Vibration    21          0.765              1.471              0.965
 Vibration    22          0.772              1.453              0.934
 Vibration    23          0.789              1.411              0.867
 Vibration    24          0.801              1.380              0.822
 Vibration    25          0.808              1.363              0.799
 Vibration    26          0.834              1.299              0.716
 Vibration    27          0.867              1.223              0.629
 Vibration    28          0.881              1.191              0.595
 Vibration    29          0.893              1.166              0.569
 Vibration    30          0.929              1.091              0.500
 Vibration    31          0.952              1.044              0.459
 Vibration    32          0.961              1.026              0.445

 Normal termination of Gaussian 09 at Tue Mar  1 03:33:46 2016.
