 Gaussian 09, Revision B.01,
 Gaussian 09:  EM64L-G09RevB.01 12-Aug-2010

 -------------------------------------------------
 # freq=raman b3lyp/6-31+g(2d,p) geom=connectivity
 -------------------------------------------------

 -----------------
 450 9644/9644.com
 -----------------
 Symbolic Z-matrix:
 Charge =  0 Multiplicity = 1

                         Standard orientation:
 ---------------------------------------------------------------------
 Center     Atomic      Atomic             Coordinates (Angstroms)
 Number     Number       Type             X           Y           Z
 ---------------------------------------------------------------------
      1          8           0       -5.066511   -0.042285   -0.712758
      2          6           0       -3.945293   -0.228966    0.162258
      3          6           0       -3.208677   -1.270283   -0.665024
      4          8           0       -3.910287   -2.495865   -0.918160
      5          1           0       -4.764977   -2.062836   -1.199890
      6          6           0       -1.854638   -1.520331   -0.022768
      7          8           0       -1.085718   -2.521163   -0.707588
      8          1           0       -1.417686   -3.454861   -0.572315
      9          6           0       -3.550791    2.342453    0.672877
     10          8           0       -2.702339    3.493803    0.548037
     11          1           0       -3.080417    4.170297    1.179667
     12          6           0       -3.020321    0.970260    0.292328
     13          8           0       -1.857208    0.588855    1.042280
     14          6           0       -1.092252   -0.214945    0.132854
     15          8           0        0.137779   -0.553814    0.790538
     16          6           0        1.330609   -0.204052    0.073223
     17          6           0        1.782108    1.242655    0.188520
     18          8           0        0.758506    2.181103   -0.175073
     19          1           0       -0.122135    1.889513    0.197885
     20          6           0        3.016870    1.362774   -0.688841
     21          8           0        3.322036    2.695216   -1.127024
     22          1           0        2.520433    3.018075   -1.629098
     23          6           0        2.213784   -2.472463    0.394030
     24          8           0        3.418192   -3.095596    0.861643
     25          1           0        3.461021   -3.397053    1.813734
     26          6           0        2.523086   -0.996274    0.583366
     27          8           0        3.780570   -0.702153   -0.042577
     28          6           0        4.166543    0.678166    0.030888
     29          8           0        5.428529    0.754426   -0.647184
     30          1           0       -5.847539   -0.440422   -0.321502
     31          1           0       -3.864890    2.289080    1.694343
     32          1           0       -4.420463    2.523046    0.076256
     33          1           0       -2.654327    1.114117   -0.702787
     34          1           0       -4.240511   -0.617703    1.114429
     35          1           0       -3.020192   -0.825124   -1.619596
     36          1           0       -2.041134   -1.892275    0.963020
     37          1           0       -0.930300    0.274415   -0.804801
     38          1           0        1.376329   -2.765817    0.991953
     39          1           0        2.045053   -2.696812   -0.638490
     40          1           0        2.622612   -0.807766    1.631917
     41          1           0        1.184507   -0.434116   -0.961487
     42          1           0        2.066962    1.429389    1.202861
     43          1           0        2.822473    0.790316   -1.571678
     44          1           0        6.106005    0.336806   -0.110322
     45          1           0        4.244619    1.005550    1.046576
 ---------------------------------------------------------------------

 SCF Done:  E(RB3LYP) =  -1297.95522836     A.U. after   14 cycles

 The electronic state is 1-A.
 Alpha  occ. eigenvalues --  -19.19793 -19.19568 -19.17993 -19.17845 -19.17423
 Alpha  occ. eigenvalues --  -19.16425 -19.15620 -19.15471 -19.15463 -19.14349
 Alpha  occ. eigenvalues --  -19.13794 -10.31469 -10.28920 -10.27701 -10.27261
 Alpha  occ. eigenvalues --  -10.25555 -10.25345 -10.25317 -10.24569 -10.23826
 Alpha  occ. eigenvalues --  -10.23758 -10.23569 -10.22614  -1.10762  -1.08445
 Alpha  occ. eigenvalues --   -1.07084  -1.05157  -1.04526  -1.03766  -1.02709
 Alpha  occ. eigenvalues --   -1.02219  -1.01327  -1.00235  -0.99600  -0.82849
 Alpha  occ. eigenvalues --   -0.82086  -0.79052  -0.77696  -0.72390  -0.69280
 Alpha  occ. eigenvalues --   -0.67105  -0.64841  -0.63507  -0.62832  -0.61330
 Alpha  occ. eigenvalues --   -0.60716  -0.57611  -0.55921  -0.54744  -0.54246
 Alpha  occ. eigenvalues --   -0.53756  -0.53514  -0.52991  -0.52488  -0.51131
 Alpha  occ. eigenvalues --   -0.50391  -0.49687  -0.48724  -0.47365  -0.46632
 Alpha  occ. eigenvalues --   -0.46005  -0.45228  -0.44650  -0.43987  -0.43609
 Alpha  occ. eigenvalues --   -0.43466  -0.42994  -0.41244  -0.40317  -0.39563
 Alpha  occ. eigenvalues --   -0.39048  -0.38516  -0.37346  -0.36448  -0.36209
 Alpha  occ. eigenvalues --   -0.35543  -0.34617  -0.34319  -0.33757  -0.33175
 Alpha  occ. eigenvalues --   -0.31772  -0.31422  -0.31026  -0.30429  -0.30061
 Alpha  occ. eigenvalues --   -0.29519  -0.28763  -0.28380  -0.27438  -0.26040
 Alpha  occ. eigenvalues --   -0.25911
 Alpha virt. eigenvalues --   -0.03565  -0.01987  -0.00856  -0.00560   0.00195
 Alpha virt. eigenvalues --    0.00991   0.01460   0.02091   0.02834   0.03126
 Alpha virt. eigenvalues --    0.03558   0.04191   0.04743   0.05018   0.05762

 Mulliken atomic charges:
              1
     1  O   -0.572028
     2  C   -0.273834
     3  C    0.259814
     4  O   -0.582421
     5  H    0.334872
     6  C    0.100914
     7  O   -0.566423
     8  H    0.351704
     9  C   -0.305497
    10  O   -0.479561
    11  H    0.334759
    12  C    0.534714
    13  O   -0.247297
    14  C   -0.139065
    15  O   -0.260273
    16  C    0.147085
    17  C    0.231977
    18  O   -0.584245
    19  H    0.364423
    20  C   -0.017163
    21  O   -0.526977
    22  H    0.341030
    23  C   -0.186244
    24  O   -0.520837
    25  H    0.326892
    26  C   -0.101262
    27  O   -0.246668
    28  C    0.304130
    29  O   -0.507607
    30  H    0.338384
    31  H    0.134213
    32  H    0.161484
    33  H    0.111034
    34  H    0.129493
    35  H    0.124763
    36  H    0.120138
    37  H    0.156551
    38  H    0.153771
    39  H    0.158499
    40  H    0.106812
    41  H    0.118744
    42  H    0.108665
    43  H    0.117198
    44  H    0.325371
    45  H    0.119969
 Sum of Mulliken atomic charges =   0.00000

 Dipole moment (field-independent basis, Debye):
    X=             -8.2487    Y=             -1.0919    Z=              4.0895  Tot=              9.2713
 Quadrupole moment (field-independent basis, Debye-Ang):
   XX=           -122.2552   YY=           -144.6338   ZZ=           -133.8192
   XY=             -8.3857   XZ=              6.6303   YZ=             -0.3655

  Exact polarizability: 225.898   0.000 195.133   1.154  -0.496 148.868
 Approx polarizability: 270.165   0.406 257.234   0.421  -1.800 244.504

 ******    7 imaginary frequencies (negative Signs) ******

                     1                      2                      3
                     A                      A                      A
 Frequencies --  -287.3595              -248.2293              -170.2331
 Red. masses --     1.6481                 1.0739                 1.4706
 Frc consts  --     0.0802                 0.0390                 0.0251
 IR Inten    --     2.0920               123.7026               110.6891
 Raman Activ --     0.0887                 1.5454                 1.1876

                     4                      5                      6
                     A                      A                      A
 Frequencies --   -80.8086               -63.1910               -52.5935
 Red. masses --     4.8905                 5.2704                 6.3098
 Frc consts  --     0.0188                 0.0124                 0.0103
 IR Inten    --     4.4083                 2.4361                 0.0964
 Raman Activ --     0.1996                 0.0864                 0.3289

                     7                      8                      9
                     A                      A                      A
 Frequencies --   -38.9592                54.3993                72.1878
 Red. masses --     5.8855                 6.0801                 2.6546
 Frc consts  --     0.0053                 0.0106                 0.0082
 IR Inten    --     0.6414                 0.5370                 7.3116
 Raman Activ --     0.0530                 0.1090                 0.1856

                    10                     11                     12
                     A                      A                      A
 Frequencies --    97.9425               103.4727               117.9646
 Red. masses --     5.6142                 5.4462                 6.4131
 Frc consts  --     0.0317                 0.0344                 0.0526
 IR Inten    --     6.1096                 2.9374                 1.7625
 Raman Activ --     0.0591                 0.3563                 0.0960

                    13                     14                     15
                     A                      A                      A
 Frequencies --   143.3980               152.7424               162.9541
 Red. masses --     7.0693                 5.2860                 6.0065
 Frc consts  --     0.0856                 0.0727                 0.0940
 IR Inten    --     0.3603                 0.7840                 2.9472
 Raman Activ --     0.7017                 0.1063                 0.2899

                    16                     17                     18
                     A                      A                      A
 Frequencies --   215.6757               236.7153               264.6412
 Red. masses --     7.5914                 4.8417                 5.2520
 Frc consts  --     0.2081                 0.1598                 0.2167
 IR Inten    --     1.8197                 4.9857                 1.9942
 Raman Activ --     1.7628                 0.2833                 1.3869

                    19                     20                     21
                     A                      A                      A
 Frequencies --   277.2231               281.2847               301.3304
 Red. masses --     5.3212                 5.9942                 5.2410
 Frc consts  --     0.2409                 0.2794                 0.2804
 IR Inten    --     2.8883                 5.5044                 4.4126
 Raman Activ --     0.4032                 0.3049                 0.5798

                    22                     23                     24
                     A                      A                      A
 Frequencies --   306.5798               326.5341               344.8904
 Red. masses --     4.8345                 5.5996                 5.8167
 Frc consts  --     0.2677                 0.3518                 0.4077
 IR Inten    --     5.0099                 1.7067                 2.6831
 Raman Activ --     0.0541                 2.5025                 4.0833

                    25                     26                     27
                     A                      A                      A
 Frequencies --   358.6924               359.3217               401.1268
 Red. masses --     4.2464                 7.0238                 3.8936
 Frc consts  --     0.3219                 0.5343                 0.3691
 IR Inten    --    14.1941                 1.9290                 5.4894
 Raman Activ --     1.1167                 0.6101                 0.9974

                    28                     29                     30
                     A                      A                      A
 Frequencies --   414.9923               420.0914               432.9938
 Red. masses --     6.3572                 5.1368                 6.2983
 Frc consts  --     0.6451                 0.5341                 0.6957
 IR Inten    --     8.5458                 0.2585                 5.9034
 Raman Activ --     3.4643                 2.1179                 1.9848

                    31                     32                     33
                     A                      A                      A
 Frequencies --   458.9134               475.2218               502.8225
 Red. masses --     3.4163                 3.9882                 5.5576
 Frc consts  --     0.4239                 0.5307                 0.8279
 IR Inten    --    36.0318                 4.6084                 5.4216
 Raman Activ --     7.2354                 0.3318                 1.0769

                    34                     35                     36
                     A                      A                      A
 Frequencies --   533.6359               541.8698               561.6707
 Red. masses --     4.1695                 3.4382                 4.8209
 Frc consts  --     0.6996                 0.5948                 0.8961
 IR Inten    --    19.5921                28.8774                31.8765
 Raman Activ --     0.6380                 7.3123                 4.0020

                    37                     38                     39
                     A                      A                      A
 Frequencies --   572.0496               589.2915               605.3644
 Red. masses --     1.4710                 3.5583                 2.7130
 Frc consts  --     0.2836                 0.7280                 0.5858
 IR Inten    --    49.2095                24.8071                46.1550
 Raman Activ --     0.7631                 0.3191                 0.5943

                    40                     41                     42
                     A                      A                      A
 Frequencies --   617.4195               647.9813               662.1983
 Red. masses --     3.4009                 1.3496                 2.2727
 Frc consts  --     0.7638                 0.3339                 0.5872
 IR Inten    --    38.4974               104.1918                 6.9139
 Raman Activ --     1.2041                 1.0718                 0.7608

                    43                     44                     45
                     A                      A                      A
 Frequencies --   674.6027               688.7386               708.3575
 Red. masses --     2.5242                 1.0848                 1.1026
 Frc consts  --     0.6768                 0.3032                 0.3260
 IR Inten    --    13.7826               102.1169               109.4859
 Raman Activ --     0.2885                 1.2783                 1.1140

                    46                     47                     48
                     A                      A                      A
 Frequencies --   779.3435               787.3602               835.0935
 Red. masses --     1.0686                 1.1148                 2.4507
 Frc consts  --     0.3824                 0.4072                 1.0070
 IR Inten    --    72.3355                57.4374                11.8878
 Raman Activ --     1.0020                 1.1886                 1.9595

                    49                     50                     51
                     A                      A                      A
 Frequencies --   839.7151               940.3287               949.9027
 Red. masses --     2.8095                 5.9231                 6.1972
 Frc consts  --     1.1672                 3.0858                 3.2946
 IR Inten    --     2.4035               119.9612               112.0405
 Raman Activ --     3.6367                 1.8508                 2.8567

                    52                     53                     54
                     A                      A                      A
 Frequencies --   971.5549               986.4608               989.2672
 Red. masses --     3.9140                 4.8560                 6.6929
 Frc consts  --     2.1767                 2.7841                 3.8591
 IR Inten    --    39.2880               110.8240               385.2773
 Raman Activ --     1.9773                 2.1031                 4.7532

                    55                     56                     57
                     A                      A                      A
 Frequencies --   997.4190              1006.0623              1012.4084
 Red. masses --     4.7541                 6.8517                 5.4811
 Frc consts  --     2.7866                 4.0860                 3.3100
 IR Inten    --    22.9681               134.0215               144.1198
 Raman Activ --     3.7137                 1.0402                 1.0994

                    58                     59                     60
                     A                      A                      A
 Frequencies --  1027.1343              1032.0228              1048.2813
 Red. masses --     3.2639                 3.1618                 3.6088
 Frc consts  --     2.0288                 1.9841                 2.3365
 IR Inten    --    43.2726                26.7381               297.1518
 Raman Activ --    17.3205                 0.5851                 1.8647

                    61                     62                     63
                     A                      A                      A
 Frequencies --  1055.4539              1063.7557              1070.2843
 Red. masses --     4.6111                 2.5548                 3.0026
 Frc consts  --     3.0264                 1.7033                 2.0265
 IR Inten    --    45.2497                15.2816                77.2035
 Raman Activ --     4.5580                 3.2885                13.4628

                    64                     65                     66
                     A                      A                      A
 Frequencies --  1085.5455              1088.5392              1112.7835
 Red. masses --     2.5933                 2.4528                 2.5900
 Frc consts  --     1.8005                 1.7124                 1.8896
 IR Inten    --    42.7147                 2.8926                69.3986
 Raman Activ --     1.8994                 8.8671                 3.9569

                    67                     68                     69
                     A                      A                      A
 Frequencies --  1117.9729              1121.9186              1132.5276
 Red. masses --     2.7748                 2.2053                 2.3502
 Frc consts  --     2.0434                 1.6355                 1.7761
 IR Inten    --    38.8149                20.1691                52.9447
 Raman Activ --     3.9251                 3.7321                 5.0046

                    70                     71                     72
                     A                      A                      A
 Frequencies --  1147.7199              1148.9330              1155.4515
 Red. masses --     1.8222                 2.9178                 2.7092
 Frc consts  --     1.4142                 2.2693                 2.1311
 IR Inten    --     6.0612                58.2616                 8.2775
 Raman Activ --     4.5785                 1.4199                 2.2264

                    73                     74                     75
                     A                      A                      A
 Frequencies --  1169.1922              1171.8010              1175.5957
 Red. masses --     2.0610                 2.5707                 1.9071
 Frc consts  --     1.6600                 2.0798                 1.5529
 IR Inten    --    46.8963                48.8122                22.3158
 Raman Activ --     1.1625                 2.7307                 1.6496

                    76                     77                     78
                     A                      A                      A
 Frequencies --  1185.9795              1213.0612              1225.1136
 Red. masses --     1.8894                 1.6670                 1.3574
 Frc consts  --     1.5658                 1.4453                 1.2004
 IR Inten    --     7.3837                 5.4244                 9.2400
 Raman Activ --     5.4733                 1.1448                 4.4240

                    79                     80                     81
                     A                      A                      A
 Frequencies --  1238.6652              1245.9381              1263.2883
 Red. masses --     1.3510                 1.2620                 1.3028
 Frc consts  --     1.2213                 1.1542                 1.2249
 IR Inten    --     0.6499                14.8798                13.3700
 Raman Activ --     2.2564                 3.2690                 1.3378

                    82                     83                     84
                     A                      A                      A
 Frequencies --  1267.6865              1286.6023              1295.0010
 Red. masses --     1.2351                 1.2279                 1.1841
 Frc consts  --     1.1695                 1.1975                 1.1700
 IR Inten    --     3.4043                20.3729                 3.1118
 Raman Activ --     4.5874                 2.1318                 1.7945

                    85                     86                     87
                     A                      A                      A
 Frequencies --  1301.7590              1305.8573              1317.1612
 Red. masses --     1.2198                 1.2874                 1.2120
 Frc consts  --     1.2179                 1.2935                 1.2389
 IR Inten    --     0.8585                 4.9522                 8.8961
 Raman Activ --     3.9898                 3.7237                 0.8600

                    88                     89                     90
                     A                      A                      A
 Frequencies --  1328.6738              1332.3301              1340.3965
 Red. masses --     1.2757                 1.3122                 1.2316
 Frc consts  --     1.3269                 1.3724                 1.3037
 IR Inten    --    17.8035                 3.1732                38.8799
 Raman Activ --     3.4002                 1.9236                 2.3733

                    91                     92                     93
                     A                      A                      A
 Frequencies --  1346.0854              1355.2919              1359.9621
 Red. masses --     1.3969                 1.2770                 1.2732
 Frc consts  --     1.4912                 1.3820                 1.3874
 IR Inten    --    41.3797                38.2042                 5.0366
 Raman Activ --     5.2049                 3.7848                 2.0476

                    94                     95                     96
                     A                      A                      A
 Frequencies --  1366.8299              1371.3154              1378.9527
 Red. masses --     1.2363                 1.3310                 1.2120
 Frc consts  --     1.3609                 1.4747                 1.3578
 IR Inten    --    10.3119                42.6441                25.5008
 Raman Activ --     5.2350                 0.5865                 1.9802

                    97                     98                     99
                     A                      A                      A
 Frequencies --  1387.3678              1388.7054              1398.0397
 Red. masses --     1.3953                 1.4501                 1.2099
 Frc consts  --     1.5824                 1.6477                 1.3933
 IR Inten    --     7.6441                19.0341                 8.2355
 Raman Activ --    13.3130                 3.2978                 0.5532

                   100                    101                    102
                     A                      A                      A
 Frequencies --  1422.8718              1429.3237              1436.1451
 Red. masses --     1.5073                 1.3380                 1.1825
 Frc consts  --     1.7979                 1.6105                 1.4370
 IR Inten    --    19.3435                12.3009                11.9222
 Raman Activ --     4.3228                 4.0711                 5.8480

                   103                    104                    105
                     A                      A                      A
 Frequencies --  1443.5870              1463.0337              1473.6581
 Red. masses --     1.0842                 1.1019                 1.3325
 Frc consts  --     1.3312                 1.3896                 1.7049
 IR Inten    --     4.2958                 4.0530                21.9656
 Raman Activ --     5.3982                 2.7548                 1.6246

                   106                    107                    108
                     A                      A                      A
 Frequencies --  1478.0192              1488.9119              3244.7398
 Red. masses --     1.4872                 1.4093                 1.0787
 Frc consts  --     1.9142                 1.8407                 6.6915
 IR Inten    --    43.2446                64.9209                 3.2171
 Raman Activ --     2.8820                 0.9888                58.7522

                   109                    110                    111
                     A                      A                      A
 Frequencies --  3259.7017              3263.1835              3266.4023
 Red. masses --     1.0614                 1.0827                 1.0834
 Frc consts  --     6.6447                 6.7926                 6.8106
 IR Inten    --    41.5218                 4.6271                12.4437
 Raman Activ --    73.2078                 6.0177                 3.1056

                   112                    113                    114
                     A                      A                      A
 Frequencies --  3270.4359              3271.2881              3273.8764
 Red. masses --     1.0815                 1.0810                 1.0573
 Frc consts  --     6.8156                 6.8158                 6.6771
 IR Inten    --     9.4467                14.6791                18.4375
 Raman Activ --   135.7237               162.6820                33.7693

                   115                    116                    117
                     A                      A                      A
 Frequencies --  3280.3814              3282.9184              3292.5030
 Red. masses --     1.0841                 1.0848                 1.0867
 Frc consts  --     6.8736                 6.8887                 6.9409
 IR Inten    --     5.2419                 5.7782                42.1974
 Raman Activ --    11.3819                71.8186                63.1459

                   118                    119                    120
                     A                      A                      A
 Frequencies --  3296.9656              3303.8017              3310.2835
 Red. masses --     1.0868                 1.0894                 1.1022
 Frc consts  --     6.9605                 7.0057                 7.1161
 IR Inten    --    56.8041                33.3876                48.8022
 Raman Activ --    24.5469                20.5447                57.9550

                   121                    122                    123
                     A                      A                      A
 Frequencies --  3347.6765              3362.1112              3374.5053
 Red. masses --     1.1020                 1.0669                 1.0674
 Frc consts  --     7.2767                 7.1056                 7.1614
 IR Inten    --    32.6136               166.8149                75.0477
 Raman Activ --    60.6229               151.9797                57.0461

                   124                    125                    126
                     A                      A                      A
 Frequencies --  3375.0037              3375.1610              3378.3271
 Red. masses --     1.0669                 1.0748                 1.0673
 Frc consts  --     7.1601                 7.2136                 7.1771
 IR Inten    --    56.7785                15.8137                53.8409
 Raman Activ --    49.5787               161.5038               137.7700

                   127                    128                    129
                     A                      A                      A
 Frequencies --  3381.2207              3883.4808              3890.7935
 Red. masses --     1.0658                 1.0676                 1.0668
 Frc consts  --     7.1792                 9.4860                 9.5147
 IR Inten    --    37.0742                70.3143                65.9486
 Raman Activ --    72.8576               109.6671               128.0663

 - Thermochemistry -
 -------------------
 Temperature   298.150 Kelvin.  Pressure   1.00000 Atm.
 Atom     1 has atomic number  8 and mass  15.99491

 Molecular mass:   342.11621 amu.
 Principal axes and moments of inertia in atomic units:
                           1         2         3
     Eigenvalues --  4559.44642********************
           X            0.99998  -0.00664   0.00184
           Y            0.00664   0.99998   0.00025
           Z           -0.00184  -0.00023   1.00000
 This molecule is an asymmetric top.
 Rotational symmetry number  1.
 Warning -- assumption of classical behavior for rotation
           may cause significant error
 Rotational temperatures (Kelvin)      0.01900     0.00702     0.00548
 Rotational constants (GHZ):           0.39582     0.14625     0.11422
    7 imaginary frequencies ignored.
 Zero-point vibrational energy     973924.7 (Joules/Mol)
                                  232.77359 (Kcal/Mol)
 Warning -- explicit consideration of  33 degrees of freedom as
           vibrations may cause significant error
 Vibrational temperatures:     78.27   103.86   140.92   148.87   169.72
          (Kelvin)            206.32   219.76   234.45   310.31   340.58
                              380.76   398.86   404.71   433.55   441.10
                              469.81   496.22   516.08   516.98   577.13
                              597.08   604.42   622.98   660.27   683.74
                              723.45   767.78   779.63   808.12   823.05
                              847.86   870.98   888.33   932.30   952.75
                              970.60   990.94  1019.17  1121.30  1132.83
                             1201.51  1208.16  1352.92  1366.70  1397.85
                             1419.30  1423.33  1435.06  1447.50  1456.63
                             1477.82  1484.85  1508.24  1518.56  1530.51
                             1539.90  1561.86  1566.16  1601.05  1608.51
                             1614.19  1629.45  1651.31  1653.06  1662.43
                             1682.20  1685.96  1691.42  1706.36  1745.32
                             1762.66  1782.16  1792.62  1817.59  1823.92
                             1851.13  1863.22  1872.94  1878.84  1895.10
                             1911.66  1916.92  1928.53  1936.71  1949.96
                             1956.68  1966.56  1973.01  1984.00  1996.11
                             1998.03  2011.46  2047.19  2056.48  2066.29
                             2077.00  2104.98  2120.26  2126.54  2142.21
                             4668.45  4689.98  4694.99  4699.62  4705.42
                             4706.65  4710.37  4719.73  4723.38  4737.17
                             4743.59  4753.43  4762.75  4816.55  4837.32
                             4855.15  4855.87  4856.10  4860.65  4864.82
                             5587.46  5597.98

 Zero-point correction=                           0.370948 (Hartree/Particle)
 Thermal correction to Energy=                    0.389279
 Thermal correction to Enthalpy=                  0.390223
 Thermal correction to Gibbs Free Energy=         0.325777
 Sum of electronic and zero-point Energies=          -1297.584280
 Sum of electronic and thermal Energies=             -1297.565950
 Sum of electronic and thermal Enthalpies=           -1297.565005
 Sum of electronic and thermal Free Energies=        -1297.629451

                     E (Thermal)             CV                S
                      KCal/Mol        Cal/Mol-Kelvin    Cal/Mol-Kelvin
 Total                  244.276             76.341            135.638
 Electronic               0.000              0.000              0.000
 Translational            0.889              2.981             43.384
 Rotational               0.889              2.981             35.140
 Vibrational            242.499             70.379             57.113
 Vibration     1          0.596              1.976              4.651
 Vibration     2          0.598              1.967              4.093
 Vibration     3          0.603              1.951              3.495
 Vibration     4          0.605              1.946              3.388
 Vibration     5          0.608              1.934              3.133
 Vibration     6          0.616              1.910              2.758
 Vibration     7          0.619              1.900              2.638
 Vibration     8          0.623              1.888              2.515
 Vibration     9          0.645              1.817              1.995
 Vibration    10          0.656              1.785              1.827
 Vibration    11          0.671              1.738              1.631
 Vibration    12          0.678              1.716              1.551
 Vibration    13          0.681              1.708              1.526
 Vibration    14          0.693              1.671              1.410
 Vibration    15          0.697              1.661              1.381
 Vibration    16          0.710              1.622              1.277
 Vibration    17          0.723              1.586              1.189
 Vibration    18          0.734              1.557              1.128
 Vibration    19          0.734              1.556              1.125
 Vibration    20          0.767              1.468              0.959
 Vibration    21          0.778              1.438              0.909
 Vibration    22          0.783              1.427              0.892
 Vibration    23          0.794              1.398              0.849
 Vibration    24          0.817              1.341              0.769
 Vibration    25          0.832              1.305              0.723
 Vibration    26          0.858              1.244              0.651
 Vibration    27          0.889              1.176              0.579
 Vibration    28          0.897              1.158              0.561
 Vibration    29          0.917              1.114              0.521
 Vibration    30          0.928              1.092              0.500
 Vibration    31          0.947              1.055              0.468
 Vibration    32          0.964              1.020              0.441
 Vibration    33          0.977              0.995              0.421

 Normal termination of Gaussian 09 at Mon Mar 28 12:26:40 2016.
