 Gaussian 09, Revision B.01,
 Gaussian 09:  EM64L-G09RevB.01 12-Aug-2010

 ------------------------------------------------
 # freq=raman b3lyp/6-31+g(d,p) geom=connectivity
 ------------------------------------------------

 ------------
 310 6000.com
 ------------
 Symbolic Z-matrix:
 Charge =  0 Multiplicity = 1

                         Standard orientation:
 ---------------------------------------------------------------------
 Center     Atomic      Atomic             Coordinates (Angstroms)
 Number     Number       Type             X           Y           Z
 ---------------------------------------------------------------------
      1          8           0       -5.092941   -0.281388    0.624258
      2          6           0       -3.814054   -0.088385    0.001252
      3          6           0       -3.197215    1.258046    0.342378
      4          8           0       -4.176418    2.227517   -0.057983
      5          1           0       -5.019466    1.694367    0.007821
      6          6           0       -1.840271    1.621080   -0.239081
      7          8           0       -1.177913    2.827224    0.167355
      8          1           0       -0.260920    2.925889   -0.218689
      9          6           0       -3.123802   -2.471146   -0.178647
     10          8           0       -4.367805   -3.130624    0.098885
     11          1           0       -4.197593   -4.099915   -0.077776
     12          6           0       -2.726634   -1.096472    0.332861
     13          8           0       -1.493150   -0.832214   -0.350504
     14          6           0       -0.961680    0.425170    0.090985
     15          8           0        0.266812    0.609580   -0.625613
     16          6           0        1.515949    0.209238   -0.043446
     17          6           0        2.030070   -1.172491   -0.416012
     18          8           0        0.933196   -2.087507   -0.283253
     19          1           0        0.156762   -1.580302   -0.657773
     20          6           0        3.324828   -1.606119    0.250564
     21          8           0        3.849671   -2.774617   -0.395629
     22          1           0        4.698442   -2.903732    0.116476
     23          6           0        2.576718    2.599154    0.121027
     24          8           0        1.407325    3.218525   -0.434510
     25          1           0        1.458390    4.200266   -0.251064
     26          6           0        2.678901    1.147835   -0.321231
     27          8           0        3.844052    0.817326    0.446510
     28          6           0        4.323025   -0.476459    0.051930
     29          8           0        5.437641   -0.753831    0.912211
     30          1           0        6.214871   -0.937919    0.379647
     31          1           0        4.647224   -0.450535   -0.967444
     32          1           0        3.168282   -1.790361    1.292893
     33          1           0        2.248707   -1.129224   -1.462542
     34          1           0        1.368019    0.206578    1.016276
     35          1           0        2.920000    1.112101   -1.363102
     36          1           0        3.445968    3.129501   -0.207661
     37          1           0        2.522662    2.638915    1.188921
     38          1           0       -2.356853   -3.140121    0.151752
     39          1           0       -3.050116   -2.420145   -1.244887
     40          1           0       -2.563053   -1.129783    1.389758
     41          1           0       -5.765820   -0.386817   -0.052291
     42          1           0       -3.967202   -0.116111   -1.057368
     43          1           0       -3.109349    1.307891    1.407599
     44          1           0       -1.948628    1.660974   -1.302833
     45          1           0       -0.769093    0.391854    1.142983
 ---------------------------------------------------------------------

 SCF Done:  E(RB3LYP) =  -1297.92623230     A.U. after   14 cycles

 The electronic state is 1-A.
 Alpha  occ. eigenvalues --  -19.20334 -19.19540 -19.19434 -19.19412 -19.19373
 Alpha  occ. eigenvalues --  -19.19271 -19.18003 -19.17148 -19.15149 -19.14708
 Alpha  occ. eigenvalues --  -19.14284 -10.31396 -10.31142 -10.26609 -10.26529
 Alpha  occ. eigenvalues --  -10.26381 -10.26333 -10.25811 -10.25569 -10.24895
 Alpha  occ. eigenvalues --  -10.24728 -10.24458 -10.24093  -1.10642  -1.09948
 Alpha  occ. eigenvalues --   -1.06552  -1.05703  -1.04762  -1.04606  -1.03560
 Alpha  occ. eigenvalues --   -1.02847  -1.01847  -1.01090  -0.99915  -0.82564
 Alpha  occ. eigenvalues --   -0.80990  -0.79845  -0.78852  -0.72166  -0.70238
 Alpha  occ. eigenvalues --   -0.67773  -0.65081  -0.63269  -0.62495  -0.61862
 Alpha  occ. eigenvalues --   -0.60788  -0.56881  -0.56520  -0.55641  -0.54905
 Alpha  occ. eigenvalues --   -0.54583  -0.53721  -0.52962  -0.52064  -0.51726
 Alpha  occ. eigenvalues --   -0.51302  -0.50063  -0.49578  -0.49224  -0.47123
 Alpha  occ. eigenvalues --   -0.45724  -0.45476  -0.44448  -0.44072  -0.43555
 Alpha  occ. eigenvalues --   -0.42717  -0.41885  -0.41842  -0.40515  -0.40048
 Alpha  occ. eigenvalues --   -0.39928  -0.39010  -0.37988  -0.36416  -0.36403
 Alpha  occ. eigenvalues --   -0.36016  -0.35217  -0.34656  -0.33844  -0.33515
 Alpha  occ. eigenvalues --   -0.33138  -0.31934  -0.31625  -0.30963  -0.30630
 Alpha  occ. eigenvalues --   -0.30127  -0.28947  -0.28604  -0.27337  -0.26564
 Alpha  occ. eigenvalues --   -0.26326
 Alpha virt. eigenvalues --   -0.02319  -0.02206  -0.01823  -0.00475   0.00111
 Alpha virt. eigenvalues --    0.00958   0.01907   0.02428   0.03044   0.03437
 Alpha virt. eigenvalues --    0.04006   0.04521   0.04692   0.05112   0.05777

 Mulliken atomic charges:
              1
     1  O   -0.520195
     2  C   -0.419996
     3  C    0.281811
     4  O   -0.495859
     5  H    0.339260
     6  C   -0.023158
     7  O   -0.558970
     8  H    0.453640
     9  C   -0.195202
    10  O   -0.540622
    11  H    0.357792
    12  C    0.319011
    13  O   -0.385608
    14  C    0.338136
    15  O   -0.370249
    16  C   -0.085385
    17  C   -0.128659
    18  O   -0.492948
    19  H    0.399899
    20  C    0.186243
    21  O   -0.473361
    22  H    0.341208
    23  C    0.084137
    24  O   -0.617588
    25  H    0.384079
    26  C   -0.136803
    27  O   -0.288926
    28  C    0.108564
    29  O   -0.569249
    30  H    0.366031
    31  H    0.137270
    32  H    0.156774
    33  H    0.134911
    34  H    0.125000
    35  H    0.139722
    36  H    0.143510
    37  H    0.153706
    38  H    0.139456
    39  H    0.138897
    40  H    0.141094
    41  H    0.383536
    42  H    0.146816
    43  H    0.137744
    44  H    0.142284
    45  H    0.122248
 Sum of Mulliken atomic charges =   0.00000

 Dipole moment (field-independent basis, Debye):
    X=              3.5017    Y=             -0.5465    Z=             -1.5938  Tot=              3.8859
 Quadrupole moment (field-independent basis, Debye-Ang):
   XX=           -116.8645   YY=           -140.0592   ZZ=           -141.3537
   XY=             17.0743   XZ=              2.6723   YZ=             -1.2695

  Exact polarizability: 229.751   0.396 190.469   1.768   0.286 140.783
 Approx polarizability: 268.162   1.872 246.382   3.045   0.175 230.428

 ******    7 imaginary frequencies (negative Signs) ******

                     1                      2                      3
                     A                      A                      A
 Frequencies --  -320.0082              -271.8922              -257.9744
 Red. masses --     1.6920                 1.2272                 1.2138
 Frc consts  --     0.1021                 0.0535                 0.0476
 IR Inten    --     9.6137               109.3205               131.8984
 Raman Activ --     0.0679                 0.6934                 1.0984

                     4                      5                      6
                     A                      A                      A
 Frequencies --  -186.7220               -99.6534               -73.6139
 Red. masses --     1.9992                 6.2672                 6.1919
 Frc consts  --     0.0411                 0.0367                 0.0198
 IR Inten    --     3.3884                 1.8824                 0.4763
 Raman Activ --     0.1186                 0.0296                 0.0648

                     7                      8                      9
                     A                      A                      A
 Frequencies --   -23.0757                43.0240                55.5638
 Red. masses --     6.2854                 6.4051                 6.3968
 Frc consts  --     0.0020                 0.0070                 0.0116
 IR Inten    --     0.6190                 1.6377                 1.5314
 Raman Activ --     0.0570                 0.0154                 0.0944

                    10                     11                     12
                     A                      A                      A
 Frequencies --    64.6914                85.5396               121.5196
 Red. masses --     6.8252                 6.7182                 5.2865
 Frc consts  --     0.0168                 0.0290                 0.0460
 IR Inten    --     0.6196                 0.4842                 2.2373
 Raman Activ --     0.1190                 0.1926                 0.1368

                    13                     14                     15
                     A                      A                      A
 Frequencies --   160.7547               182.7713               184.3093
 Red. masses --     6.5561                 5.5793                 8.0805
 Frc consts  --     0.0998                 0.1098                 0.1617
 IR Inten    --     2.5735                 3.1213                 0.1754
 Raman Activ --     0.2629                 0.3235                 0.7968

                    16                     17                     18
                     A                      A                      A
 Frequencies --   209.0858               232.9741               272.0189
 Red. masses --     6.8627                 6.0152                 4.7997
 Frc consts  --     0.1768                 0.1924                 0.2092
 IR Inten    --     0.3373                 2.0383                 1.4899
 Raman Activ --     3.1340                 0.3892                 0.1320

                    19                     20                     21
                     A                      A                      A
 Frequencies --   273.0283               301.9238               311.1238
 Red. masses --     4.2953                 4.4084                 4.3588
 Frc consts  --     0.1886                 0.2368                 0.2486
 IR Inten    --    21.0688                 1.9768                 1.2723
 Raman Activ --     0.4750                 0.1938                 0.0438

                    22                     23                     24
                     A                      A                      A
 Frequencies --   314.6813               319.8648               332.2252
 Red. masses --     5.3697                 6.6862                 4.8675
 Frc consts  --     0.3133                 0.4031                 0.3165
 IR Inten    --     2.8187                 5.0199                 2.4522
 Raman Activ --     0.9346                 2.8433                 1.6151

                    25                     26                     27
                     A                      A                      A
 Frequencies --   352.5989               366.9051               381.5941
 Red. masses --     6.6970                 4.3544                 7.2513
 Frc consts  --     0.4906                 0.3454                 0.6221
 IR Inten    --    10.5223                 4.3147                 2.2386
 Raman Activ --     3.0725                 0.3751                 1.0918

                    28                     29                     30
                     A                      A                      A
 Frequencies --   404.1911               418.0077               434.3472
 Red. masses --     5.7071                 4.8508                 4.7124
 Frc consts  --     0.5493                 0.4994                 0.5238
 IR Inten    --     8.6573                11.8940                 2.0344
 Raman Activ --     5.9077                 2.5407                 4.1721

                    31                     32                     33
                     A                      A                      A
 Frequencies --   442.3145               485.8280               492.1390
 Red. masses --     5.0375                 3.8827                 4.4783
 Frc consts  --     0.5807                 0.5399                 0.6391
 IR Inten    --     2.2641                 4.3591                17.1848
 Raman Activ --     1.8860                 1.7428                 0.2662

                    34                     35                     36
                     A                      A                      A
 Frequencies --   515.7352               532.2908               570.0925
 Red. masses --     3.8302                 3.5541                 3.4246
 Frc consts  --     0.6002                 0.5933                 0.6558
 IR Inten    --     7.4684                10.9785                20.8606
 Raman Activ --     2.9969                 6.3675                 1.3727

                    37                     38                     39
                     A                      A                      A
 Frequencies --   581.5829               588.0696               618.8195
 Red. masses --     2.8789                 4.8343                 4.3095
 Frc consts  --     0.5737                 0.9850                 0.9723
 IR Inten    --    40.6906                20.3317                12.8037
 Raman Activ --     0.5270                 0.3788                 1.2407

                    40                     41                     42
                     A                      A                      A
 Frequencies --   627.3331               680.6111               687.9655
 Red. masses --     5.9225                 5.3070                 1.0782
 Frc consts  --     1.3733                 1.4484                 0.3007
 IR Inten    --    28.1702                15.7411               107.6033
 Raman Activ --     1.5226                 1.3867                 1.9051

                    43                     44                     45
                     A                      A                      A
 Frequencies --   734.3869               738.5661               759.9761
 Red. masses --     1.0830                 1.1104                 1.1070
 Frc consts  --     0.3441                 0.3569                 0.3767
 IR Inten    --   111.6225                56.0240               108.0232
 Raman Activ --     1.3985                 0.9179                 1.4866

                    46                     47                     48
                     A                      A                      A
 Frequencies --   766.4220               812.5529               848.9410
 Red. masses --     1.0868                 1.0992                 1.7799
 Frc consts  --     0.3761                 0.4276                 0.7558
 IR Inten    --   136.8996               147.8350                 1.3804
 Raman Activ --     2.2369                 5.0352                 1.1663

                    49                     50                     51
                     A                      A                      A
 Frequencies --   877.5624               946.2939               980.1355
 Red. masses --     1.6633                 5.3719                 4.1940
 Frc consts  --     0.7547                 2.8342                 2.3738
 IR Inten    --     6.9903                61.1232               100.3333
 Raman Activ --     1.2127                 2.4423                 0.5332

                    52                     53                     54
                     A                      A                      A
 Frequencies --   984.4075               986.6864               996.4507
 Red. masses --     4.7494                 5.0924                 5.8477
 Frc consts  --     2.7117                 2.9210                 3.4209
 IR Inten    --    83.0434                52.1291                24.6750
 Raman Activ --     1.0233                 2.4533                 0.8291

                    55                     56                     57
                     A                      A                      A
 Frequencies --  1016.4209              1030.7180              1038.4222
 Red. masses --     5.7178                 4.9386                 4.8024
 Frc consts  --     3.4804                 3.0912                 3.0511
 IR Inten    --   556.3789                30.5581               146.9628
 Raman Activ --     0.3245                 1.7158                 4.6783

                    58                     59                     60
                     A                      A                      A
 Frequencies --  1051.9865              1064.6964              1072.8961
 Red. masses --     4.5872                 2.8395                 5.6577
 Frc consts  --     2.9910                 1.8964                 3.8372
 IR Inten    --   137.8991                58.6405                64.8472
 Raman Activ --     2.6404                 4.5848                10.5561

                    61                     62                     63
                     A                      A                      A
 Frequencies --  1076.9103              1081.2486              1087.8098
 Red. masses --     5.7537                 4.7066                 3.9191
 Frc consts  --     3.9315                 3.2420                 2.7324
 IR Inten    --    52.5147                68.6338                65.9007
 Raman Activ --     0.1263                 5.9172                 6.3273

                    64                     65                     66
                     A                      A                      A
 Frequencies --  1107.2720              1111.2130              1118.7838
 Red. masses --     2.5550                 2.3673                 3.7480
 Frc consts  --     1.8456                 1.7223                 2.7641
 IR Inten    --   161.7134                24.9248                69.8668
 Raman Activ --     3.3984                 3.9922                21.3837

                    67                     68                     69
                     A                      A                      A
 Frequencies --  1120.3605              1139.3004              1141.8552
 Red. masses --     2.6254                 3.3656                 2.6702
 Frc consts  --     1.9416                 2.5739                 2.0512
 IR Inten    --    70.7679                20.7165                28.3897
 Raman Activ --     3.6838                 5.5484                 8.7636

                    70                     71                     72
                     A                      A                      A
 Frequencies --  1149.8385              1153.4335              1156.6391
 Red. masses --     1.9386                 2.2931                 2.2254
 Frc consts  --     1.5101                 1.7975                 1.7541
 IR Inten    --     8.3790                 4.5802                37.7306
 Raman Activ --     6.5281                 1.0148                 2.5756

                    73                     74                     75
                     A                      A                      A
 Frequencies --  1163.1100              1175.8164              1185.2456
 Red. masses --     1.8233                 1.4976                 2.0841
 Frc consts  --     1.4533                 1.2199                 1.7249
 IR Inten    --    20.3573                 3.0738                 8.4021
 Raman Activ --     2.9837                 1.7388                 2.2989

                    76                     77                     78
                     A                      A                      A
 Frequencies --  1207.3544              1217.8659              1231.6528
 Red. masses --     1.5227                 1.3427                 1.3536
 Frc consts  --     1.3077                 1.1734                 1.2099
 IR Inten    --    13.9578                 7.1292                13.8692
 Raman Activ --     4.3532                 0.5995                 3.4763

                    79                     80                     81
                     A                      A                      A
 Frequencies --  1236.6728              1253.3736              1259.6958
 Red. masses --     1.3595                 1.2163                 1.2431
 Frc consts  --     1.2250                 1.1257                 1.1622
 IR Inten    --    10.1517                14.6006                24.3955
 Raman Activ --     1.5784                 1.6388                 1.0668

                    82                     83                     84
                     A                      A                      A
 Frequencies --  1267.5105              1278.1365              1287.9462
 Red. masses --     1.3448                 1.2613                 1.2311
 Frc consts  --     1.2729                 1.2140                 1.2033
 IR Inten    --    24.4197                 4.6013                 8.9960
 Raman Activ --     4.7714                 3.0859                 2.7705

                    85                     86                     87
                     A                      A                      A
 Frequencies --  1300.8351              1309.3075              1313.8028
 Red. masses --     1.2441                 1.3603                 1.3707
 Frc consts  --     1.2404                 1.3740                 1.3940
 IR Inten    --    26.4708                18.5693                 4.1046
 Raman Activ --     4.7858                 2.1716                 4.8767

                    88                     89                     90
                     A                      A                      A
 Frequencies --  1318.7257              1329.3302              1334.1829
 Red. masses --     1.3560                 1.3135                 1.3123
 Frc consts  --     1.3894                 1.3676                 1.3763
 IR Inten    --    20.9275                35.4004                21.9027
 Raman Activ --     2.0805                 4.5895                 6.6929

                    91                     92                     93
                     A                      A                      A
 Frequencies --  1341.1960              1350.5899              1357.2819
 Red. masses --     1.4148                 1.1660                 1.1963
 Frc consts  --     1.4994                 1.2532                 1.2984
 IR Inten    --    27.6207                20.1280                 9.3654
 Raman Activ --     5.2514                12.5723                 3.0185

                    94                     95                     96
                     A                      A                      A
 Frequencies --  1357.8428              1369.8058              1373.8213
 Red. masses --     1.1820                 1.3958                 1.5043
 Frc consts  --     1.2840                 1.5431                 1.6728
 IR Inten    --    56.5967                 1.8239                 8.9772
 Raman Activ --     4.3036                 8.0907                 7.4391

                    97                     98                     99
                     A                      A                      A
 Frequencies --  1377.0219              1405.8684              1418.6101
 Red. masses --     1.3201                 1.4036                 1.4672
 Frc consts  --     1.4748                 1.6345                 1.7397
 IR Inten    --    11.1724                 4.2178                12.1268
 Raman Activ --     3.9895                 7.3471                 4.1602

                   100                    101                    102
                     A                      A                      A
 Frequencies --  1431.2959              1460.5643              1476.8750
 Red. masses --     1.4567                 1.3164                 1.1971
 Frc consts  --     1.7582                 1.6545                 1.5384
 IR Inten    --    27.2611                50.5120                14.5333
 Raman Activ --     1.3356                 1.3946                 4.4867

                   103                    104                    105
                     A                      A                      A
 Frequencies --  1481.4183              1485.3261              1486.1392
 Red. masses --     1.1204                 1.2582                 1.2241
 Frc consts  --     1.4488                 1.6355                 1.5929
 IR Inten    --     4.2968                 9.0580                 6.0300
 Raman Activ --     5.8076                 1.0195                 1.4665

                   106                    107                    108
                     A                      A                      A
 Frequencies --  1495.5405              1510.0859              3264.0827
 Red. masses --     1.3694                 1.2753                 1.0589
 Frc consts  --     1.8045                 1.7134                 6.6473
 IR Inten    --    57.8513                87.9796                27.6810
 Raman Activ --     3.6058                 1.8230                75.0037

                   109                    110                    111
                     A                      A                      A
 Frequencies --  3269.9690              3271.9897              3279.3761
 Red. masses --     1.0766                 1.0682                 1.0772
 Frc consts  --     6.7822                 6.7377                 6.8253
 IR Inten    --    82.5062               471.8566                11.5461
 Raman Activ --    70.2592                20.1414               193.4881

                   112                    113                    114
                     A                      A                      A
 Frequencies --  3284.3701              3285.6870              3289.8832
 Red. masses --     1.0784                 1.0748                 1.0831
 Frc consts  --     6.8541                 6.8365                 6.9071
 IR Inten    --   105.0216               218.0067                65.4178
 Raman Activ --    48.2016               168.1319                74.9582

                   115                    116                    117
                     A                      A                      A
 Frequencies --  3296.6792              3297.7415              3299.6110
 Red. masses --     1.0836                 1.0860                 1.0888
 Frc consts  --     6.9388                 6.9586                 6.9841
 IR Inten    --    36.7477                 7.4653                 4.9641
 Raman Activ --    83.8740                44.6914                16.6820

                   118                    119                    120
                     A                      A                      A
 Frequencies --  3301.3953              3310.2780              3317.6588
 Red. masses --     1.0856                 1.0900                 1.0870
 Frc consts  --     6.9715                 7.0374                 7.0496
 IR Inten    --    37.7451                55.5677                37.2257
 Raman Activ --   126.5769                18.8552                12.5783

                   121                    122                    123
                     A                      A                      A
 Frequencies --  3318.8754              3342.2971              3356.2118
 Red. masses --     1.0974                 1.1107                 1.0659
 Frc consts  --     7.1221                 7.3101                 7.0738
 IR Inten    --   101.1762                37.6645               478.6827
 Raman Activ --    14.8226                55.3917               127.0563

                   124                    125                    126
                     A                      A                      A
 Frequencies --  3369.8658              3391.8288              3391.8959
 Red. masses --     1.0646                 1.0663                 1.0674
 Frc consts  --     7.1228                 7.2274                 7.2354
 IR Inten    --    46.9657                48.8913                47.7565
 Raman Activ --    76.5527               135.2382               131.5197

                   127                    128                    129
                     A                      A                      A
 Frequencies --  3392.6662              3918.1826              3919.4354
 Red. masses --     1.0647                 1.0680                 1.0676
 Frc consts  --     7.2201                 9.6599                 9.6631
 IR Inten    --    24.9764                98.8330                65.0041
 Raman Activ --   128.0826                80.1284               118.5900

 - Thermochemistry -
 -------------------
 Temperature   298.150 Kelvin.  Pressure   1.00000 Atm.
 Atom     1 has atomic number  8 and mass  15.99491

 Molecular mass:   342.11621 amu.
 Principal axes and moments of inertia in atomic units:
                           1         2         3
     Eigenvalues --  4348.43386********************
           X            0.99997   0.00762   0.00014
           Y           -0.00762   0.99997   0.00107
           Z           -0.00013  -0.00107   1.00000
 This molecule is an asymmetric top.
 Rotational symmetry number  1.
 Warning -- assumption of classical behavior for rotation
           may cause significant error
 Rotational temperatures (Kelvin)      0.01992     0.00687     0.00526
 Rotational constants (GHZ):           0.41503     0.14321     0.10953
    7 imaginary frequencies ignored.
 Zero-point vibrational energy     979846.5 (Joules/Mol)
                                  234.18893 (Kcal/Mol)
 Warning -- explicit consideration of  32 degrees of freedom as
           vibrations may cause significant error
 Vibrational temperatures:     61.90    79.94    93.08   123.07   174.84
          (Kelvin)            231.29   262.97   265.18   300.83   335.20
                              391.37   392.83   434.40   447.64   452.76
                              460.21   478.00   507.31   527.89   549.03
                              581.54   601.42   624.93   636.39   699.00
                              708.08   742.03   765.85   820.23   836.77
                              846.10   890.34   902.59   979.25   989.83
                             1056.62  1062.63  1093.43  1102.71  1169.08
                             1221.44  1262.61  1361.50  1410.19  1416.34
                             1419.62  1433.67  1462.40  1482.97  1494.06
                             1513.57  1531.86  1543.66  1549.43  1555.67
                             1565.11  1593.12  1598.79  1609.68  1611.95
                             1639.20  1642.87  1654.36  1659.53  1664.14
                             1673.45  1691.74  1705.30  1737.11  1752.24
                             1772.07  1779.29  1803.32  1812.42  1823.66
                             1838.95  1853.06  1871.61  1883.80  1890.27
                             1897.35  1912.61  1919.59  1929.68  1943.20
                             1952.82  1953.63  1970.84  1976.62  1981.22
                             2022.73  2041.06  2059.31  2101.42  2124.89
                             2131.43  2137.05  2138.22  2151.75  2172.67
                             4696.28  4704.75  4707.66  4718.28  4725.47
                             4727.36  4733.40  4743.18  4744.71  4747.40
                             4749.97  4762.75  4773.37  4775.12  4808.81
                             4828.83  4848.48  4880.08  4880.18  4881.28
                             5637.38  5639.19

 Zero-point correction=                           0.373204 (Hartree/Particle)
 Thermal correction to Energy=                    0.391444
 Thermal correction to Enthalpy=                  0.392388
 Thermal correction to Gibbs Free Energy=         0.327465
 Sum of electronic and zero-point Energies=          -1297.553028
 Sum of electronic and thermal Energies=             -1297.534789
 Sum of electronic and thermal Enthalpies=           -1297.533844
 Sum of electronic and thermal Free Energies=        -1297.598767

                     E (Thermal)             CV                S
                      KCal/Mol        Cal/Mol-Kelvin    Cal/Mol-Kelvin
 Total                  245.635             75.431            136.641
 Electronic               0.000              0.000              0.000
 Translational            0.889              2.981             43.384
 Rotational               0.889              2.981             35.156
 Vibrational            243.857             69.469             58.101
 Vibration     1          0.595              1.980              5.115
 Vibration     2          0.596              1.975              4.609
 Vibration     3          0.597              1.971              4.309
 Vibration     4          0.601              1.959              3.760
 Vibration     5          0.609              1.931              3.076
 Vibration     6          0.622              1.890              2.541
 Vibration     7          0.630              1.863              2.300
 Vibration     8          0.631              1.861              2.284
 Vibration     9          0.642              1.827              2.052
 Vibration    10          0.654              1.790              1.856
 Vibration    11          0.675              1.725              1.583
 Vibration    12          0.676              1.723              1.577
 Vibration    13          0.694              1.670              1.406
 Vibration    14          0.700              1.653              1.356
 Vibration    15          0.702              1.646              1.338
 Vibration    16          0.706              1.636              1.311
 Vibration    17          0.714              1.611              1.249
 Vibration    18          0.729              1.570              1.155
 Vibration    19          0.740              1.540              1.093
 Vibration    20          0.751              1.509              1.033
 Vibration    21          0.769              1.461              0.947
 Vibration    22          0.781              1.431              0.899
 Vibration    23          0.795              1.395              0.845
 Vibration    24          0.802              1.378              0.819
 Vibration    25          0.842              1.281              0.695
 Vibration    26          0.848              1.267              0.678
 Vibration    27          0.871              1.215              0.620
 Vibration    28          0.887              1.179              0.582
 Vibration    29          0.926              1.096              0.504
 Vibration    30          0.938              1.071              0.482
 Vibration    31          0.945              1.057              0.471
 Vibration    32          0.979              0.992              0.418

 Normal termination of Gaussian 09 at Tue Mar  1 03:16:30 2016.
