 Gaussian 09, Revision B.01,
 Gaussian 09:  EM64L-G09RevB.01 12-Aug-2010

 -------------------------------------------------
 # freq=raman b3lyp/6-31+g(2d,p) geom=connectivity
 -------------------------------------------------

 -----------------
 450 6523/6523.com
 -----------------
 Symbolic Z-matrix:
 Charge =  0 Multiplicity = 1

                         Standard orientation:
 ---------------------------------------------------------------------
 Center     Atomic      Atomic             Coordinates (Angstroms)
 Number     Number       Type             X           Y           Z
 ---------------------------------------------------------------------
      1          8           0        5.089514   -0.395913   -0.745754
      2          6           0        3.934560    0.068869   -0.030056
      3          6           0        3.265350    1.313927   -0.588190
      4          8           0        4.218328    2.385536   -0.535264
      5          1           0        5.146425    2.192078   -0.853262
      6          6           0        1.922559    1.600768    0.064110
      7          8           0        1.141184    2.766731   -0.235444
      8          1           0        1.664913    3.617721   -0.190164
      9          6           0        3.429982   -2.314428    0.675237
     10          8           0        2.510994   -3.414190    0.597150
     11          1           0        3.020955   -4.259781    0.753437
     12          6           0        2.876782   -1.011365    0.122320
     13          8           0        1.700287   -0.675095    0.872744
     14          6           0        1.083601    0.333708    0.058600
     15          8           0       -0.160696    0.514738    0.749280
     16          6           0       -1.344652    0.232824   -0.010410
     17          6           0       -1.718973   -1.237568    0.080442
     18          8           0       -0.807717   -2.110893   -0.601788
     19          1           0        0.032443   -2.177318   -0.064274
     20          6           0       -3.100460   -1.550921   -0.469324
     21          8           0       -3.470649   -2.933085   -0.577049
     22          1           0       -2.828452   -3.350411   -1.219852
     23          6           0       -2.342891    2.477815   -0.115761
     24          8           0       -3.022185    3.555015    0.544724
     25          1           0       -2.840168    3.533005    1.527847
     26          6           0       -2.491791    1.093151    0.493495
     27          8           0       -3.802419    0.704657    0.058945
     28          6           0       -4.171418   -0.677906    0.164990
     29          8           0       -5.443764   -0.598411   -0.494107
     30          1           0        5.883568   -0.154071   -0.263478
     31          1           0        3.695020   -2.164062    1.700930
     32          1           0        4.313364   -2.569067    0.127793
     33          1           0        2.539835   -1.229302   -0.869583
     34          1           0        4.267328    0.316116    0.956369
     35          1           0        3.069687    1.124630   -1.622977
     36          1           0        2.176089    1.738531    1.094471
     37          1           0        0.922950   -0.021474   -0.937863
     38          1           0       -6.047644   -0.075146    0.037986
     39          1           0       -4.304889   -0.944313    1.192664
     40          1           0       -3.056612   -1.217001   -1.484939
     41          1           0       -1.713037   -1.507446    1.115831
     42          1           0       -1.159187    0.475881   -1.035800
     43          1           0       -2.462489    1.157507    1.561156
     44          1           0       -2.699248    2.433428   -1.123699
     45          1           0       -1.299754    2.714529   -0.142804
 ---------------------------------------------------------------------

 SCF Done:  E(RB3LYP) =  -1297.97256245     A.U. after   13 cycles

 The electronic state is 1-A.
 Alpha  occ. eigenvalues --  -19.19765 -19.19212 -19.17796 -19.17741 -19.17579
 Alpha  occ. eigenvalues --  -19.17001 -19.16034 -19.15554 -19.15088 -19.14813
 Alpha  occ. eigenvalues --  -19.14300 -10.31332 -10.28929 -10.27377 -10.26874
 Alpha  occ. eigenvalues --  -10.26580 -10.26210 -10.25185 -10.24679 -10.24321
 Alpha  occ. eigenvalues --  -10.24097 -10.24047 -10.21571  -1.10560  -1.07551
 Alpha  occ. eigenvalues --   -1.07187  -1.04845  -1.04437  -1.03435  -1.03278
 Alpha  occ. eigenvalues --   -1.02802  -1.01020  -1.00742  -0.99369  -0.83025
 Alpha  occ. eigenvalues --   -0.81984  -0.78861  -0.78017  -0.71991  -0.69361
 Alpha  occ. eigenvalues --   -0.67750  -0.65430  -0.63404  -0.62772  -0.62176
 Alpha  occ. eigenvalues --   -0.59425  -0.57611  -0.55834  -0.55525  -0.54620
 Alpha  occ. eigenvalues --   -0.53839  -0.53232  -0.53018  -0.52595  -0.51148
 Alpha  occ. eigenvalues --   -0.50583  -0.49245  -0.48770  -0.48348  -0.46846
 Alpha  occ. eigenvalues --   -0.45824  -0.45153  -0.44840  -0.43696  -0.43474
 Alpha  occ. eigenvalues --   -0.42611  -0.42226  -0.41472  -0.39792  -0.39400
 Alpha  occ. eigenvalues --   -0.38348  -0.37352  -0.37236  -0.36421  -0.36333
 Alpha  occ. eigenvalues --   -0.35803  -0.35120  -0.34469  -0.33875  -0.33637
 Alpha  occ. eigenvalues --   -0.32300  -0.31638  -0.31353  -0.29993  -0.29600
 Alpha  occ. eigenvalues --   -0.29405  -0.28941  -0.28609  -0.27398  -0.27113
 Alpha  occ. eigenvalues --   -0.25977
 Alpha virt. eigenvalues --   -0.03992  -0.01844  -0.01009  -0.00259   0.00614
 Alpha virt. eigenvalues --    0.01096   0.01506   0.01955   0.02621   0.03215
 Alpha virt. eigenvalues --    0.03460   0.04169   0.04765   0.05072   0.05755

 Mulliken atomic charges:
              1
     1  O   -0.538723
     2  C   -0.376199
     3  C    0.428539
     4  O   -0.601288
     5  H    0.342694
     6  C    0.024452
     7  O   -0.559794
     8  H    0.364682
     9  C   -0.284386
    10  O   -0.510513
    11  H    0.340667
    12  C    0.285446
    13  O   -0.274659
    14  C    0.023349
    15  O   -0.236790
    16  C    0.412472
    17  C    0.355273
    18  O   -0.582679
    19  H    0.374978
    20  C   -0.140908
    21  O   -0.522655
    22  H    0.346555
    23  C   -0.261024
    24  O   -0.499067
    25  H    0.312276
    26  C   -0.287116
    27  O   -0.232722
    28  C    0.282940
    29  O   -0.488220
    30  H    0.338948
    31  H    0.140241
    32  H    0.158287
    33  H    0.117759
    34  H    0.126210
    35  H    0.120316
    36  H    0.120685
    37  H    0.144342
    38  H    0.327611
    39  H    0.114967
    40  H    0.121005
    41  H    0.121728
    42  H    0.113391
    43  H    0.105790
    44  H    0.157089
    45  H    0.174051
 Sum of Mulliken atomic charges =   0.00000

 Dipole moment (field-independent basis, Debye):
    X=              9.1123    Y=             -0.3135    Z=              2.0895  Tot=              9.3540
 Quadrupole moment (field-independent basis, Debye-Ang):
   XX=           -122.0453   YY=           -144.9133   ZZ=           -135.3833
   XY=             -5.6664   XZ=             -5.8986   YZ=              0.8806

  Exact polarizability: 228.079  -0.400 199.266  -1.103   0.996 147.162
 Approx polarizability: 272.301  -2.409 258.189   0.237   3.288 243.682

 ******    7 imaginary frequencies (negative Signs) ******

                     1                      2                      3
                     A                      A                      A
 Frequencies --  -292.2069              -228.3248              -145.0078
 Red. masses --     1.1098                 1.8508                 2.1922
 Frc consts  --     0.0558                 0.0568                 0.0272
 IR Inten    --   132.9120                 3.5701                 4.2194
 Raman Activ --     1.7555                 0.1203                 0.2019

                     4                      5                      6
                     A                      A                      A
 Frequencies --  -134.4854               -77.6337               -47.0609
 Red. masses --     1.3193                 6.2776                 5.7803
 Frc consts  --     0.0141                 0.0223                 0.0075
 IR Inten    --   113.2567                 0.3733                 1.9954
 Raman Activ --     0.7338                 0.1797                 0.0167

                     7                      8                      9
                     A                      A                      A
 Frequencies --   -12.1962                20.3296                32.5919
 Red. masses --     6.1318                 6.6576                 6.6155
 Frc consts  --     0.0005                 0.0016                 0.0041
 IR Inten    --     0.6319                 0.3537                 1.0930
 Raman Activ --     0.0831                 0.1340                 0.0595

                    10                     11                     12
                     A                      A                      A
 Frequencies --    52.4125                90.1415               100.0834
 Red. masses --     6.8814                 6.1712                 6.2361
 Frc consts  --     0.0111                 0.0295                 0.0368
 IR Inten    --     1.2039                 0.9138                 0.2293
 Raman Activ --     0.1173                 0.0673                 0.0917

                    13                     14                     15
                     A                      A                      A
 Frequencies --   122.9381               142.9418               182.8816
 Red. masses --     5.5064                 5.4468                 6.0721
 Frc consts  --     0.0490                 0.0656                 0.1197
 IR Inten    --     3.4140                 1.1174                 1.1640
 Raman Activ --     0.2262                 0.4918                 0.4601

                    16                     17                     18
                     A                      A                      A
 Frequencies --   207.7509               226.6751               259.7375
 Red. masses --     6.2540                 4.4128                 5.2312
 Frc consts  --     0.1590                 0.1336                 0.2079
 IR Inten    --     1.8826                 1.6967                 7.9703
 Raman Activ --     1.7107                 0.2108                 0.9323

                    19                     20                     21
                     A                      A                      A
 Frequencies --   268.5566               283.8958               290.0027
 Red. masses --     5.4164                 4.3778                 5.4259
 Frc consts  --     0.2302                 0.2079                 0.2689
 IR Inten    --     2.2037                 5.4500                 1.7300
 Raman Activ --     0.1071                 0.6540                 0.9718

                    22                     23                     24
                     A                      A                      A
 Frequencies --   300.2458               313.2271               328.0402
 Red. masses --     5.3076                 5.3187                 6.4287
 Frc consts  --     0.2819                 0.3074                 0.4076
 IR Inten    --     3.9417                 0.5532                 2.4908
 Raman Activ --     0.5477                 1.2415                 5.2608

                    25                     26                     27
                     A                      A                      A
 Frequencies --   338.8832               357.4971               378.8463
 Red. masses --     5.1590                 7.2189                 4.3125
 Frc consts  --     0.3491                 0.5436                 0.3647
 IR Inten    --     3.8951                 2.1583                 4.0461
 Raman Activ --     3.5320                 1.1269                 0.6850

                    28                     29                     30
                     A                      A                      A
 Frequencies --   403.7616               415.3984               420.0458
 Red. masses --     6.2968                 4.4142                 6.8440
 Frc consts  --     0.6048                 0.4488                 0.7115
 IR Inten    --     4.5109                 3.3848                 3.6682
 Raman Activ --     5.2112                 0.4219                 4.9479

                    31                     32                     33
                     A                      A                      A
 Frequencies --   441.7519               463.2862               479.8352
 Red. masses --     4.0690                 3.4618                 4.7270
 Frc consts  --     0.4678                 0.4378                 0.6412
 IR Inten    --    23.4256                 7.1215                15.3620
 Raman Activ --     4.0025                 0.8065                 2.6392

                    34                     35                     36
                     A                      A                      A
 Frequencies --   525.9798               540.2707               561.1183
 Red. masses --     4.8234                 3.8984                 3.8595
 Frc consts  --     0.7862                 0.6704                 0.7160
 IR Inten    --    12.1939                41.4292                 1.0446
 Raman Activ --     1.0320                 2.5571                 2.0434

                    37                     38                     39
                     A                      A                      A
 Frequencies --   574.3489               584.6673               596.0207
 Red. masses --     3.5159                 3.6005                 3.0866
 Frc consts  --     0.6833                 0.7252                 0.6460
 IR Inten    --    16.9518                33.1694                19.0457
 Raman Activ --     1.7664                 1.3644                 0.2977

                    40                     41                     42
                     A                      A                      A
 Frequencies --   638.9699               654.1668               670.9931
 Red. masses --     2.5539                 1.1951                 1.1068
 Frc consts  --     0.6144                 0.3013                 0.2936
 IR Inten    --    38.0368                62.5637                96.4152
 Raman Activ --     1.0998                 1.5484                 1.4645

                    43                     44                     45
                     A                      A                      A
 Frequencies --   678.9280               691.6293               698.8826
 Red. masses --     3.0460                 1.1560                 1.0738
 Frc consts  --     0.8272                 0.3258                 0.3090
 IR Inten    --    44.8228                66.5942               103.5141
 Raman Activ --     0.4916                 1.2022                 1.7198

                    46                     47                     48
                     A                      A                      A
 Frequencies --   707.3653               806.4640               855.3906
 Red. masses --     1.1021                 1.0777                 2.6315
 Frc consts  --     0.3249                 0.4130                 1.1345
 IR Inten    --   120.7628               100.0081                 6.8111
 Raman Activ --     1.2823                 2.1106                 3.2900

                    49                     50                     51
                     A                      A                      A
 Frequencies --   860.3000               942.1077               945.3305
 Red. masses --     2.8167                 6.1949                 6.2059
 Frc consts  --     1.2283                 3.2396                 3.2676
 IR Inten    --    14.2852                33.3941               230.8625
 Raman Activ --     3.3652                 3.0090                 2.8406

                    52                     53                     54
                     A                      A                      A
 Frequencies --   961.3987               981.4795               984.2726
 Red. masses --     6.3221                 4.6369                 4.4483
 Frc consts  --     3.4428                 2.6317                 2.5391
 IR Inten    --   109.1084                 6.6770               117.2776
 Raman Activ --     1.2870                 4.2679                 0.8762

                    55                     56                     57
                     A                      A                      A
 Frequencies --   992.7488              1004.8346              1017.7316
 Red. masses --     5.8071                 4.5436                 4.3580
 Frc consts  --     3.3720                 2.7029                 2.6595
 IR Inten    --   108.6545               319.3994                64.2334
 Raman Activ --     3.3471                 1.4889                 1.6416

                    58                     59                     60
                     A                      A                      A
 Frequencies --  1037.7633              1049.8735              1055.8850
 Red. masses --     3.3706                 3.7233                 5.6084
 Frc consts  --     2.1387                 2.4180                 3.6840
 IR Inten    --   135.4291               205.5456                17.9056
 Raman Activ --     4.7885                 2.0206                 8.3157

                    61                     62                     63
                     A                      A                      A
 Frequencies --  1061.1955              1064.5724              1081.3790
 Red. masses --     4.2583                 4.1059                 2.6776
 Frc consts  --     2.8254                 2.7417                 1.8448
 IR Inten    --    67.1250                20.9724               106.0266
 Raman Activ --     5.1915                11.5540                 7.3763

                    64                     65                     66
                     A                      A                      A
 Frequencies --  1093.3334              1100.9203              1110.0382
 Red. masses --     2.8475                 2.6975                 2.7874
 Frc consts  --     2.0055                 1.9263                 2.0236
 IR Inten    --     3.0380                52.8496                29.7380
 Raman Activ --     3.2828                 1.6207                 3.9332

                    67                     68                     69
                     A                      A                      A
 Frequencies --  1122.0628              1131.8957              1139.9429
 Red. masses --     3.1921                 2.2976                 3.9865
 Frc consts  --     2.3679                 1.7343                 3.0522
 IR Inten    --    30.6224                 2.6488                63.3091
 Raman Activ --     5.8231                 6.1670                 0.6847

                    70                     71                     72
                     A                      A                      A
 Frequencies --  1143.2958              1156.1330              1164.3654
 Red. masses --     3.2900                 3.0477                 2.2101
 Frc consts  --     2.5338                 2.4002                 1.7654
 IR Inten    --    78.4484                26.6688                17.3575
 Raman Activ --     3.9276                 3.8682                 2.4177

                    73                     74                     75
                     A                      A                      A
 Frequencies --  1166.3992              1176.9326              1184.0587
 Red. masses --     2.0258                 1.7480                 1.6563
 Frc consts  --     1.6239                 1.4265                 1.3682
 IR Inten    --    11.7918                16.3932                20.1401
 Raman Activ --     2.2422                 3.2475                 0.8157

                    76                     77                     78
                     A                      A                      A
 Frequencies --  1190.9954              1217.6410              1218.3000
 Red. masses --     1.4180                 1.2770                 1.2723
 Frc consts  --     1.1851                 1.1155                 1.1126
 IR Inten    --     2.4562                11.3441                 6.5599
 Raman Activ --     3.4309                 4.1221                 1.2412

                    79                     80                     81
                     A                      A                      A
 Frequencies --  1245.5171              1251.1437              1258.6980
 Red. masses --     1.2423                 1.2928                 1.2430
 Frc consts  --     1.1355                 1.1923                 1.1603
 IR Inten    --     4.6732                 3.7283                 7.8821
 Raman Activ --     4.3575                 3.8931                 1.8501

                    82                     83                     84
                     A                      A                      A
 Frequencies --  1269.1090              1270.6601              1279.9869
 Red. masses --     1.1958                 1.1323                 1.2194
 Frc consts  --     1.1348                 1.0771                 1.1771
 IR Inten    --     2.7100                22.4956                 6.2412
 Raman Activ --     3.7526                 3.0344                 2.3355

                    85                     86                     87
                     A                      A                      A
 Frequencies --  1294.7847              1298.4373              1307.1115
 Red. masses --     1.1930                 1.2945                 1.4036
 Frc consts  --     1.1784                 1.2858                 1.4129
 IR Inten    --    14.5762                14.1056                 3.5388
 Raman Activ --     2.5078                 1.8038                 3.2723

                    88                     89                     90
                     A                      A                      A
 Frequencies --  1315.5008              1323.8482              1334.2744
 Red. masses --     1.2240                 1.2620                 1.4368
 Frc consts  --     1.2480                 1.3032                 1.5071
 IR Inten    --    14.4050                46.3138                27.4072
 Raman Activ --     2.2644                 4.3216                 1.1190

                    91                     92                     93
                     A                      A                      A
 Frequencies --  1343.2376              1351.2425              1361.6693
 Red. masses --     1.4733                 1.3682                 1.5284
 Frc consts  --     1.5662                 1.4719                 1.6697
 IR Inten    --    13.4258                58.3998                 7.3436
 Raman Activ --     5.4992                 2.1559                 2.9675

                    94                     95                     96
                     A                      A                      A
 Frequencies --  1373.9908              1377.5201              1389.5132
 Red. masses --     1.2564                 1.1652                 1.2756
 Frc consts  --     1.3975                 1.3027                 1.4511
 IR Inten    --     3.1082                20.9974                11.7194
 Raman Activ --     9.9569                 1.4960                 1.6919

                    97                     98                     99
                     A                      A                      A
 Frequencies --  1390.7933              1399.2219              1400.6441
 Red. masses --     1.2881                 1.3746                 1.4131
 Frc consts  --     1.4680                 1.5856                 1.6333
 IR Inten    --    13.0094                 6.5351                 5.6916
 Raman Activ --     1.4681                 2.6409                12.7631

                   100                    101                    102
                     A                      A                      A
 Frequencies --  1408.2938              1432.6335              1433.1469
 Red. masses --     1.3003                 1.3425                 1.1994
 Frc consts  --     1.5194                 1.6234                 1.4515
 IR Inten    --     7.1853                27.3951                96.6698
 Raman Activ --     2.8056                 3.7666                 2.6812

                   103                    104                    105
                     A                      A                      A
 Frequencies --  1446.2602              1459.7408              1469.9454
 Red. masses --     1.3631                 1.3632                 1.0975
 Frc consts  --     1.6798                 1.7114                 1.3972
 IR Inten    --     6.4092                17.9807                 6.2568
 Raman Activ --     2.6432                 0.4281                 5.7270

                   106                    107                    108
                     A                      A                      A
 Frequencies --  1471.8623              1477.5147              3255.7762
 Red. masses --     1.0859                 1.4379                 1.0769
 Frc consts  --     1.3860                 1.8494                 6.7254
 IR Inten    --     4.4210                52.2483                 5.7558
 Raman Activ --     3.5505                 3.3309                 3.5227

                   109                    110                    111
                     A                      A                      A
 Frequencies --  3259.1340              3259.2317              3262.9499
 Red. masses --     1.0721                 1.0799                 1.0697
 Frc consts  --     6.7095                 6.7587                 6.7101
 IR Inten    --    11.9452                 2.1156                25.0810
 Raman Activ --   276.1723               104.8907                12.8164

                   112                    113                    114
                     A                      A                      A
 Frequencies --  3269.6701              3270.8627              3274.8226
 Red. masses --     1.0812                 1.0816                 1.0671
 Frc consts  --     6.8104                 6.8176                 6.7428
 IR Inten    --     0.9718                 3.3804                 6.1828
 Raman Activ --    16.1523                 4.9947               162.4477

                   115                    116                    117
                     A                      A                      A
 Frequencies --  3276.1177              3281.2160              3283.8582
 Red. masses --     1.0808                 1.0811                 1.0852
 Frc consts  --     6.8347                 6.8578                 6.8951
 IR Inten    --    19.2140                16.5576                37.7634
 Raman Activ --    30.0177                32.2833                88.3829

                   118                    119                    120
                     A                      A                      A
 Frequencies --  3291.7814              3296.6392              3318.8953
 Red. masses --     1.0864                 1.0860                 1.1060
 Frc consts  --     6.9357                 6.9538                 7.1777
 IR Inten    --    13.4630               134.7010                30.1470
 Raman Activ --    19.1744                 6.7706                47.0888

                   121                    122                    123
                     A                      A                      A
 Frequencies --  3332.9825              3365.3823              3366.0686
 Red. masses --     1.1040                 1.0675                 1.0694
 Frc consts  --     7.2257                 7.1232                 7.1392
 IR Inten    --    12.9168               141.4265                23.1176
 Raman Activ --    53.4693               109.9364                76.5726

                   124                    125                    126
                     A                      A                      A
 Frequencies --  3370.5877              3374.2556              3375.9231
 Red. masses --     1.0672                 1.0673                 1.0672
 Frc consts  --     7.1432                 7.1597                 7.1664
 IR Inten    --    49.3797                54.2934                65.3579
 Raman Activ --   127.3688               163.5416               149.2151

                   127                    128                    129
                     A                      A                      A
 Frequencies --  3380.0044              3885.0616              3890.5829
 Red. masses --     1.0660                 1.0678                 1.0668
 Frc consts  --     7.1751                 9.4955                 9.5140
 IR Inten    --    52.5038                81.0255                72.1798
 Raman Activ --    73.8299                95.4863               112.9522

 - Thermochemistry -
 -------------------
 Temperature   298.150 Kelvin.  Pressure   1.00000 Atm.
 Atom     1 has atomic number  8 and mass  15.99491

 Molecular mass:   342.11621 amu.
 Principal axes and moments of inertia in atomic units:
                           1         2         3
     Eigenvalues --  4688.25607********************
           X            0.99998  -0.00636  -0.00055
           Y            0.00636   0.99998  -0.00129
           Z            0.00056   0.00128   1.00000
 This molecule is an asymmetric top.
 Rotational symmetry number  1.
 Warning -- assumption of classical behavior for rotation
           may cause significant error
 Rotational temperatures (Kelvin)      0.01847     0.00713     0.00537
 Rotational constants (GHZ):           0.38495     0.14846     0.11196
    7 imaginary frequencies ignored.
 Zero-point vibrational energy     971620.4 (Joules/Mol)
                                  232.22285 (Kcal/Mol)
 Warning -- explicit consideration of  32 degrees of freedom as
           vibrations may cause significant error
 Vibrational temperatures:     29.25    46.89    75.41   129.69   144.00
          (Kelvin)            176.88   205.66   263.13   298.91   326.13
                              373.70   386.39   408.46   417.25   431.99
                              450.66   471.98   487.58   514.36   545.07
                              580.92   597.66   604.35   635.58   666.56
                              690.37   756.77   777.33   807.32   826.36
                              841.20   857.54   919.33   941.20   965.41
                              976.82   995.10  1005.53  1017.74  1160.32
                             1230.71  1237.78  1355.48  1360.12  1383.24
                             1412.13  1416.15  1428.34  1445.73  1464.29
                             1493.11  1510.53  1519.18  1526.82  1531.68
                             1555.86  1573.06  1583.98  1597.10  1614.40
                             1628.54  1640.12  1644.95  1663.42  1675.26
                             1678.19  1693.34  1703.59  1713.57  1751.91
                             1752.86  1792.02  1800.11  1810.98  1825.96
                             1828.19  1841.61  1862.90  1868.16  1880.64
                             1892.71  1904.72  1919.72  1932.62  1944.13
                             1959.14  1976.86  1981.94  1999.20  2001.04
                             2013.17  2015.21  2026.22  2061.24  2061.98
                             2080.84  2100.24  2114.92  2117.68  2125.81
                             4684.33  4689.16  4689.30  4694.65  4704.32
                             4706.04  4711.73  4713.60  4720.93  4724.73
                             4736.13  4743.12  4775.14  4795.41  4842.03
                             4843.02  4849.52  4854.80  4857.19  4863.07
                             5589.73  5597.67

 Zero-point correction=                           0.370071 (Hartree/Particle)
 Thermal correction to Energy=                    0.388942
 Thermal correction to Enthalpy=                  0.389886
 Thermal correction to Gibbs Free Energy=         0.322363
 Sum of electronic and zero-point Energies=          -1297.602492
 Sum of electronic and thermal Energies=             -1297.583621
 Sum of electronic and thermal Enthalpies=           -1297.582676
 Sum of electronic and thermal Free Energies=        -1297.650199

                     E (Thermal)             CV                S
                      KCal/Mol        Cal/Mol-Kelvin    Cal/Mol-Kelvin
 Total                  244.065             76.802            142.114
 Electronic               0.000              0.000              0.000
 Translational            0.889              2.981             43.384
 Rotational               0.889              2.981             35.173
 Vibrational            242.287             70.841             63.556
 Vibration     1          0.593              1.986              6.602
 Vibration     2          0.594              1.983              5.665
 Vibration     3          0.596              1.977              4.724
 Vibration     4          0.602              1.956              3.657
 Vibration     5          0.604              1.949              3.453
 Vibration     6          0.610              1.930              3.054
 Vibration     7          0.616              1.910              2.764
 Vibration     8          0.630              1.863              2.299
 Vibration     9          0.641              1.829              2.063
 Vibration    10          0.650              1.800              1.905
 Vibration    11          0.668              1.746              1.664
 Vibration    12          0.673              1.731              1.605
 Vibration    13          0.682              1.704              1.510
 Vibration    14          0.686              1.692              1.474
 Vibration    15          0.693              1.673              1.416
 Vibration    16          0.701              1.648              1.345
 Vibration    17          0.711              1.619              1.270
 Vibration    18          0.719              1.598              1.217
 Vibration    19          0.733              1.560              1.133
 Vibration    20          0.749              1.515              1.044
 Vibration    21          0.769              1.462              0.949
 Vibration    22          0.779              1.437              0.908
 Vibration    23          0.783              1.427              0.892
 Vibration    24          0.802              1.379              0.821
 Vibration    25          0.821              1.331              0.757
 Vibration    26          0.836              1.295              0.711
 Vibration    27          0.881              1.192              0.596
 Vibration    28          0.895              1.161              0.565
 Vibration    29          0.917              1.115              0.522
 Vibration    30          0.931              1.087              0.496
 Vibration    31          0.942              1.065              0.477
 Vibration    32          0.954              1.040              0.457

 Normal termination of Gaussian 09 at Mon Mar 28 09:48:08 2016.
