 Gaussian 09, Revision B.01,
 Gaussian 09:  EM64L-G09RevB.01 12-Aug-2010

 ----------------------------------------------------------------------
 # opt freq=raman b3lyp/6-31+g(2df,p) scrf=(smd,solvent=water) geom=con
 nectivity
 ----------------------------------------------------------------------

 ------------------------------
 beta-d-glucose raman optimized
 ------------------------------
 Symbolic Z-matrix:
 Charge =  0 Multiplicity = 1

 SCF Done:  E(RB3LYP) =  -687.297854371     A.U. after   12 cycles
 SCF Done:  E(RB3LYP) =  -687.304182605     A.U. after   10 cycles
 SCF Done:  E(RB3LYP) =  -687.304993600     A.U. after   10 cycles
 SCF Done:  E(RB3LYP) =  -687.305220759     A.U. after    9 cycles
 SCF Done:  E(RB3LYP) =  -687.305252579     A.U. after    8 cycles
 SCF Done:  E(RB3LYP) =  -687.305268144     A.U. after    8 cycles
 SCF Done:  E(RB3LYP) =  -687.305271126     A.U. after    7 cycles
 SCF Done:  E(RB3LYP) =  -687.305272384     A.U. after    7 cycles
 SCF Done:  E(RB3LYP) =  -687.305272367     A.U. after    7 cycles
 Optimization completed.
    -- Stationary point found.
 Normal termination of Gaussian 09 at Wed Apr  1 19:41:13 2015.

 ----------------------------------------------------------------------
 #N Geom=AllCheck Guess=TCheck SCRF=Check GenChk RB3LYP/6-31+G(2df,p) F
 req
 ----------------------------------------------------------------------

 beta-d-glucose raman optimized
 ------------------------------
 Redundant internal coordinates taken from checkpoint file:
 beta-d-glucose-opt.chk
 Charge =  0 Multiplicity = 1

                         Standard orientation:
 ---------------------------------------------------------------------
 Center     Atomic      Atomic             Coordinates (Angstroms)
 Number     Number       Type             X           Y           Z
 ---------------------------------------------------------------------
      1          8           0       -0.674657   -1.151211   -0.238679
      2          8           0       -0.810409    2.511935    0.218341
      3          8           0        1.982234    1.989815   -0.421948
      4          8           0        2.928943   -0.618318    0.275809
      5          8           0        0.971393   -2.728771   -0.131648
      6          8           0       -3.496845   -0.839158    0.230545
      7          6           0       -0.340936    1.248515   -0.251881
      8          6           0        1.116159    1.025733    0.174467
      9          6           0       -1.224182    0.086643    0.231706
     10          6           0        1.615402   -0.367619   -0.212570
     11          6           0        0.622627   -1.435326    0.275920
     12          6           0       -2.645256    0.175831   -0.303576
     13          1           0       -0.388602    1.304667   -1.344563
     14          1           0        1.166409    1.118344    1.271667
     15          1           0       -1.246779    0.077410    1.332862
     16          1           0        1.684403   -0.440366   -1.304249
     17          1           0        0.587004   -1.457150    1.373947
     18          1           0       -2.627311    0.121813   -1.400154
     19          1           0       -3.081588    1.131743   -0.008561
     20          1           0       -0.771988    2.514754    1.185605
     21          1           0        1.679486    2.866127   -0.148165
     22          1           0        2.923443   -0.541185    1.240516
     23          1           0        1.167910   -2.717096   -1.079954
     24          1           0       -3.160538   -1.696057   -0.062706
 ---------------------------------------------------------------------

 SCF Done:  E(RB3LYP) =  -687.305272367     A.U. after    1 cycles

 The electronic state is 1-A.
 Alpha  occ. eigenvalues --  -19.16943 -19.16761 -19.16290 -19.16195 -19.15906
 Alpha  occ. eigenvalues --  -19.15694 -10.29041 -10.24443 -10.24253 -10.24226
 Alpha  occ. eigenvalues --  -10.24168 -10.23144  -1.08593  -1.04925  -1.04039
 Alpha  occ. eigenvalues --   -1.03087  -1.02208  -1.01683  -0.78706  -0.77269
 Alpha  occ. eigenvalues --   -0.69093  -0.65518  -0.62512  -0.60953  -0.55774
 Alpha  occ. eigenvalues --   -0.53205  -0.52280  -0.51375  -0.50590  -0.48405
 Alpha  occ. eigenvalues --   -0.47083  -0.46140  -0.43794  -0.42864  -0.41946
 Alpha  occ. eigenvalues --   -0.40497  -0.38724  -0.38034  -0.36801  -0.35649
 Alpha  occ. eigenvalues --   -0.35110  -0.33686  -0.32592  -0.31808  -0.30015
 Alpha  occ. eigenvalues --   -0.29320  -0.27889  -0.26419
 Alpha virt. eigenvalues --    0.00771   0.01257   0.01746   0.01911   0.03987
 Alpha virt. eigenvalues --    0.04573   0.05099   0.05183   0.06203   0.07149
 Alpha virt. eigenvalues --    0.08460   0.08911   0.09658   0.10672   0.11018

 Mulliken atomic charges:
              1
     1  O   -0.170844
     2  O   -0.509123
     3  O   -0.539729
     4  O   -0.503113
     5  O   -0.490787
     6  O   -0.500878
     7  C   -0.110509
     8  C    0.034505
     9  C    0.074427
    10  C    0.017760
    11  C   -0.067286
    12  C   -0.357283
    13  H    0.167580
    14  H    0.166872
    15  H    0.157860
    16  H    0.174251
    17  H    0.171928
    18  H    0.175745
    19  H    0.184959
    20  H    0.384035
    21  H    0.391025
    22  H    0.383043
    23  H    0.384392
    24  H    0.381171
 Sum of Mulliken atomic charges =   0.00000

 Dipole moment (field-independent basis, Debye):
    X=             -0.1529    Y=              2.0301    Z=              2.4427  Tot=              3.1799
 Quadrupole moment (field-independent basis, Debye-Ang):
   XX=            -97.1122   YY=            -77.6155   ZZ=            -61.6436
   XY=             -0.1170   XZ=              7.1412   YZ=              9.8793

  Exact polarizability: 140.061  -3.000 139.626  -0.219   1.243 130.323
 Approx polarizability: 131.401  -3.319 134.141  -0.890   1.884 131.070

                     1                      2                      3
                     A                      A                      A
 Frequencies --    67.7528                94.7894               106.1651
 Red. masses --     6.6368                 5.8183                 4.3666
 Frc consts  --     0.0179                 0.0308                 0.0290
 IR Inten    --     2.6267                 3.5687                 6.7013
 Raman Activ --     0.0186                 0.1316                 0.1876

                     4                      5                      6
                     A                      A                      A
 Frequencies --   148.6821               195.6372               236.5188
 Red. masses --     5.6578                 2.3806                 2.2312
 Frc consts  --     0.0737                 0.0537                 0.0735
 IR Inten    --     3.3543                 0.1174                83.8521
 Raman Activ --     0.0576                 0.1794                 0.1209

                     7                      8                      9
                     A                      A                      A
 Frequencies --   262.4441               274.0536               282.2346
 Red. masses --     1.7786                 2.2892                 1.6239
 Frc consts  --     0.0722                 0.1013                 0.0762
 IR Inten    --    23.1444                98.6864                55.6279
 Raman Activ --     2.1052                 1.1517                 1.4651

                    10                     11                     12
                     A                      A                      A
 Frequencies --   300.0062               314.1042               316.5388
 Red. masses --     4.2833                 1.4627                 1.5364
 Frc consts  --     0.2271                 0.0850                 0.0907
 IR Inten    --    40.0244               381.4287               130.4517
 Raman Activ --     0.3281                 1.7304                 0.2572

                    13                     14                     15
                     A                      A                      A
 Frequencies --   329.8064               352.3468               365.1566
 Red. masses --     1.5118                 1.5685                 2.2677
 Frc consts  --     0.0969                 0.1147                 0.1782
 IR Inten    --   149.2460                43.2918               170.4333
 Raman Activ --     0.7966                 3.0694                 2.7276

                    16                     17                     18
                     A                      A                      A
 Frequencies --   395.9094               416.1864               439.6019
 Red. masses --     4.0049                 4.9658                 5.2208
 Frc consts  --     0.3699                 0.5068                 0.5944
 IR Inten    --    19.2535                 7.7220                19.4667
 Raman Activ --     2.8069                 8.3873                12.9652

                    19                     20                     21
                     A                      A                      A
 Frequencies --   485.9212               569.7264               595.6737
 Red. masses --     4.0754                 3.6474                 5.1931
 Frc consts  --     0.5670                 0.6975                 1.0857
 IR Inten    --    16.0782                92.0053                 6.2381
 Raman Activ --    11.6291                 4.9869                 1.2573

                    22                     23                     24
                     A                      A                      A
 Frequencies --   631.9644               639.6766               885.0937
 Red. masses --     3.2925                 3.5263                 2.1043
 Frc consts  --     0.7747                 0.8501                 0.9713
 IR Inten    --    28.5373                13.8773                60.3983
 Raman Activ --     0.9770                 0.1660                 6.2348

                    25                     26                     27
                     A                      A                      A
 Frequencies --   975.5852               991.4137              1020.0887
 Red. masses --     4.7071                 4.0101                 5.2371
 Frc consts  --     2.6396                 2.3223                 3.2108
 IR Inten    --   207.9573                80.2571                63.4931
 Raman Activ --     1.8872                 5.3206                 2.7142

                    28                     29                     30
                     A                      A                      A
 Frequencies --  1029.5515              1035.3077              1066.5513
 Red. masses --     6.9478                 4.7702                 2.8819
 Frc consts  --     4.3390                 3.0125                 1.9315
 IR Inten    --   372.1510               131.8782               211.9107
 Raman Activ --     2.3180                18.1972                 5.9989

                    31                     32                     33
                     A                      A                      A
 Frequencies --  1069.7544              1092.2729              1094.3994
 Red. masses --     3.3391                 3.1281                 3.0469
 Frc consts  --     2.2514                 2.1988                 2.1501
 IR Inten    --   151.1301                 5.9343               221.2535
 Raman Activ --    10.7233                 8.0816                12.0821

                    34                     35                     36
                     A                      A                      A
 Frequencies --  1120.3247              1132.5829              1187.1902
 Red. masses --     3.0362                 3.1362                 1.1443
 Frc consts  --     2.2453                 2.3702                 0.9502
 IR Inten    --    27.2790                10.2446                33.6488
 Raman Activ --    21.9243                12.2647                 4.5642

                    37                     38                     39
                     A                      A                      A
 Frequencies --  1206.9365              1214.7353              1240.9195
 Red. masses --     1.5797                 1.2358                 1.3308
 Frc consts  --     1.3558                 1.0744                 1.2074
 IR Inten    --   119.7448                46.2648               110.8640
 Raman Activ --     3.0310                 8.0517                 9.3422

                    40                     41                     42
                     A                      A                      A
 Frequencies --  1255.1667              1257.7630              1307.4656
 Red. masses --     1.5360                 1.2981                 1.3502
 Frc consts  --     1.4258                 1.2099                 1.3599
 IR Inten    --    32.2825                14.6073                37.4221
 Raman Activ --     1.1756                 5.9198                 9.9888

                    43                     44                     45
                     A                      A                      A
 Frequencies --  1330.4111              1361.9952              1374.6120
 Red. masses --     1.2146                 1.3730                 1.3256
 Frc consts  --     1.2666                 1.5006                 1.4758
 IR Inten    --     4.2129                 7.3737                28.0327
 Raman Activ --     7.8573                 3.6988                23.6982

                    46                     47                     48
                     A                      A                      A
 Frequencies --  1377.2727              1383.7063              1389.9382
 Red. masses --     1.3345                 1.3949                 1.2219
 Frc consts  --     1.4914                 1.5735                 1.3909
 IR Inten    --    10.6607                63.9538                12.5403
 Raman Activ --     4.6083                 6.7624                 5.4712

                    49                     50                     51
                     A                      A                      A
 Frequencies --  1405.2045              1413.2251              1419.3007
 Red. masses --     1.3236                 1.2669                 1.3951
 Frc consts  --     1.5399                 1.4908                 1.6558
 IR Inten    --    28.2210                44.5270                26.9122
 Raman Activ --    17.6123                14.3062                 5.9374

                    52                     53                     54
                     A                      A                      A
 Frequencies --  1424.0362              1445.7907              1473.8398
 Red. masses --     1.3534                 1.4045                 1.0857
 Frc consts  --     1.6171                 1.7297                 1.3895
 IR Inten    --    13.0143               104.9171                 6.3424
 Raman Activ --     9.2373                 6.6875                15.6553

                    55                     56                     57
                     A                      A                      A
 Frequencies --  2982.2185              2993.1456              3027.6597
 Red. masses --     1.0822                 1.0821                 1.0826
 Frc consts  --     5.6705                 5.7119                 5.8471
 IR Inten    --    33.6713                59.7793                90.8378
 Raman Activ --   238.3697               559.6979               222.4902

                    58                     59                     60
                     A                      A                      A
 Frequencies --  3029.0195              3063.6019              3072.2614
 Red. masses --     1.0698                 1.0854                 1.0854
 Frc consts  --     5.7831                 6.0022                 6.0361
 IR Inten    --    33.6967                24.5373                80.5774
 Raman Activ --   419.9719                63.7837               326.2059

                    61                     62                     63
                     A                      A                      A
 Frequencies --  3128.4399              3758.0248              3760.3237
 Red. masses --     1.0967                 1.0665                 1.0664
 Frc consts  --     6.3238                 8.8742                 8.8846
 IR Inten    --    25.9955                79.5865               168.3112
 Raman Activ --   198.6587               130.7850                45.1535

                    64                     65                     66
                     A                      A                      A
 Frequencies --  3761.0848              3779.3245              3788.8366
 Red. masses --     1.0662                 1.0664                 1.0665
 Frc consts  --     8.8862                 8.9741                 9.0199
 IR Inten    --    25.4568               112.8913                96.0128
 Raman Activ --   303.8933               178.9337               130.1353

 - Thermochemistry -
 -------------------
 Temperature   298.150 Kelvin.  Pressure   1.00000 Atm.
 Atom     1 has atomic number  8 and mass  15.99491

 Molecular mass:   180.06339 amu.
 Principal axes and moments of inertia in atomic units:
                           1         2         3
     Eigenvalues --  1564.526252340.002303717.79798
           X            0.99996  -0.00584   0.00663
           Y            0.00579   0.99995   0.00796
           Z           -0.00668  -0.00792   0.99995
 This molecule is an asymmetric top.
 Rotational symmetry number  1.
 Warning -- assumption of classical behavior for rotation
           may cause significant error
 Rotational temperatures (Kelvin)      0.05536     0.03701     0.02330
 Rotational constants (GHZ):           1.15354     0.77126     0.48543
 Zero-point vibrational energy     514078.9 (Joules/Mol)
                                  122.86779 (Kcal/Mol)
 Warning -- explicit consideration of  21 degrees of freedom as
           vibrations may cause significant error
 Vibrational temperatures:     97.48   136.38   152.75   213.92   281.48
          (Kelvin)            340.30   377.60   394.30   406.07   431.64
                              451.93   455.43   474.52   506.95   525.38
                              569.62   598.80   632.49   699.13   819.71
                              857.04   909.25   920.35  1273.45  1403.65
                             1426.42  1467.68  1481.29  1489.57  1534.53
                             1539.14  1571.54  1574.59  1611.90  1629.53
                             1708.10  1736.51  1747.73  1785.40  1805.90
                             1809.64  1881.15  1914.16  1959.60  1977.76
                             1981.59  1990.84  1999.81  2021.77  2033.31
                             2042.05  2048.87  2080.17  2120.52  4290.74
                             4306.46  4356.12  4358.08  4407.83  4420.29
                             4501.12  5406.95  5410.26  5411.36  5437.60
                             5451.28

 Zero-point correction=                           0.195802 (Hartree/Particle)
 Thermal correction to Energy=                    0.208612
 Thermal correction to Enthalpy=                  0.209556
 Thermal correction to Gibbs Free Energy=         0.157671
 Sum of electronic and zero-point Energies=           -687.109470
 Sum of electronic and thermal Energies=              -687.096660
 Sum of electronic and thermal Enthalpies=            -687.095716
 Sum of electronic and thermal Free Energies=         -687.147602

                     E (Thermal)             CV                S
                      KCal/Mol        Cal/Mol-Kelvin    Cal/Mol-Kelvin
 Total                  130.906             48.470            109.202
 Electronic               0.000              0.000              0.000
 Translational            0.889              2.981             41.471
 Rotational               0.889              2.981             30.988
 Vibrational            129.129             42.508             36.743
 Vibration     1          0.598              1.970              4.218
 Vibration     2          0.603              1.953              3.559
 Vibration     3          0.605              1.944              3.338
 Vibration     4          0.618              1.904              2.689
 Vibration     5          0.636              1.846              2.174
 Vibration     6          0.655              1.785              1.829
 Vibration     7          0.670              1.742              1.645
 Vibration     8          0.676              1.721              1.571
 Vibration     9          0.681              1.707              1.520
 Vibration    10          0.693              1.674              1.417
 Vibration    11          0.702              1.647              1.341
 Vibration    12          0.703              1.642              1.328
 Vibration    13          0.713              1.616              1.261
 Vibration    14          0.729              1.570              1.156
 Vibration    15          0.738              1.544              1.100
 Vibration    16          0.763              1.479              0.978
 Vibration    17          0.779              1.435              0.905
 Vibration    18          0.800              1.384              0.828
 Vibration    19          0.842              1.281              0.694
 Vibration    20          0.926              1.097              0.505
 Vibration    21          0.953              1.041              0.457

 Normal termination of Gaussian 09 at Thu Apr  2 02:31:10 2015.
