 Gaussian 09, Revision B.01,
 Gaussian 09:  EM64L-G09RevB.01 12-Aug-2010

 -------------------------------------------------
 # freq=raman b3lyp/6-31+g(2d,p) geom=connectivity
 -------------------------------------------------

 -----------------
 423 6571/6571.com
 -----------------
 Symbolic Z-matrix:
 Charge =  0 Multiplicity = 1

                         Standard orientation:
 ---------------------------------------------------------------------
 Center     Atomic      Atomic             Coordinates (Angstroms)
 Number     Number       Type             X           Y           Z
 ---------------------------------------------------------------------
      1          8           0       -5.066811   -0.220314    0.474393
      2          6           0       -3.801669   -0.134786   -0.197135
      3          6           0       -3.255685    1.226848    0.198975
      4          8           0       -4.105654    2.349313   -0.077192
      5          1           0       -5.033191    1.983398    0.000933
      6          6           0       -1.862893    1.546277   -0.318211
      7          8           0       -1.271532    2.785042    0.099851
      8          1           0       -0.341995    2.740227   -0.267598
      9          6           0       -3.137886   -2.620418   -0.057289
     10          8           0       -4.413688   -3.189329    0.271500
     11          1           0       -4.377855   -4.182749    0.163745
     12          6           0       -2.793768   -1.174699    0.263869
     13          8           0       -1.504572   -0.843418   -0.273942
     14          6           0       -0.921168    0.420408    0.075486
     15          8           0        0.330944    0.584696   -0.607225
     16          6           0        1.545762    0.211815    0.057806
     17          6           0        2.070199   -1.135301   -0.414004
     18          8           0        1.095027   -2.146673   -0.121932
     19          1           0        0.183645   -1.774404   -0.294306
     20          6           0        3.400147   -1.617773    0.141071
     21          8           0        3.935478   -2.813025   -0.445490
     22          1           0        4.867920   -2.992295   -0.134217
     23          6           0        2.317299    2.562166    0.315351
     24          8           0        1.263397    3.359570   -0.244359
     25          1           0        1.508065    4.329443   -0.258633
     26          6           0        2.645399    1.204569   -0.284533
     27          8           0        3.869060    0.826609    0.363033
     28          6           0        4.371626   -0.460045   -0.024980
     29          8           0        5.557201   -0.540647    0.779918
     30          1           0        6.308037   -0.758440    0.222772
     31          1           0        4.663676   -0.412760   -1.053266
     32          1           0        3.273799   -1.795635    1.188592
     33          1           0        2.170307   -1.081825   -1.477968
     34          1           0        1.390448    0.191610    1.116281
     35          1           0        2.780424    1.277603   -1.343464
     36          1           0        3.211416    3.148707    0.277607
     37          1           0        2.079522    2.402899    1.346368
     38          1           0       -5.754877   -0.422261   -0.163873
     39          1           0       -2.397825   -3.226708    0.421900
     40          1           0       -3.010430   -2.739940   -1.112926
     41          1           0       -2.724276   -1.096470    1.328740
     42          1           0       -3.936547   -0.188026   -1.257264
     43          1           0       -3.164512    1.192849    1.264542
     44          1           0       -1.916336    1.563333   -1.386739
     45          1           0       -0.754389    0.452482    1.131921
 ---------------------------------------------------------------------

 SCF Done:  E(RB3LYP) =  -1297.98775563     A.U. after   13 cycles

 The electronic state is 1-A.
 Alpha  occ. eigenvalues --  -19.19105 -19.18645 -19.18085 -19.18038 -19.17796
 Alpha  occ. eigenvalues --  -19.17375 -19.16902 -19.16730 -19.14800 -19.13891
 Alpha  occ. eigenvalues --  -19.12913 -10.30733 -10.30485 -10.26423 -10.26022
 Alpha  occ. eigenvalues --  -10.25977 -10.25602 -10.25305 -10.24826 -10.24627
 Alpha  occ. eigenvalues --  -10.24553 -10.23769 -10.23548  -1.10022  -1.09137
 Alpha  occ. eigenvalues --   -1.05831  -1.04963  -1.04397  -1.03600  -1.03057
 Alpha  occ. eigenvalues --   -1.02755  -1.01658  -1.00830  -0.99670  -0.82553
 Alpha  occ. eigenvalues --   -0.80485  -0.79647  -0.78510  -0.72221  -0.70162
 Alpha  occ. eigenvalues --   -0.67449  -0.64815  -0.63318  -0.62707  -0.61473
 Alpha  occ. eigenvalues --   -0.60223  -0.56665  -0.55896  -0.55473  -0.55106
 Alpha  occ. eigenvalues --   -0.54284  -0.53165  -0.53005  -0.51972  -0.51277
 Alpha  occ. eigenvalues --   -0.50646  -0.49944  -0.49848  -0.48326  -0.46551
 Alpha  occ. eigenvalues --   -0.46027  -0.45301  -0.44577  -0.43805  -0.43462
 Alpha  occ. eigenvalues --   -0.42408  -0.41973  -0.41002  -0.40428  -0.39043
 Alpha  occ. eigenvalues --   -0.38621  -0.38109  -0.37016  -0.36683  -0.36266
 Alpha  occ. eigenvalues --   -0.35845  -0.34951  -0.34720  -0.34102  -0.33358
 Alpha  occ. eigenvalues --   -0.32802  -0.31071  -0.30642  -0.30586  -0.30529
 Alpha  occ. eigenvalues --   -0.29474  -0.28941  -0.28584  -0.26914  -0.26617
 Alpha  occ. eigenvalues --   -0.26302
 Alpha virt. eigenvalues --   -0.02212  -0.02134  -0.01600  -0.00408   0.00171
 Alpha virt. eigenvalues --    0.00925   0.01837   0.02348   0.03165   0.03636
 Alpha virt. eigenvalues --    0.04014   0.04366   0.04886   0.05210   0.05548

 Mulliken atomic charges:
              1
     1  O   -0.538546
     2  C   -0.119383
     3  C    0.319741
     4  O   -0.561412
     5  H    0.340618
     6  C   -0.112347
     7  O   -0.540100
     8  H    0.411020
     9  C   -0.263162
    10  O   -0.530671
    11  H    0.344395
    12  C    0.166769
    13  O   -0.276697
    14  C    0.190379
    15  O   -0.260171
    16  C    0.133175
    17  C    0.316339
    18  O   -0.586628
    19  H    0.381589
    20  C    0.057193
    21  O   -0.541723
    22  H    0.333132
    23  C   -0.259588
    24  O   -0.569069
    25  H    0.360978
    26  C   -0.041438
    27  O   -0.219262
    28  C    0.103880
    29  O   -0.521866
    30  H    0.330754
    31  H    0.121702
    32  H    0.133609
    33  H    0.120693
    34  H    0.120591
    35  H    0.127363
    36  H    0.140862
    37  H    0.155808
    38  H    0.342214
    39  H    0.150029
    40  H    0.144946
    41  H    0.114338
    42  H    0.124635
    43  H    0.111105
    44  H    0.121742
    45  H    0.122464
 Sum of Mulliken atomic charges =   0.00000

 Dipole moment (field-independent basis, Debye):
    X=              2.3288    Y=             -1.2630    Z=             -1.9555  Tot=              3.2928
 Quadrupole moment (field-independent basis, Debye-Ang):
   XX=           -113.9458   YY=           -137.4195   ZZ=           -140.2454
   XY=             17.5168   XZ=              0.7949   YZ=             -1.6868

  Exact polarizability: 235.918  -1.286 198.397   0.739   0.107 143.630
 Approx polarizability: 276.638  -0.269 258.612   0.604  -0.385 238.055

 ******    7 imaginary frequencies (negative Signs) ******

                     1                      2                      3
                     A                      A                      A
 Frequencies --  -311.1387              -256.0733              -247.6414
 Red. masses --     1.7408                 1.2091                 1.7762
 Frc consts  --     0.0993                 0.0467                 0.0642
 IR Inten    --     4.1260               101.7350                 3.0680
 Raman Activ --     0.0569                 0.7603                 0.0341

                     4                      5                      6
                     A                      A                      A
 Frequencies --  -170.1707               -69.4356               -61.1272
 Red. masses --     1.2164                 7.2081                 6.1127
 Frc consts  --     0.0208                 0.0205                 0.0135
 IR Inten    --   101.1302                 0.7440                 1.3130
 Raman Activ --     0.5881                 0.0397                 0.0375

                     7                      8                      9
                     A                      A                      A
 Frequencies --   -33.7024                44.0460                72.1178
 Red. masses --     6.1961                 6.8087                 7.1463
 Frc consts  --     0.0041                 0.0078                 0.0219
 IR Inten    --     1.3439                 0.6651                 0.3193
 Raman Activ --     0.0302                 0.0261                 0.0438

                    10                     11                     12
                     A                      A                      A
 Frequencies --    75.2452                82.9169                95.9259
 Red. masses --     5.9955                 6.0312                 5.8097
 Frc consts  --     0.0200                 0.0244                 0.0315
 IR Inten    --     2.3750                 5.2506                 0.3711
 Raman Activ --     0.3298                 0.0185                 0.1563

                    13                     14                     15
                     A                      A                      A
 Frequencies --   153.5031               172.7961               180.6874
 Red. masses --     6.3047                 6.1037                 7.9199
 Frc consts  --     0.0875                 0.1074                 0.1523
 IR Inten    --     3.7717                 4.8817                 1.7779
 Raman Activ --     0.3651                 0.2624                 0.8289

                    16                     17                     18
                     A                      A                      A
 Frequencies --   207.4643               231.0757               254.8325
 Red. masses --     7.0114                 5.9534                 4.1896
 Frc consts  --     0.1778                 0.1873                 0.1603
 IR Inten    --     0.4746                 1.5317                11.6575
 Raman Activ --     2.7519                 0.7472                 0.2344

                    19                     20                     21
                     A                      A                      A
 Frequencies --   272.1281               289.8301               304.4070
 Red. masses --     4.7599                 4.7269                 5.5705
 Frc consts  --     0.2077                 0.2339                 0.3041
 IR Inten    --     6.6138                 1.9669                10.1720
 Raman Activ --     0.3862                 0.0909                 1.9724

                    22                     23                     24
                     A                      A                      A
 Frequencies --   308.9311               312.8056               320.4942
 Red. masses --     5.4390                 5.8226                 5.0484
 Frc consts  --     0.3058                 0.3357                 0.3055
 IR Inten    --     2.5201                 3.7575                 1.7629
 Raman Activ --     1.1706                 2.1121                 3.7636

                    25                     26                     27
                     A                      A                      A
 Frequencies --   346.7180               356.4845               377.4242
 Red. masses --     6.9717                 4.8598                 5.9881
 Frc consts  --     0.4938                 0.3639                 0.5026
 IR Inten    --     7.6442                 2.8917                 3.6268
 Raman Activ --     2.0622                 0.1520                 1.2182

                    28                     29                     30
                     A                      A                      A
 Frequencies --   397.7792               421.0288               433.5842
 Red. masses --     4.4404                 6.5536                 5.6045
 Frc consts  --     0.4140                 0.6845                 0.6208
 IR Inten    --    19.9251                 4.5079                 1.5543
 Raman Activ --     2.4513                 5.5368                 3.3416

                    31                     32                     33
                     A                      A                      A
 Frequencies --   440.1855               472.1782               477.2450
 Red. masses --     4.5859                 4.8265                 4.2155
 Frc consts  --     0.5235                 0.6340                 0.5657
 IR Inten    --     6.5565                 5.8368                16.7268
 Raman Activ --     1.3408                 5.3551                 0.4046

                    34                     35                     36
                     A                      A                      A
 Frequencies --   514.9892               519.8876               567.6043
 Red. masses --     3.4475                 3.6295                 3.7261
 Frc consts  --     0.5387                 0.5780                 0.7073
 IR Inten    --     4.4559                 7.7286                14.5833
 Raman Activ --     4.1003                 1.3802                 1.9009

                    37                     38                     39
                     A                      A                      A
 Frequencies --   582.3498               588.0049               604.3488
 Red. masses --     2.8451                 6.6189                 4.9930
 Frc consts  --     0.5685                 1.3483                 1.0745
 IR Inten    --    40.7411                 4.2162                 4.8487
 Raman Activ --     0.5148                 0.5791                 0.5330

                    40                     41                     42
                     A                      A                      A
 Frequencies --   620.6056               649.9233               671.6136
 Red. masses --     3.8512                 1.1725                 1.0741
 Frc consts  --     0.8739                 0.2918                 0.2854
 IR Inten    --    23.9492               100.3877                72.1398
 Raman Activ --     1.4693                 1.4952                 2.2081

                    43                     44                     45
                     A                      A                      A
 Frequencies --   677.6683               678.3297               754.5511
 Red. masses --     1.8355                 1.5218                 1.0757
 Frc consts  --     0.4966                 0.4126                 0.3608
 IR Inten    --   131.6430                26.4482                78.7960
 Raman Activ --     0.6652                 1.8731                 1.3313

                    46                     47                     48
                     A                      A                      A
 Frequencies --   806.1979               849.7239               852.4361
 Red. masses --     1.0653                 1.6197                 1.6079
 Frc consts  --     0.4080                 0.6891                 0.6884
 IR Inten    --    73.3776                10.7812                 9.9317
 Raman Activ --     1.3426                 1.3704                 0.4611

                    49                     50                     51
                     A                      A                      A
 Frequencies --   882.3882               920.5606               950.6501
 Red. masses --     1.2476                 5.3385                 5.3966
 Frc consts  --     0.5723                 2.6655                 2.8735
 IR Inten    --    38.0930               158.4114               100.4396
 Raman Activ --     0.5863                 2.2608                 0.3776

                    52                     53                     54
                     A                      A                      A
 Frequencies --   969.1833               976.0588               989.4652
 Red. masses --     5.9599                 5.2962                 5.0422
 Frc consts  --     3.2984                 2.9728                 2.9085
 IR Inten    --     4.7349                45.0181               219.8980
 Raman Activ --     2.9380                 1.3121                 0.7985

                    55                     56                     57
                     A                      A                      A
 Frequencies --   995.6815              1007.1522              1027.2255
 Red. masses --     6.5559                 6.6120                 5.8872
 Frc consts  --     3.8293                 3.9516                 3.6601
 IR Inten    --   428.4787                41.5233               119.0080
 Raman Activ --     1.4075                 2.0312                 1.4344

                    58                     59                     60
                     A                      A                      A
 Frequencies --  1029.9892              1055.3426              1060.9180
 Red. masses --     6.4573                 6.3212                 4.9270
 Frc consts  --     4.0361                 4.1480                 3.2673
 IR Inten    --   282.3242                71.9068                33.9539
 Raman Activ --     2.6354                 5.2180                 1.7611

                    61                     62                     63
                     A                      A                      A
 Frequencies --  1063.0456              1065.8069              1075.9425
 Red. masses --     6.7172                 3.2984                 3.9860
 Frc consts  --     4.4724                 2.2075                 2.7187
 IR Inten    --   136.1242                20.7332                20.8795
 Raman Activ --     0.3152                 5.6604                26.9322

                    64                     65                     66
                     A                      A                      A
 Frequencies --  1101.1369              1109.0226              1114.2313
 Red. masses --     3.3583                 2.6553                 2.2795
 Frc consts  --     2.3991                 1.9242                 1.6674
 IR Inten    --    29.8756               106.3819                 1.4780
 Raman Activ --    10.9128                 2.8056                 1.2248

                    67                     68                     69
                     A                      A                      A
 Frequencies --  1119.7340              1121.6707              1131.9786
 Red. masses --     2.5321                 2.4322                 2.2191
 Frc consts  --     1.8705                 1.8030                 1.6753
 IR Inten    --    89.7205                23.8961                15.3095
 Raman Activ --     4.3564                 4.6034                 8.1297

                    70                     71                     72
                     A                      A                      A
 Frequencies --  1143.9369              1146.1743              1151.3377
 Red. masses --     2.4931                 2.1447                 2.2021
 Frc consts  --     1.9221                 1.6600                 1.7198
 IR Inten    --    34.8378                 6.7312                 5.5569
 Raman Activ --     4.9754                 4.7662                 1.2609

                    73                     74                     75
                     A                      A                      A
 Frequencies --  1165.6949              1166.5155              1185.4383
 Red. masses --     1.7582                 2.3533                 1.7354
 Frc consts  --     1.4077                 1.8867                 1.4368
 IR Inten    --     2.1790                 2.5951                32.7193
 Raman Activ --     0.5420                 4.6291                 2.2199

                    76                     77                     78
                     A                      A                      A
 Frequencies --  1201.6236              1207.2976              1231.9774
 Red. masses --     1.3940                 1.2328                 1.3943
 Frc consts  --     1.1859                 1.0587                 1.2469
 IR Inten    --     6.0591                18.9177                 1.6104
 Raman Activ --     2.6343                 0.7621                 0.7432

                    79                     80                     81
                     A                      A                      A
 Frequencies --  1234.4210              1254.4980              1266.4204
 Red. masses --     1.2728                 1.2497                 1.2066
 Frc consts  --     1.1428                 1.1588                 1.1402
 IR Inten    --     3.1481                12.0803                38.0523
 Raman Activ --     2.8415                 0.7335                 0.6832

                    82                     83                     84
                     A                      A                      A
 Frequencies --  1276.4555              1281.1567              1283.9970
 Red. masses --     1.2112                 1.2803                 1.2493
 Frc consts  --     1.1628                 1.2381                 1.2135
 IR Inten    --     4.1194                17.3254                10.2763
 Raman Activ --     2.0040                 4.5698                 0.6154

                    85                     86                     87
                     A                      A                      A
 Frequencies --  1291.7871              1298.0412              1299.5501
 Red. masses --     1.2680                 1.2675                 1.2697
 Frc consts  --     1.2467                 1.2583                 1.2634
 IR Inten    --    11.8113                 4.5171                63.6357
 Raman Activ --     1.5104                 3.5522                 6.0018

                    88                     89                     90
                     A                      A                      A
 Frequencies --  1313.1641              1322.3681              1330.5432
 Red. masses --     1.1953                 1.1962                 1.2257
 Frc consts  --     1.2144                 1.2324                 1.2785
 IR Inten    --     7.8505                15.4259                36.1155
 Raman Activ --     9.5942                 9.3430                 5.4463

                    91                     92                     93
                     A                      A                      A
 Frequencies --  1335.2827              1341.9219              1356.0878
 Red. masses --     1.3088                 1.1850                 1.4574
 Frc consts  --     1.3749                 1.2572                 1.5791
 IR Inten    --    19.1386                31.0123                17.0413
 Raman Activ --     5.8420                 1.3715                 9.6471

                    94                     95                     96
                     A                      A                      A
 Frequencies --  1357.9542              1363.7104              1370.6357
 Red. masses --     1.2339                 1.2840                 1.3336
 Frc consts  --     1.3406                 1.4068                 1.4761
 IR Inten    --     3.6542                37.3738                 1.0883
 Raman Activ --     2.8574                 4.1271                 3.2528

                    97                     98                     99
                     A                      A                      A
 Frequencies --  1380.7633              1384.8925              1395.9473
 Red. masses --     1.3336                 1.4605                 1.6055
 Frc consts  --     1.4981                 1.6504                 1.8433
 IR Inten    --     2.8112                 3.2359                 9.5778
 Raman Activ --     5.5312                 4.3253                 4.8636

                   100                    101                    102
                     A                      A                      A
 Frequencies --  1408.1786              1441.3746              1454.4683
 Red. masses --     1.5297                 1.3243                 1.3793
 Frc consts  --     1.7872                 1.6210                 1.7191
 IR Inten    --    32.1254                13.5880                68.1137
 Raman Activ --     1.0985                 1.2211                 1.5773

                   103                    104                    105
                     A                      A                      A
 Frequencies --  1461.9280              1472.4162              1477.9666
 Red. masses --     1.3264                 1.1133                 1.1289
 Frc consts  --     1.6702                 1.4221                 1.4530
 IR Inten    --     9.6646                 4.4377                 0.4167
 Raman Activ --     3.6781                 3.3892                 2.7006

                   106                    107                    108
                     A                      A                      A
 Frequencies --  1483.9045              1494.9703              3255.3761
 Red. masses --     1.3857                 1.2788                 1.0596
 Frc consts  --     1.7978                 1.6838                 6.6157
 IR Inten    --   107.5626                52.2402                29.3598
 Raman Activ --     2.0496                 1.9262                53.9811

                   109                    110                    111
                     A                      A                      A
 Frequencies --  3257.7670              3260.6568              3268.0440
 Red. masses --     1.0769                 1.0606                 1.0819
 Frc consts  --     6.7341                 6.6439                 6.8080
 IR Inten    --    24.4714                82.2452                16.4902
 Raman Activ --    85.1313                77.9968                12.1063

                   112                    113                    114
                     A                      A                      A
 Frequencies --  3270.7531              3271.7963              3272.7724
 Red. masses --     1.0822                 1.0828                 1.0807
 Frc consts  --     6.8213                 6.8294                 6.8203
 IR Inten    --    29.8030                28.2142                56.2100
 Raman Activ --   106.2168               133.2130               107.8480

                   115                    116                    117
                     A                      A                      A
 Frequencies --  3283.1294              3285.0257              3289.3293
 Red. masses --     1.0800                 1.0777                 1.0829
 Frc consts  --     6.8590                 6.8524                 6.9035
 IR Inten    --   133.4240               175.2002               123.3426
 Raman Activ --   102.6783               114.1484                93.4263

                   118                    119                    120
                     A                      A                      A
 Frequencies --  3291.0637              3297.0031              3300.1902
 Red. masses --     1.0849                 1.0882                 1.0871
 Frc consts  --     6.9236                 6.9695                 6.9757
 IR Inten    --     6.3086                52.2248               101.5649
 Raman Activ --    26.1867                17.0864                 8.3111

                   121                    122                    123
                     A                      A                      A
 Frequencies --  3308.1767              3317.4983              3320.6782
 Red. masses --     1.1023                 1.1036                 1.0694
 Frc consts  --     7.1074                 7.1560                 6.9477
 IR Inten    --    63.1097                95.1678               544.0692
 Raman Activ --    23.4603                31.5087               153.3376

                   124                    125                    126
                     A                      A                      A
 Frequencies --  3362.7714              3370.9117              3370.9512
 Red. masses --     1.0645                 1.0680                 1.0688
 Frc consts  --     7.0920                 7.1501                 7.1559
 IR Inten    --    32.0122               113.2481                18.5545
 Raman Activ --    97.9863                21.7635               303.1554

                   127                    128                    129
                     A                      A                      A
 Frequencies --  3378.2715              3889.8925              3890.1256
 Red. masses --     1.0667                 1.0675                 1.0675
 Frc consts  --     7.1725                 9.5164                 9.5181
 IR Inten    --    42.3138                93.2608                52.1090
 Raman Activ --   151.4975                79.3285               128.9054

 - Thermochemistry -
 -------------------
 Temperature   298.150 Kelvin.  Pressure   1.00000 Atm.
 Atom     1 has atomic number  8 and mass  15.99491

 Molecular mass:   342.11621 amu.
 Principal axes and moments of inertia in atomic units:
                           1         2         3
     Eigenvalues --  4447.02511********************
           X            0.99997   0.00774  -0.00018
           Y           -0.00774   0.99997   0.00097
           Z            0.00018  -0.00097   1.00000
 This molecule is an asymmetric top.
 Rotational symmetry number  1.
 Warning -- assumption of classical behavior for rotation
           may cause significant error
 Rotational temperatures (Kelvin)      0.01948     0.00682     0.00517
 Rotational constants (GHZ):           0.40583     0.14207     0.10773
    7 imaginary frequencies ignored.
 Zero-point vibrational energy     972888.4 (Joules/Mol)
                                  232.52591 (Kcal/Mol)
 Warning -- explicit consideration of  33 degrees of freedom as
           vibrations may cause significant error
 Vibrational temperatures:     63.37   103.76   108.26   119.30   138.02
          (Kelvin)            220.86   248.61   259.97   298.49   332.47
                              366.65   391.53   417.00   437.97   444.48
                              450.06   461.12   498.85   512.90   543.03
                              572.31   605.77   623.83   633.33   679.36
                              686.65   740.95   748.00   816.66   837.87
                              846.01   869.52   892.91   935.09   966.30
                              975.01   975.96  1085.63  1159.94  1222.56
                             1226.46  1269.56  1324.48  1367.77  1394.44
                             1404.33  1423.62  1432.56  1449.07  1477.95
                             1481.92  1518.40  1526.42  1529.48  1533.46
                             1548.04  1584.29  1595.63  1603.13  1611.05
                             1613.83  1628.66  1645.87  1649.09  1656.52
                             1677.17  1678.35  1705.58  1728.87  1737.03
                             1772.54  1776.05  1804.94  1822.09  1836.53
                             1843.30  1847.38  1858.59  1867.59  1869.76
                             1889.35  1902.59  1914.35  1921.17  1930.72
                             1951.11  1953.79  1962.07  1972.04  1986.61
                             1992.55  2008.45  2026.05  2073.81  2092.65
                             2103.39  2118.48  2126.46  2135.00  2150.93
                             4683.75  4687.19  4691.35  4701.98  4705.88
                             4707.38  4708.78  4723.69  4726.41  4732.61
                             4735.10  4743.65  4748.23  4759.72  4773.13
                             4777.71  4838.27  4849.98  4850.04  4860.57
                             5596.68  5597.02

 Zero-point correction=                           0.370554 (Hartree/Particle)
 Thermal correction to Energy=                    0.389068
 Thermal correction to Enthalpy=                  0.390012
 Thermal correction to Gibbs Free Energy=         0.324698
 Sum of electronic and zero-point Energies=          -1297.617202
 Sum of electronic and thermal Energies=             -1297.598687
 Sum of electronic and thermal Enthalpies=           -1297.597743
 Sum of electronic and thermal Free Energies=        -1297.663058

                     E (Thermal)             CV                S
                      KCal/Mol        Cal/Mol-Kelvin    Cal/Mol-Kelvin
 Total                  244.144             76.355            137.466
 Electronic               0.000              0.000              0.000
 Translational            0.889              2.981             43.384
 Rotational               0.889              2.981             35.202
 Vibrational            242.367             70.393             58.879
 Vibration     1          0.595              1.980              5.068
 Vibration     2          0.598              1.967              4.095
 Vibration     3          0.599              1.966              4.011
 Vibration     4          0.600              1.961              3.821
 Vibration     5          0.603              1.952              3.535
 Vibration     6          0.619              1.899              2.628
 Vibration     7          0.626              1.876              2.405
 Vibration     8          0.630              1.866              2.321
 Vibration     9          0.641              1.829              2.066
 Vibration    10          0.653              1.793              1.871
 Vibration    11          0.665              1.755              1.697
 Vibration    12          0.675              1.725              1.583
 Vibration    13          0.686              1.693              1.475
 Vibration    14          0.695              1.665              1.393
 Vibration    15          0.698              1.657              1.368
 Vibration    16          0.701              1.649              1.347
 Vibration    17          0.706              1.634              1.308
 Vibration    18          0.725              1.582              1.181
 Vibration    19          0.732              1.562              1.137
 Vibration    20          0.748              1.518              1.049
 Vibration    21          0.764              1.475              0.971
 Vibration    22          0.784              1.425              0.888
 Vibration    23          0.794              1.397              0.847
 Vibration    24          0.800              1.383              0.826
 Vibration    25          0.829              1.312              0.731
 Vibration    26          0.834              1.301              0.718
 Vibration    27          0.870              1.217              0.622
 Vibration    28          0.875              1.206              0.610
 Vibration    29          0.924              1.101              0.509
 Vibration    30          0.939              1.069              0.481
 Vibration    31          0.945              1.057              0.471
 Vibration    32          0.963              1.023              0.442
 Vibration    33          0.981              0.988              0.416

 Normal termination of Gaussian 09 at Sun Mar 27 05:21:07 2016.
