 Gaussian 09, Revision B.01,
 Gaussian 09:  EM64L-G09RevB.01 12-Aug-2010

 --------------------------------------------------
 # freq=raman b3lyp/6-31+g(2df,p) geom=connectivity
 --------------------------------------------------

 ------------
 450 9000.com
 ------------
 Symbolic Z-matrix:
 Charge =  0 Multiplicity = 1

                         Standard orientation:
 ---------------------------------------------------------------------
 Center     Atomic      Atomic             Coordinates (Angstroms)
 Number     Number       Type             X           Y           Z
 ---------------------------------------------------------------------
      1          8           0        4.965650   -0.330150   -0.930522
      2          6           0        3.809859   -0.027277   -0.136270
      3          6           0        3.324292    1.381899   -0.433174
      4          8           0        4.205660    2.477203   -0.142989
      5          1           0        5.177218    2.274959   -0.262012
      6          6           0        1.962146    1.659623    0.179843
      7          8           0        1.230655    2.719498   -0.452686
      8          1           0        1.654944    3.623414   -0.393998
      9          6           0        3.326274   -2.452952    0.140094
     10          8           0        3.405959   -2.840801    1.520550
     11          1           0        3.762100   -3.772614    1.581836
     12          6           0        2.786360   -1.127342   -0.370448
     13          8           0        1.638648   -0.799500    0.426502
     14          6           0        1.043801    0.453580    0.059335
     15          8           0       -0.239811    0.418255    0.699080
     16          6           0       -1.439336    0.147406   -0.040917
     17          6           0       -1.748732   -1.334326    0.106235
     18          8           0       -0.725597   -2.214291   -0.379961
     19          1           0        0.154513   -1.966256    0.025015
     20          6           0       -3.144830   -1.435806   -0.484356
     21          8           0       -3.585226   -2.801798   -0.477906
     22          1           0       -2.953054   -3.401071   -0.969337
     23          6           0       -2.259082    2.512092    0.226139
     24          8           0       -3.336641    3.422842    0.487348
     25          1           0       -3.781831    3.391821    1.381778
     26          6           0       -2.520243    1.046545    0.533482
     27          8           0       -3.729918    0.680634   -0.145867
     28          6           0       -4.212418   -0.618620    0.224470
     29          8           0       -5.380079   -0.841526   -0.580212
     30          1           0       -6.146227   -0.460664   -0.144825
     31          1           0       -4.314566   -0.799317    1.274144
     32          1           0       -3.097421   -1.106660   -1.501368
     33          1           0       -1.842340   -1.529950    1.154028
     34          1           0       -1.286178    0.382653   -1.073439
     35          1           0       -2.619025    0.892803    1.587762
     36          1           0       -2.002750    2.591891   -0.809634
     37          1           0       -1.414412    2.825337    0.803468
     38          1           0        5.749863    0.018472   -0.500322
     39          1           0        4.321645   -2.531777   -0.244516
     40          1           0        2.747698   -3.211384   -0.344602
     41          1           0        2.525771   -1.193440   -1.406124
     42          1           0        4.099209   -0.062978    0.893245
     43          1           0        3.175535    1.410770   -1.492390
     44          1           0        2.090386    1.896483    1.215387
     45          1           0        0.835990    0.375653   -0.987394
 ---------------------------------------------------------------------

 SCF Done:  E(RB3LYP) =  -1297.99411855     A.U. after   14 cycles

 The electronic state is 1-A.
 Alpha  occ. eigenvalues --  -19.18724 -19.18539 -19.18498 -19.17260 -19.16858
 Alpha  occ. eigenvalues --  -19.16630 -19.15873 -19.15417 -19.15042 -19.14539
 Alpha  occ. eigenvalues --  -19.13352 -10.30820 -10.29211 -10.27252 -10.26505
 Alpha  occ. eigenvalues --  -10.26474 -10.26221 -10.24587 -10.24550 -10.24330
 Alpha  occ. eigenvalues --  -10.23437 -10.23030 -10.22668  -1.09747  -1.07432
 Alpha  occ. eigenvalues --   -1.06769  -1.04889  -1.03818  -1.03099  -1.02702
 Alpha  occ. eigenvalues --   -1.01831  -1.01281  -1.00105  -0.99450  -0.82205
 Alpha  occ. eigenvalues --   -0.81710  -0.78767  -0.77756  -0.72079  -0.69594
 Alpha  occ. eigenvalues --   -0.67753  -0.64950  -0.63209  -0.62095  -0.61502
 Alpha  occ. eigenvalues --   -0.60487  -0.57077  -0.55934  -0.55295  -0.54063
 Alpha  occ. eigenvalues --   -0.53319  -0.53029  -0.52892  -0.52190  -0.51147
 Alpha  occ. eigenvalues --   -0.50032  -0.49442  -0.48554  -0.47621  -0.46483
 Alpha  occ. eigenvalues --   -0.45854  -0.45356  -0.44702  -0.43555  -0.43154
 Alpha  occ. eigenvalues --   -0.42799  -0.42131  -0.40891  -0.40229  -0.38948
 Alpha  occ. eigenvalues --   -0.38737  -0.37138  -0.36592  -0.36030  -0.35776
 Alpha  occ. eigenvalues --   -0.35573  -0.34813  -0.33938  -0.33218  -0.32841
 Alpha  occ. eigenvalues --   -0.31876  -0.31080  -0.30916  -0.30423  -0.30009
 Alpha  occ. eigenvalues --   -0.29122  -0.28856  -0.28309  -0.27426  -0.26154
 Alpha  occ. eigenvalues --   -0.25726
 Alpha virt. eigenvalues --   -0.03840  -0.01984  -0.00784  -0.00199   0.00426
 Alpha virt. eigenvalues --    0.01363   0.01736   0.02104   0.02495   0.02833
 Alpha virt. eigenvalues --    0.03463   0.04305   0.04803   0.05061   0.05829

 Mulliken atomic charges:
              1
     1  O   -0.459525
     2  C   -0.214155
     3  C    0.180853
     4  O   -0.496834
     5  H    0.333585
     6  C   -0.093932
     7  O   -0.474078
     8  H    0.371721
     9  C   -0.490848
    10  O   -0.443032
    11  H    0.345781
    12  C    0.127271
    13  O   -0.042098
    14  C    0.035565
    15  O   -0.083041
    16  C    0.161244
    17  C   -0.102947
    18  O   -0.497815
    19  H    0.400127
    20  C   -0.137979
    21  O   -0.456117
    22  H    0.348448
    23  C   -0.225533
    24  O   -0.437311
    25  H    0.334014
    26  C   -0.267778
    27  O   -0.040022
    28  C    0.143614
    29  O   -0.435552
    30  H    0.333990
    31  H    0.147611
    32  H    0.134596
    33  H    0.122260
    34  H    0.121543
    35  H    0.118137
    36  H    0.155099
    37  H    0.167442
    38  H    0.336421
    39  H    0.169249
    40  H    0.142881
    41  H    0.137197
    42  H    0.147333
    43  H    0.134232
    44  H    0.139444
    45  H    0.108934
 Sum of Mulliken atomic charges =   0.00000

 Dipole moment (field-independent basis, Debye):
    X=              6.5028    Y=              0.3485    Z=              1.7390  Tot=              6.7404
 Quadrupole moment (field-independent basis, Debye-Ang):
   XX=           -116.5327   YY=           -140.6927   ZZ=           -138.7556
   XY=             -5.8284   XZ=            -13.9738   YZ=              4.8873

  Exact polarizability: 228.666   0.032 198.602  -2.183   1.410 148.143
 Approx polarizability: 271.233  -1.095 258.381  -1.591   0.983 243.996

 ******    6 imaginary frequencies (negative Signs) ******

                     1                      2                      3
                     A                      A                      A
 Frequencies --  -308.5122              -190.0338              -179.3622
 Red. masses --     1.7376                 1.6155                 1.1044
 Frc consts  --     0.0974                 0.0344                 0.0209
 IR Inten    --     3.9449                20.7056                99.6425
 Raman Activ --     0.1884                 0.2693                 1.6218

                     4                      5                      6
                     A                      A                      A
 Frequencies --  -104.8755               -68.6909               -54.6202
 Red. masses --     1.7179                 6.4750                 4.2172
 Frc consts  --     0.0111                 0.0180                 0.0074
 IR Inten    --    45.5672                 0.5754                23.5214
 Raman Activ --     0.5547                 0.1064                 0.2765

                     7                      8                      9
                     A                      A                      A
 Frequencies --    33.2823                39.3136                52.9190
 Red. masses --     5.8980                 6.4740                 6.3629
 Frc consts  --     0.0038                 0.0059                 0.0105
 IR Inten    --     2.0993                 1.9163                 0.7606
 Raman Activ --     0.0685                 0.0422                 0.0705

                    10                     11                     12
                     A                      A                      A
 Frequencies --    64.7480                99.7452               113.7767
 Red. masses --     4.0090                 7.4650                 6.5475
 Frc consts  --     0.0099                 0.0438                 0.0499
 IR Inten    --    21.2448                 0.6161                 2.0045
 Raman Activ --     0.3421                 0.2359                 0.4879

                    13                     14                     15
                     A                      A                      A
 Frequencies --   148.4625               162.7281               177.8756
 Red. masses --     6.6545                 6.6186                 5.8897
 Frc consts  --     0.0864                 0.1033                 0.1098
 IR Inten    --     1.1245                 2.5282                 1.7831
 Raman Activ --     0.2087                 0.4259                 0.3977

                    16                     17                     18
                     A                      A                      A
 Frequencies --   188.1509               212.8820               238.5062
 Red. masses --     6.5330                 5.8239                 6.3571
 Frc consts  --     0.1363                 0.1555                 0.2131
 IR Inten    --     2.2209                 0.7930                 5.7709
 Raman Activ --     1.5994                 1.0680                 0.5000

                    19                     20                     21
                     A                      A                      A
 Frequencies --   262.7835               287.7800               297.3658
 Red. masses --     5.4068                 5.5359                 4.3839
 Frc consts  --     0.2200                 0.2701                 0.2284
 IR Inten    --     7.3361                10.5747                 9.0978
 Raman Activ --     1.1512                 0.3880                 0.2788

                    22                     23                     24
                     A                      A                      A
 Frequencies --   302.9909               314.5256               323.0545
 Red. masses --     5.2892                 4.2873                 5.9559
 Frc consts  --     0.2861                 0.2499                 0.3662
 IR Inten    --     1.5285                 9.4409                 2.0752
 Raman Activ --     0.6737                 1.1634                 3.1461

                    25                     26                     27
                     A                      A                      A
 Frequencies --   338.8084               366.1956               391.1591
 Red. masses --     6.4911                 6.7096                 3.8756
 Frc consts  --     0.4390                 0.5301                 0.3494
 IR Inten    --    11.4751                 2.3917                 3.4538
 Raman Activ --     1.0622                 1.9274                 3.6369

                    28                     29                     30
                     A                      A                      A
 Frequencies --   404.1408               419.1090               432.5730
 Red. masses --     6.4024                 5.8076                 4.8275
 Frc consts  --     0.6161                 0.6010                 0.5322
 IR Inten    --     0.9786                 1.7089                10.5378
 Raman Activ --     5.1399                 1.1752                 1.9584

                    31                     32                     33
                     A                      A                      A
 Frequencies --   451.8599               484.6287               506.9146
 Red. masses --     4.9743                 4.0219                 4.8274
 Frc consts  --     0.5984                 0.5565                 0.7309
 IR Inten    --     8.4982                21.3646                 9.0272
 Raman Activ --     0.2330                 7.1203                 0.7651

                    34                     35                     36
                     A                      A                      A
 Frequencies --   516.8106               538.4831               555.3532
 Red. masses --     3.8138                 3.5578                 3.0893
 Frc consts  --     0.6002                 0.6078                 0.5614
 IR Inten    --     6.5721                34.2760                35.8913
 Raman Activ --     2.6661                 5.9461                 0.6004

                    37                     38                     39
                     A                      A                      A
 Frequencies --   574.0292               602.0907               612.9589
 Red. masses --     5.3879                 2.0148                 1.3876
 Frc consts  --     1.0460                 0.4303                 0.3072
 IR Inten    --     2.1349               115.4189                32.9227
 Raman Activ --     1.3645                 0.7293                 1.0992

                    40                     41                     42
                     A                      A                      A
 Frequencies --   624.4163               639.3838               659.8173
 Red. masses --     1.1996                 2.6517                 4.9799
 Frc consts  --     0.2756                 0.6387                 1.2774
 IR Inten    --    75.3723                23.5405                 7.9735
 Raman Activ --     2.3343                 0.2142                 0.8850

                    43                     44                     45
                     A                      A                      A
 Frequencies --   671.3586               690.5493               699.3576
 Red. masses --     1.0562                 2.6553                 1.2439
 Frc consts  --     0.2805                 0.7460                 0.3584
 IR Inten    --   107.0891                37.3728                80.5182
 Raman Activ --     1.9502                 1.3006                 1.0447

                    46                     47                     48
                     A                      A                      A
 Frequencies --   712.2796               790.5480               843.4712
 Red. masses --     1.0715                 1.0629                 2.4707
 Frc consts  --     0.3203                 0.3914                 1.0356
 IR Inten    --   109.8871               112.8409                14.7366
 Raman Activ --     1.6750                 2.0485                 2.6241

                    49                     50                     51
                     A                      A                      A
 Frequencies --   847.5258               875.7225               930.9867
 Red. masses --     2.4622                 2.7366                 6.3424
 Frc consts  --     1.0420                 1.2365                 3.2389
 IR Inten    --     9.6761                 7.2509               223.3891
 Raman Activ --     3.5828                 4.1114                 4.6359

                    52                     53                     54
                     A                      A                      A
 Frequencies --   948.9889               963.4775               990.4089
 Red. masses --     6.2622                 4.4434                 6.1056
 Frc consts  --     3.3228                 2.4302                 3.5286
 IR Inten    --    68.8725                94.3201               240.6403
 Raman Activ --     0.9502                 1.9876                 3.4282

                    55                     56                     57
                     A                      A                      A
 Frequencies --   992.6456              1016.4494              1020.1800
 Red. masses --     5.1364                 5.3094                 4.3081
 Frc consts  --     2.9819                 3.2320                 2.6417
 IR Inten    --    49.9107               119.6860               102.8123
 Raman Activ --     4.4664                 0.7474                 1.8441

                    58                     59                     60
                     A                      A                      A
 Frequencies --  1024.3677              1033.5556              1041.9527
 Red. masses --     3.2223                 3.3522                 3.6082
 Frc consts  --     1.9921                 2.1098                 2.3080
 IR Inten    --   216.6399               138.2699                61.5460
 Raman Activ --     1.4649                 9.3233                 2.2570

                    61                     62                     63
                     A                      A                      A
 Frequencies --  1054.1274              1065.1947              1068.8965
 Red. masses --     3.4008                 3.4203                 5.0111
 Frc consts  --     2.2265                 2.2865                 3.3733
 IR Inten    --   139.0822                76.4943                44.5913
 Raman Activ --    22.3204                 6.5025                 3.1782

                    64                     65                     66
                     A                      A                      A
 Frequencies --  1076.7397              1090.6204              1094.6244
 Red. masses --     2.6493                 2.4782                 2.7481
 Frc consts  --     1.8097                 1.7367                 1.9400
 IR Inten    --    28.6054                26.3752                18.1502
 Raman Activ --     2.4817                 3.6836                 3.8232

                    67                     68                     69
                     A                      A                      A
 Frequencies --  1112.3433              1113.7683              1120.3114
 Red. masses --     1.8850                 2.3959                 2.2016
 Frc consts  --     1.3742                 1.7511                 1.6280
 IR Inten    --    12.5079               131.0261                 4.8099
 Raman Activ --     1.7510                 3.2954                 5.1992

                    70                     71                     72
                     A                      A                      A
 Frequencies --  1130.6102              1147.2722              1147.8805
 Red. masses --     2.0155                 3.2333                 3.4057
 Frc consts  --     1.5179                 2.5075                 2.6440
 IR Inten    --    30.6045                36.2381                13.0701
 Raman Activ --     2.6199                 2.5590                 6.7923

                    73                     74                     75
                     A                      A                      A
 Frequencies --  1162.4396              1167.3517              1179.5376
 Red. masses --     2.6402                 3.2128                 1.6318
 Frc consts  --     2.1020                 2.5795                 1.3377
 IR Inten    --    40.1261                79.0274                 7.4216
 Raman Activ --     2.0558                 1.3104                 2.7643

                    76                     77                     78
                     A                      A                      A
 Frequencies --  1185.4701              1198.5721              1202.0881
 Red. masses --     1.4716                 1.2546                 1.2481
 Frc consts  --     1.2185                 1.0619                 1.0626
 IR Inten    --     2.9489                23.8016                 5.1044
 Raman Activ --     1.1622                 3.4530                 0.7791

                    79                     80                     81
                     A                      A                      A
 Frequencies --  1216.5421              1233.3364              1243.8230
 Red. masses --     1.2835                 1.4894                 1.3402
 Frc consts  --     1.1192                 1.3348                 1.2217
 IR Inten    --    29.4690                 2.5688                 5.6122
 Raman Activ --     1.9678                 3.6839                 2.5891

                    82                     83                     84
                     A                      A                      A
 Frequencies --  1251.6855              1262.0534              1268.8894
 Red. masses --     1.3393                 1.2561                 1.1871
 Frc consts  --     1.2363                 1.1788                 1.1261
 IR Inten    --     2.8664                17.4701                27.5239
 Raman Activ --     2.9503                 3.3948                 2.9658

                    85                     86                     87
                     A                      A                      A
 Frequencies --  1289.3528              1296.6821              1301.4844
 Red. masses --     1.2057                 1.2113                 1.3102
 Frc consts  --     1.1810                 1.1999                 1.3075
 IR Inten    --    32.8755                51.8218                18.6463
 Raman Activ --     1.1796                 5.0632                 4.4666

                    88                     89                     90
                     A                      A                      A
 Frequencies --  1312.7029              1314.0289              1324.0518
 Red. masses --     1.3087                 1.2548                 1.1844
 Frc consts  --     1.3287                 1.2765                 1.2234
 IR Inten    --     0.5317                 6.9886                14.8955
 Raman Activ --     5.2524                 6.9738                 3.9016

                    91                     92                     93
                     A                      A                      A
 Frequencies --  1328.0166              1339.9786              1344.9289
 Red. masses --     1.2787                 1.2504                 1.4296
 Frc consts  --     1.3287                 1.3228                 1.5236
 IR Inten    --    19.3128                 6.6397                15.2257
 Raman Activ --     3.0574                 4.7946                 2.2238

                    94                     95                     96
                     A                      A                      A
 Frequencies --  1348.4625              1352.2859              1362.9562
 Red. masses --     1.4062                 1.2773                 1.2821
 Frc consts  --     1.5065                 1.3762                 1.4032
 IR Inten    --     9.3406                48.2989                51.8957
 Raman Activ --     6.5253                 3.3767                 2.2456

                    97                     98                     99
                     A                      A                      A
 Frequencies --  1366.7031              1378.1738              1380.6831
 Red. masses --     1.2531                 1.3233                 1.3111
 Frc consts  --     1.3791                 1.4809                 1.4725
 IR Inten    --    12.1611                 4.6493                50.3726
 Raman Activ --     1.4234                 2.7817                 1.9169

                   100                    101                    102
                     A                      A                      A
 Frequencies --  1390.1534              1399.2224              1419.5605
 Red. masses --     1.3885                 1.7745                 1.3879
 Frc consts  --     1.5810                 2.0469                 1.6479
 IR Inten    --    35.9373                 9.6225                25.0193
 Raman Activ --     3.4933                 3.6115                 5.5911

                   103                    104                    105
                     A                      A                      A
 Frequencies --  1433.5277              1444.0038              1454.0313
 Red. masses --     1.6589                 1.0850                 1.2516
 Frc consts  --     2.0086                 1.3330                 1.5591
 IR Inten    --    29.7509                 2.4683                32.9294
 Raman Activ --     4.5099                 6.1327                 3.6214

                   106                    107                    108
                     A                      A                      A
 Frequencies --  1463.4178              1466.9749              3254.9562
 Red. masses --     1.3138                 1.1535                 1.0703
 Frc consts  --     1.6577                 1.4625                 6.6811
 IR Inten    --    13.6928                 1.6890                29.6498
 Raman Activ --     2.5060                 3.2740                61.5776

                   109                    110                    111
                     A                      A                      A
 Frequencies --  3255.2361              3262.8638              3265.2612
 Red. masses --     1.0726                 1.0812                 1.0805
 Frc consts  --     6.6965                 6.7822                 6.7877
 IR Inten    --    24.5888                37.7635                 5.4987
 Raman Activ --    30.5684                63.9954               163.2074

                   112                    113                    114
                     A                      A                      A
 Frequencies --  3269.8000              3273.9260              3279.0611
 Red. masses --     1.0580                 1.0829                 1.0849
 Frc consts  --     6.6644                 6.8387                 6.8730
 IR Inten    --    20.3681                 9.9382                 5.8777
 Raman Activ --   102.6183               107.9844                42.1445

                   115                    116                    117
                     A                      A                      A
 Frequencies --  3279.2759              3287.5497              3291.7943
 Red. masses --     1.0836                 1.0733                 1.0840
 Frc consts  --     6.8652                 6.8347                 6.9206
 IR Inten    --    11.5006               399.7596                24.7924
 Raman Activ --     6.6756                88.4258                75.8464

                   118                    119                    120
                     A                      A                      A
 Frequencies --  3292.8252              3298.0761              3302.1229
 Red. masses --     1.0853                 1.0903                 1.0951
 Frc consts  --     6.9331                 6.9874                 7.0357
 IR Inten    --    35.3780                68.2663                60.5514
 Raman Activ --    69.1510                75.6084                33.3574

                   121                    122                    123
                     A                      A                      A
 Frequencies --  3304.1285              3331.3151              3356.7079
 Red. masses --     1.0875                 1.1030                 1.0666
 Frc consts  --     6.9951                 7.2123                 7.0810
 IR Inten    --    61.8503                30.0045                34.1578
 Raman Activ --    45.5348                45.8850                94.2921

                   124                    125                    126
                     A                      A                      A
 Frequencies --  3360.4150              3362.3252              3363.3059
 Red. masses --     1.0715                 1.0672                 1.0673
 Frc consts  --     7.1287                 7.1083                 7.1130
 IR Inten    --    24.1837                39.3931                59.0916
 Raman Activ --    75.3823                69.2968               203.1497

                   127                    128                    129
                     A                      A                      A
 Frequencies --  3366.6894              3867.4044              3874.5711
 Red. masses --     1.0674                 1.0672                 1.0668
 Frc consts  --     7.1280                 9.4044                 9.4358
 IR Inten    --    65.5452                45.1703                48.6200
 Raman Activ --   155.7477               104.3918               160.9030

 - Thermochemistry -
 -------------------
 Temperature   298.150 Kelvin.  Pressure   1.00000 Atm.
 Atom     1 has atomic number  8 and mass  15.99491

 Molecular mass:   342.11621 amu.
 Principal axes and moments of inertia in atomic units:
                           1         2         3
     Eigenvalues --  4560.74628********************
           X            0.99998  -0.00586  -0.00323
           Y            0.00587   0.99998   0.00311
           Z            0.00321  -0.00313   0.99999
 This molecule is an asymmetric top.
 Rotational symmetry number  1.
 Warning -- assumption of classical behavior for rotation
           may cause significant error
 Rotational temperatures (Kelvin)      0.01899     0.00693     0.00534
 Rotational constants (GHZ):           0.39571     0.14447     0.11128
    6 imaginary frequencies ignored.
 Zero-point vibrational energy     966813.6 (Joules/Mol)
                                  231.07401 (Kcal/Mol)
 Warning -- explicit consideration of  33 degrees of freedom as
           vibrations may cause significant error
 Vibrational temperatures:     47.89    56.56    76.14    93.16   143.51
          (Kelvin)            163.70   213.60   234.13   255.92   270.71
                              306.29   343.16   378.09   414.05   427.84
                              435.94   452.53   464.80   487.47   526.87
                              562.79   581.47   603.00   622.38   650.12
                              697.27   729.34   743.57   774.76   799.03
                              825.90   866.27   881.91   898.39   919.93
                              949.33   965.93   993.55  1006.22  1024.81
                             1137.42  1213.57  1219.40  1259.97  1339.48
                             1365.38  1386.23  1424.98  1428.19  1462.44
                             1467.81  1473.83  1487.05  1499.14  1516.65
                             1532.58  1537.90  1549.19  1569.16  1574.92
                             1600.41  1602.46  1611.88  1626.69  1650.67
                             1651.54  1672.49  1679.56  1697.09  1705.62
                             1724.48  1729.53  1750.33  1774.49  1789.58
                             1800.89  1815.81  1825.65  1855.09  1865.63
                             1872.54  1888.68  1890.59  1905.01  1910.72
                             1927.93  1935.05  1940.13  1945.64  1960.99
                             1966.38  1982.88  1986.49  2000.12  2013.17
                             2042.43  2062.52  2077.60  2092.02  2105.53
                             2110.65  4683.15  4683.55  4694.53  4697.98
                             4704.51  4710.44  4717.83  4718.14  4730.04
                             4736.15  4737.64  4745.19  4751.01  4753.90
                             4793.01  4829.55  4834.88  4837.63  4839.04
                             4843.91  5564.33  5574.64

 Zero-point correction=                           0.368240 (Hartree/Particle)
 Thermal correction to Energy=                    0.387830
 Thermal correction to Enthalpy=                  0.388774
 Thermal correction to Gibbs Free Energy=         0.320166
 Sum of electronic and zero-point Energies=          -1297.625879
 Sum of electronic and thermal Energies=             -1297.606288
 Sum of electronic and thermal Enthalpies=           -1297.605344
 Sum of electronic and thermal Free Energies=        -1297.673952

                     E (Thermal)             CV                S
                      KCal/Mol        Cal/Mol-Kelvin    Cal/Mol-Kelvin
 Total                  243.367             79.205            144.397
 Electronic               0.000              0.000              0.000
 Translational            0.889              2.981             43.384
 Rotational               0.889              2.981             35.179
 Vibrational            241.590             73.243             65.834
 Vibration     1          0.594              1.983              5.624
 Vibration     2          0.594              1.981              5.293
 Vibration     3          0.596              1.976              4.705
 Vibration     4          0.597              1.971              4.307
 Vibration     5          0.604              1.949              3.459
 Vibration     6          0.607              1.938              3.203
 Vibration     7          0.618              1.904              2.692
 Vibration     8          0.623              1.888              2.518
 Vibration     9          0.628              1.870              2.351
 Vibration    10          0.633              1.856              2.246
 Vibration    11          0.644              1.821              2.019
 Vibration    12          0.656              1.782              1.814
 Vibration    13          0.670              1.741              1.643
 Vibration    14          0.685              1.696              1.487
 Vibration    15          0.691              1.679              1.432
 Vibration    16          0.694              1.668              1.400
 Vibration    17          0.702              1.646              1.338
 Vibration    18          0.708              1.629              1.295
 Vibration    19          0.719              1.598              1.218
 Vibration    20          0.739              1.542              1.096
 Vibration    21          0.759              1.489              0.996
 Vibration    22          0.769              1.461              0.948
 Vibration    23          0.782              1.429              0.895
 Vibration    24          0.793              1.399              0.850
 Vibration    25          0.811              1.357              0.790
 Vibration    26          0.841              1.284              0.698
 Vibration    27          0.862              1.235              0.641
 Vibration    28          0.872              1.213              0.617
 Vibration    29          0.894              1.165              0.569
 Vibration    30          0.911              1.128              0.533
 Vibration    31          0.930              1.087              0.497
 Vibration    32          0.960              1.027              0.446
 Vibration    33          0.972              1.004              0.428

 Normal termination of Gaussian 09 at Tue Feb 16 09:48:26 2016.
