 Gaussian 09, Revision B.01,
 Gaussian 09:  EM64L-G09RevB.01 12-Aug-2010

 -------------------------------------------------
 # freq=raman b3lyp/6-31+g(2d,p) geom=connectivity
 -------------------------------------------------

 -----------------
 290 9086/9086.com
 -----------------
 Symbolic Z-matrix:
 Charge =  0 Multiplicity = 1

                         Standard orientation:
 ---------------------------------------------------------------------
 Center     Atomic      Atomic             Coordinates (Angstroms)
 Number     Number       Type             X           Y           Z
 ---------------------------------------------------------------------
      1          8           0        5.054091   -0.395035   -0.479961
      2          6           0        3.789827   -0.133481    0.147994
      3          6           0        3.241675    1.229237   -0.241865
      4          8           0        4.228539    2.210364    0.111320
      5          1           0        5.096244    1.952480   -0.315545
      6          6           0        1.854168    1.614541    0.244590
      7          8           0        1.342862    2.770597   -0.433279
      8          1           0        0.471429    3.046160   -0.027139
      9          6           0        3.102146   -2.537266    0.176498
     10          8           0        4.294283   -3.177659   -0.300660
     11          1           0        4.024845   -4.134094   -0.406933
     12          6           0        2.724961   -1.133708   -0.270948
     13          8           0        1.490111   -0.829360    0.392370
     14          6           0        0.930673    0.432260   -0.003051
     15          8           0       -0.370104    0.624300    0.571114
     16          6           0       -1.580020    0.191442   -0.068929
     17          6           0       -2.058087   -1.177029    0.389976
     18          8           0       -1.006739   -2.145706    0.511661
     19          1           0       -0.301542   -1.651892    1.020546
     20          6           0       -3.370270   -1.493393   -0.310336
     21          8           0       -3.772248   -2.838885   -0.018256
     22          1           0       -4.763977   -2.798934   -0.145329
     23          6           0       -2.321915    2.631353   -0.235841
     24          8           0       -1.213357    3.351029    0.322791
     25          1           0       -1.500602    4.308619    0.330837
     26          6           0       -2.632727    1.232757    0.271977
     27          8           0       -3.938563    0.819131   -0.157129
     28          6           0       -4.441294   -0.498820    0.107574
     29          8           0       -5.596330   -0.649618   -0.730777
     30          1           0        5.704420   -0.617281    0.190322
     31          1           0        2.282714   -3.175718   -0.080038
     32          1           0        3.167272   -2.515816    1.244299
     33          1           0        2.590192   -1.107977   -1.332115
     34          1           0        3.910632   -0.172974    1.210419
     35          1           0        3.187125    1.230314   -1.310473
     36          1           0        1.894211    1.813891    1.295093
     37          1           0        0.788176    0.379492   -1.062206
     38          1           0       -3.197698    3.227399   -0.085399
     39          1           0       -2.156156    2.558410   -1.290404
     40          1           0       -2.665424    1.295466    1.339637
     41          1           0       -1.431165    0.174926   -1.128396
     42          1           0       -2.354925   -1.017186    1.405474
     43          1           0       -3.220556   -1.406223   -1.366218
     44          1           0       -6.364910   -0.835158   -0.186297
     45          1           0       -4.695491   -0.614525    1.140481
 ---------------------------------------------------------------------

 SCF Done:  E(RB3LYP) =  -1297.98230346     A.U. after   13 cycles

 The electronic state is 1-A.
 Alpha  occ. eigenvalues --  -19.19451 -19.19288 -19.18073 -19.17920 -19.17715
 Alpha  occ. eigenvalues --  -19.16600 -19.16437 -19.15974 -19.14812 -19.14226
 Alpha  occ. eigenvalues --  -19.13477 -10.31964 -10.30033 -10.26483 -10.25726
 Alpha  occ. eigenvalues --  -10.25704 -10.25207 -10.24918 -10.24461 -10.24434
 Alpha  occ. eigenvalues --  -10.24372 -10.23665 -10.23355  -1.09725  -1.08909
 Alpha  occ. eigenvalues --   -1.05989  -1.04955  -1.04150  -1.03784  -1.03218
 Alpha  occ. eigenvalues --   -1.02450  -1.01470  -1.01122  -0.99816  -0.82556
 Alpha  occ. eigenvalues --   -0.80129  -0.79865  -0.78150  -0.71965  -0.69954
 Alpha  occ. eigenvalues --   -0.67700  -0.64119  -0.63196  -0.61885  -0.61508
 Alpha  occ. eigenvalues --   -0.59886  -0.56816  -0.56199  -0.55079  -0.54881
 Alpha  occ. eigenvalues --   -0.53751  -0.53307  -0.52672  -0.51708  -0.51391
 Alpha  occ. eigenvalues --   -0.50761  -0.49890  -0.48966  -0.47960  -0.46676
 Alpha  occ. eigenvalues --   -0.46563  -0.44788  -0.44668  -0.43831  -0.43046
 Alpha  occ. eigenvalues --   -0.42243  -0.41741  -0.41557  -0.40475  -0.39841
 Alpha  occ. eigenvalues --   -0.38734  -0.38482  -0.38092  -0.35801  -0.35636
 Alpha  occ. eigenvalues --   -0.35436  -0.34837  -0.34273  -0.33809  -0.33348
 Alpha  occ. eigenvalues --   -0.32879  -0.31360  -0.31208  -0.30495  -0.29627
 Alpha  occ. eigenvalues --   -0.29065  -0.28442  -0.28134  -0.27335  -0.26935
 Alpha  occ. eigenvalues --   -0.25743
 Alpha virt. eigenvalues --   -0.02597  -0.02284  -0.01339   0.00045   0.00483
 Alpha virt. eigenvalues --    0.00668   0.01749   0.02107   0.03440   0.03711
 Alpha virt. eigenvalues --    0.03738   0.04029   0.04974   0.05488   0.05568

 Mulliken atomic charges:
              1
     1  O   -0.546977
     2  C   -0.075984
     3  C    0.348508
     4  O   -0.569946
     5  H    0.346838
     6  C   -0.228307
     7  O   -0.562354
     8  H    0.412882
     9  C   -0.379825
    10  O   -0.513521
    11  H    0.336558
    12  C    0.295176
    13  O   -0.259086
    14  C    0.268865
    15  O   -0.319618
    16  C    0.312393
    17  C    0.122032
    18  O   -0.511632
    19  H    0.357796
    20  C    0.062835
    21  O   -0.524787
    22  H    0.325999
    23  C   -0.322054
    24  O   -0.544274
    25  H    0.360132
    26  C    0.019546
    27  O   -0.268611
    28  C    0.132899
    29  O   -0.515468
    30  H    0.344876
    31  H    0.146966
    32  H    0.140868
    33  H    0.112612
    34  H    0.119409
    35  H    0.119883
    36  H    0.127081
    37  H    0.104657
    38  H    0.144875
    39  H    0.156197
    40  H    0.117559
    41  H    0.109148
    42  H    0.092036
    43  H    0.126739
    44  H    0.338338
    45  H    0.138743
 Sum of Mulliken atomic charges =   0.00000

 Dipole moment (field-independent basis, Debye):
    X=             -3.9752    Y=              0.5198    Z=              1.8716  Tot=              4.4244
 Quadrupole moment (field-independent basis, Debye-Ang):
   XX=           -116.8084   YY=           -137.7546   ZZ=           -138.8235
   XY=            -15.2342   XZ=             -2.7756   YZ=              1.1491

  Exact polarizability: 234.880   0.594 197.213   1.058  -0.652 144.619
 Approx polarizability: 276.959  -0.686 257.090   1.158   0.155 239.987

 ******    7 imaginary frequencies (negative Signs) ******

                     1                      2                      3
                     A                      A                      A
 Frequencies --  -290.7837              -271.0113              -240.9475
 Red. masses --     1.6258                 1.7024                 1.1897
 Frc consts  --     0.0810                 0.0737                 0.0407
 IR Inten    --    19.4977                 2.1778                90.2675
 Raman Activ --     0.1510                 0.0300                 0.6564

                     4                      5                      6
                     A                      A                      A
 Frequencies --  -151.3956               -81.3080               -51.7522
 Red. masses --     1.2910                 6.5682                 6.3822
 Frc consts  --     0.0174                 0.0256                 0.0101
 IR Inten    --    97.7332                 0.5081                 0.7186
 Raman Activ --     0.6500                 0.0636                 0.0339

                     7                      8                      9
                     A                      A                      A
 Frequencies --   -10.4146                48.5384                57.6815
 Red. masses --     6.4631                 6.4377                 6.5942
 Frc consts  --     0.0004                 0.0089                 0.0129
 IR Inten    --     0.8238                 1.6644                 0.7039
 Raman Activ --     0.1082                 0.0234                 0.1245

                    10                     11                     12
                     A                      A                      A
 Frequencies --    82.3681                88.1280               109.9872
 Red. masses --     6.3793                 6.3501                 5.7419
 Frc consts  --     0.0255                 0.0291                 0.0409
 IR Inten    --     1.1504                 3.7819                 2.2271
 Raman Activ --     0.3619                 0.0354                 0.1198

                    13                     14                     15
                     A                      A                      A
 Frequencies --   151.6414               162.3319               184.0115
 Red. masses --     5.9903                 6.3755                 7.1960
 Frc consts  --     0.0812                 0.0990                 0.1436
 IR Inten    --     3.7025                 0.4609                 0.1323
 Raman Activ --     0.1652                 0.6132                 0.5702

                    16                     17                     18
                     A                      A                      A
 Frequencies --   200.5799               224.9813               256.5321
 Red. masses --     6.8517                 5.8489                 4.6366
 Frc consts  --     0.1624                 0.1744                 0.1798
 IR Inten    --     0.1233                 0.9862                 2.9604
 Raman Activ --     2.8031                 0.5295                 0.1170

                    19                     20                     21
                     A                      A                      A
 Frequencies --   270.2318               292.0135               299.9656
 Red. masses --     4.4935                 4.5465                 5.2992
 Frc consts  --     0.1933                 0.2284                 0.2809
 IR Inten    --    13.9075                 3.3992                 1.0809
 Raman Activ --     0.5702                 0.3135                 0.0990

                    22                     23                     24
                     A                      A                      A
 Frequencies --   301.0962               309.8160               321.1006
 Red. masses --     6.4363                 4.3502                 6.6868
 Frc consts  --     0.3438                 0.2460                 0.4062
 IR Inten    --     6.7796                 5.4726                 1.3140
 Raman Activ --     1.0471                 2.1900                 3.2769

                    25                     26                     27
                     A                      A                      A
 Frequencies --   328.8795               349.4987               372.6887
 Red. masses --     6.3837                 4.4666                 5.7107
 Frc consts  --     0.4068                 0.3215                 0.4673
 IR Inten    --     6.7872                 5.4971                 1.2602
 Raman Activ --     3.3928                 1.5056                 0.9960

                    28                     29                     30
                     A                      A                      A
 Frequencies --   403.4956               408.3348               421.0700
 Red. masses --     4.6479                 6.3578                 5.3742
 Frc consts  --     0.4458                 0.6246                 0.5614
 IR Inten    --    10.7068                 2.0877                 2.5708
 Raman Activ --     2.2585                 7.3186                 3.5331

                    31                     32                     33
                     A                      A                      A
 Frequencies --   424.7352               470.1862               478.0857
 Red. masses --     4.6144                 4.4131                 4.1573
 Frc consts  --     0.4905                 0.5748                 0.5599
 IR Inten    --     2.1275                13.5926                 2.3752
 Raman Activ --     1.5105                 0.7365                 2.9314

                    34                     35                     36
                     A                      A                      A
 Frequencies --   499.0860               522.9824               560.7432
 Red. masses --     4.4209                 3.4685                 3.6955
 Frc consts  --     0.6488                 0.5589                 0.6846
 IR Inten    --     5.2593                18.5201                21.1917
 Raman Activ --     3.2302                 4.1416                 0.7118

                    37                     38                     39
                     A                      A                      A
 Frequencies --   580.8843               583.4986               602.2721
 Red. masses --     4.3546                 4.0901                 4.6652
 Frc consts  --     0.8657                 0.8205                 0.9970
 IR Inten    --    25.0026                19.3852                34.8815
 Raman Activ --     0.5521                 0.4466                 0.8588

                    40                     41                     42
                     A                      A                      A
 Frequencies --   612.7010               670.0942               702.6121
 Red. masses --     4.0891                 5.7095                 1.0845
 Frc consts  --     0.9044                 1.5105                 0.3154
 IR Inten    --    21.1032                12.2976                75.9942
 Raman Activ --     1.3704                 0.4224                 1.4574

                    43                     44                     45
                     A                      A                      A
 Frequencies --   707.8366               728.3540               735.5486
 Red. masses --     1.0917                 1.0958                 1.1074
 Frc consts  --     0.3223                 0.3425                 0.3530
 IR Inten    --   104.7058                44.1163               214.3876
 Raman Activ --     1.5451                 3.1008                 3.8560

                    46                     47                     48
                     A                      A                      A
 Frequencies --   752.2300               824.7616               846.1039
 Red. masses --     1.0700                 1.1769                 1.7337
 Frc consts  --     0.3567                 0.4717                 0.7313
 IR Inten    --    93.9505                67.0757                 3.4062
 Raman Activ --     1.6821                 0.7384                 1.0821

                    49                     50                     51
                     A                      A                      A
 Frequencies --   859.3742               911.2685               935.9133
 Red. masses --     1.5214                 5.7610                 6.2529
 Frc consts  --     0.6620                 2.8187                 3.2270
 IR Inten    --    24.0292               224.9861                22.5450
 Raman Activ --     0.6627                 2.9044                 0.3746

                    52                     53                     54
                     A                      A                      A
 Frequencies --   963.1866               982.1723               986.4428
 Red. masses --     5.0844                 7.2801                 5.2931
 Frc consts  --     2.7792                 4.1377                 3.0346
 IR Inten    --    44.1414               191.0484                63.0677
 Raman Activ --     2.4449                 1.4977                 0.4888

                    55                     56                     57
                     A                      A                      A
 Frequencies --   998.1848              1012.0642              1016.7261
 Red. masses --     6.0427                 6.2027                 6.9156
 Frc consts  --     3.5474                 3.7433                 4.2120
 IR Inten    --   297.0480                35.9324               293.3417
 Raman Activ --     0.8783                 2.9610                 4.6214

                    58                     59                     60
                     A                      A                      A
 Frequencies --  1029.8222              1051.9633              1059.7592
 Red. masses --     6.3884                 5.9001                 7.3565
 Frc consts  --     3.9918                 3.8469                 4.8678
 IR Inten    --   270.6228               213.6806                64.0933
 Raman Activ --     3.1133                 2.3937                 0.8469

                    61                     62                     63
                     A                      A                      A
 Frequencies --  1063.7938              1072.9634              1078.9417
 Red. masses --     3.4253                 2.8859                 7.0189
 Frc consts  --     2.2839                 1.9575                 4.8141
 IR Inten    --     5.1081                73.6945                20.4529
 Raman Activ --     3.6255                20.0634                 2.5454

                    64                     65                     66
                     A                      A                      A
 Frequencies --  1094.7005              1099.6662              1116.7086
 Red. masses --     2.6141                 4.0608                 2.5477
 Frc consts  --     1.8457                 2.8932                 1.8719
 IR Inten    --    59.2020                27.9233                35.4595
 Raman Activ --     2.6166                14.1194                 6.7745

                    67                     68                     69
                     A                      A                      A
 Frequencies --  1121.2542              1127.6026              1141.9271
 Red. masses --     2.4300                 2.4989                 1.9291
 Frc consts  --     1.8000                 1.8720                 1.4821
 IR Inten    --     6.7772                33.7542                 0.9945
 Raman Activ --     4.0704                 3.1146                 5.3892

                    70                     71                     72
                     A                      A                      A
 Frequencies --  1144.8520              1154.7230              1159.2612
 Red. masses --     2.5411                 1.9576                 2.4586
 Frc consts  --     1.9623                 1.5379                 1.9467
 IR Inten    --     9.7097                17.5851                48.0577
 Raman Activ --     3.4768                 4.4582                 2.4594

                    73                     74                     75
                     A                      A                      A
 Frequencies --  1165.1147              1170.3815              1176.2887
 Red. masses --     2.1851                 1.6380                 2.0528
 Frc consts  --     1.7476                 1.3219                 1.6735
 IR Inten    --    54.2898                14.5823                 6.5775
 Raman Activ --     1.4321                 1.0026                 3.4338

                    76                     77                     78
                     A                      A                      A
 Frequencies --  1208.4070              1221.4120              1230.5850
 Red. masses --     1.2854                 1.5542                 1.2991
 Frc consts  --     1.1059                 1.3661                 1.1591
 IR Inten    --    11.1627                 7.9658                 3.8890
 Raman Activ --     0.9377                 1.5281                 1.5621

                    79                     80                     81
                     A                      A                      A
 Frequencies --  1239.1248              1257.9938              1265.9269
 Red. masses --     1.2275                 1.2979                 1.2944
 Frc consts  --     1.1105                 1.2101                 1.2222
 IR Inten    --     9.6076                 1.6856                22.7997
 Raman Activ --     2.0848                 1.2793                 1.1899

                    82                     83                     84
                     A                      A                      A
 Frequencies --  1272.8294              1287.9509              1292.5668
 Red. masses --     1.3451                 1.2535                 1.2362
 Frc consts  --     1.2839                 1.2251                 1.2168
 IR Inten    --     6.6056                16.2234                12.3798
 Raman Activ --     1.6026                 0.3130                 1.8530

                    85                     86                     87
                     A                      A                      A
 Frequencies --  1301.0146              1305.3810              1315.6025
 Red. masses --     1.2066                 1.3231                 1.2586
 Frc consts  --     1.2033                 1.3284                 1.2835
 IR Inten    --    11.9070                24.9742                 3.3151
 Raman Activ --     6.3167                 1.6469                 5.5195

                    88                     89                     90
                     A                      A                      A
 Frequencies --  1320.7090              1332.5012              1337.2747
 Red. masses --     1.2365                 1.2988                 1.3492
 Frc consts  --     1.2707                 1.3588                 1.4216
 IR Inten    --    20.0188                13.2234                17.5448
 Raman Activ --    10.3536                 7.6769                 9.0032

                    91                     92                     93
                     A                      A                      A
 Frequencies --  1340.4688              1357.8544              1366.5131
 Red. masses --     1.2083                 1.4393                 1.3793
 Frc consts  --     1.2792                 1.5636                 1.5176
 IR Inten    --    20.9416                13.7057                 7.8893
 Raman Activ --     3.2351                 3.9252                 4.1095

                    94                     95                     96
                     A                      A                      A
 Frequencies --  1372.1076              1374.2858              1379.1323
 Red. masses --     1.2716                 1.1888                 1.4974
 Frc consts  --     1.4105                 1.3228                 1.6781
 IR Inten    --    12.3122                35.6848                 4.0208
 Raman Activ --     3.3151                 1.1100                 6.6504

                    97                     98                     99
                     A                      A                      A
 Frequencies --  1394.0115              1400.2253              1404.0418
 Red. masses --     1.3830                 1.3651                 1.1130
 Frc consts  --     1.5835                 1.5769                 1.2927
 IR Inten    --     6.7452                 8.2270                36.4447
 Raman Activ --     3.3914                 3.1724                 3.5677

                   100                    101                    102
                     A                      A                      A
 Frequencies --  1439.1299              1464.8809              1469.4709
 Red. masses --     1.3427                 1.3714                 1.0889
 Frc consts  --     1.6384                 1.7339                 1.3854
 IR Inten    --    46.5970                29.6940                 5.2502
 Raman Activ --     1.0664                 1.2751                 3.9954

                   103                    104                    105
                     A                      A                      A
 Frequencies --  1469.6874              1478.9206              1489.5078
 Red. masses --     1.0861                 1.2744                 1.2915
 Frc consts  --     1.3823                 1.6423                 1.6882
 IR Inten    --     5.3458                35.5427                28.0319
 Raman Activ --     5.6342                 1.3062                 0.5399

                   106                    107                    108
                     A                      A                      A
 Frequencies --  1498.0321              1504.9347              3238.5751
 Red. masses --     1.2627                 1.3576                 1.0803
 Frc consts  --     1.6696                 1.8116                 6.6756
 IR Inten    --    33.2906                50.4429                20.0084
 Raman Activ --     1.3198                 1.9067                55.0976

                   109                    110                    111
                     A                      A                      A
 Frequencies --  3254.7661              3258.6616              3265.4415
 Red. masses --     1.0579                 1.0609                 1.0820
 Frc consts  --     6.6031                 6.6377                 6.7977
 IR Inten    --    26.0113               198.0807                13.8460
 Raman Activ --    69.8975                41.4966                42.6808

                   112                    113                    114
                     A                      A                      A
 Frequencies --  3267.7308              3268.9769              3276.2610
 Red. masses --     1.0799                 1.0810                 1.0741
 Frc consts  --     6.7939                 6.8060                 6.7929
 IR Inten    --    15.4038                32.5513               419.8871
 Raman Activ --     7.5319               210.2435               183.9801

                   115                    116                    117
                     A                      A                      A
 Frequencies --  3277.0047              3280.8198              3285.4613
 Red. masses --     1.0787                 1.0835                 1.0853
 Frc consts  --     6.8250                 6.8716                 6.9020
 IR Inten    --   131.8966                 1.5532                15.9444
 Raman Activ --    74.5744               111.0815                95.7135

                   118                    119                    120
                     A                      A                      A
 Frequencies --  3289.5738              3295.1951              3298.3388
 Red. masses --     1.0856                 1.0873                 1.0893
 Frc consts  --     6.9218                 6.9558                 6.9819
 IR Inten    --    22.6166                79.0750                68.7621
 Raman Activ --    18.1633                13.6428                11.8255

                   121                    122                    123
                     A                      A                      A
 Frequencies --  3310.1718              3316.8671              3353.6503
 Red. masses --     1.1012                 1.1053                 1.0649
 Frc consts  --     7.1092                 7.1647                 7.0567
 IR Inten    --    70.8991                55.6704                48.5027
 Raman Activ --    17.8794                32.2855                76.3087

                   124                    125                    126
                     A                      A                      A
 Frequencies --  3356.7875              3357.1552              3377.0433
 Red. masses --     1.0655                 1.0655                 1.0679
 Frc consts  --     7.0735                 7.0752                 7.1755
 IR Inten    --   178.2015                53.2862                55.5547
 Raman Activ --   214.6089                14.1655               151.0906

                   127                    128                    129
                     A                      A                      A
 Frequencies --  3378.3384              3891.7852              3892.0022
 Red. masses --     1.0682                 1.0675                 1.0676
 Frc consts  --     7.1833                 9.5261                 9.5279
 IR Inten    --    36.7921               117.9859                50.4466
 Raman Activ --   128.3730                79.1347               131.8380

 - Thermochemistry -
 -------------------
 Temperature   298.150 Kelvin.  Pressure   1.00000 Atm.
 Atom     1 has atomic number  8 and mass  15.99491

 Molecular mass:   342.11621 amu.
 Principal axes and moments of inertia in atomic units:
                           1         2         3
     Eigenvalues --  4426.72176********************
           X            0.99997  -0.00728  -0.00051
           Y            0.00728   0.99997  -0.00208
           Z            0.00052   0.00207   1.00000
 This molecule is an asymmetric top.
 Rotational symmetry number  1.
 Warning -- assumption of classical behavior for rotation
           may cause significant error
 Rotational temperatures (Kelvin)      0.01957     0.00684     0.00520
 Rotational constants (GHZ):           0.40769     0.14259     0.10833
    7 imaginary frequencies ignored.
 Zero-point vibrational energy     973914.8 (Joules/Mol)
                                  232.77122 (Kcal/Mol)
 Warning -- explicit consideration of  33 degrees of freedom as
           vibrations may cause significant error
 Vibrational temperatures:     69.84    82.99   118.51   126.80   158.25
          (Kelvin)            218.18   233.56   264.75   288.59   323.70
                              369.09   388.80   420.14   431.58   433.21
                              445.76   461.99   473.18   502.85   536.22
                              580.54   587.50   605.83   611.10   676.49
                              687.86   718.07   752.45   806.78   835.76
                              839.52   866.53   881.54   964.11  1010.90
                             1018.42  1047.94  1058.29  1082.29  1186.65
                             1217.35  1236.45  1311.11  1346.57  1385.81
                             1413.13  1419.27  1436.16  1456.13  1462.84
                             1481.68  1513.54  1524.76  1530.56  1543.75
                             1552.35  1575.03  1582.17  1606.69  1613.23
                             1622.37  1642.98  1647.18  1661.39  1667.92
                             1676.34  1683.92  1692.42  1738.63  1757.34
                             1770.54  1782.82  1809.97  1821.38  1831.32
                             1853.07  1859.71  1871.87  1878.15  1892.86
                             1900.20  1917.17  1924.04  1928.63  1953.65
                             1966.11  1974.15  1977.29  1984.26  2005.67
                             2014.61  2020.10  2070.58  2107.63  2114.24
                             2114.55  2127.83  2143.07  2155.33  2165.26
                             4659.58  4682.88  4688.48  4698.24  4701.53
                             4703.32  4713.80  4714.87  4720.36  4727.04
                             4732.96  4741.04  4745.57  4762.59  4772.23
                             4825.15  4829.66  4830.19  4858.81  4860.67
                             5599.40  5599.72

 Zero-point correction=                           0.370945 (Hartree/Particle)
 Thermal correction to Energy=                    0.389540
 Thermal correction to Enthalpy=                  0.390484
 Thermal correction to Gibbs Free Energy=         0.325073
 Sum of electronic and zero-point Energies=          -1297.611359
 Sum of electronic and thermal Energies=             -1297.592763
 Sum of electronic and thermal Enthalpies=           -1297.591819
 Sum of electronic and thermal Free Energies=        -1297.657230

                     E (Thermal)             CV                S
                      KCal/Mol        Cal/Mol-Kelvin    Cal/Mol-Kelvin
 Total                  244.440             76.460            137.669
 Electronic               0.000              0.000              0.000
 Translational            0.889              2.981             43.384
 Rotational               0.889              2.981             35.189
 Vibrational            242.663             70.498             59.096
 Vibration     1          0.595              1.978              4.876
 Vibration     2          0.596              1.974              4.535
 Vibration     3          0.600              1.961              3.834
 Vibration     4          0.601              1.958              3.701
 Vibration     5          0.606              1.941              3.269
 Vibration     6          0.619              1.901              2.652
 Vibration     7          0.622              1.889              2.522
 Vibration     8          0.631              1.862              2.287
 Vibration     9          0.638              1.839              2.128
 Vibration    10          0.650              1.803              1.919
 Vibration    11          0.666              1.752              1.685
 Vibration    12          0.674              1.728              1.595
 Vibration    13          0.687              1.689              1.462
 Vibration    14          0.693              1.674              1.417
 Vibration    15          0.693              1.672              1.411
 Vibration    16          0.699              1.655              1.363
 Vibration    17          0.707              1.633              1.304
 Vibration    18          0.712              1.618              1.266
 Vibration    19          0.727              1.576              1.168
 Vibration    20          0.744              1.528              1.069
 Vibration    21          0.769              1.463              0.950
 Vibration    22          0.773              1.452              0.933
 Vibration    23          0.784              1.424              0.888
 Vibration    24          0.787              1.416              0.876
 Vibration    25          0.827              1.316              0.737
 Vibration    26          0.835              1.299              0.715
 Vibration    27          0.855              1.252              0.660
 Vibration    28          0.878              1.199              0.603
 Vibration    29          0.916              1.116              0.522
 Vibration    30          0.938              1.073              0.484
 Vibration    31          0.940              1.067              0.479
 Vibration    32          0.961              1.027              0.446
 Vibration    33          0.972              1.005              0.428

 Normal termination of Gaussian 09 at Wed Mar 23 03:19:29 2016.
