 Gaussian 09, Revision B.01,
 Gaussian 09:  EM64L-G09RevB.01 12-Aug-2010

 ------------------------------------------------
 # freq=raman b3lyp/6-31+g(d,p) geom=connectivity
 ------------------------------------------------

 ------------
 400 8000.com
 ------------
 Symbolic Z-matrix:
 Charge =  0 Multiplicity = 1

                         Standard orientation:
 ---------------------------------------------------------------------
 Center     Atomic      Atomic             Coordinates (Angstroms)
 Number     Number       Type             X           Y           Z
 ---------------------------------------------------------------------
      1          8           0        5.047290   -0.338338   -0.466534
      2          6           0        3.770822   -0.079775    0.134576
      3          6           0        3.256617    1.304859   -0.223699
      4          8           0        4.196093    2.254940    0.298788
      5          1           0        5.121990    2.079534   -0.036821
      6          6           0        1.858224    1.574640    0.308901
      7          8           0        1.536406    2.690818   -0.533167
      8          1           0        0.602867    3.002585   -0.355280
      9          6           0        2.925123   -2.572393    0.073691
     10          8           0        4.184672   -3.223439   -0.152626
     11          1           0        4.062864   -4.214958   -0.102108
     12          6           0        2.709560   -1.101014   -0.242964
     13          8           0        1.436079   -0.726941    0.302017
     14          6           0        0.853775    0.515989   -0.115954
     15          8           0       -0.329727    0.633181    0.687493
     16          6           0       -1.557585    0.222138    0.069136
     17          6           0       -1.881923   -1.226957    0.390785
     18          8           0       -0.888289   -2.103054   -0.158701
     19          1           0        0.014421   -1.795823    0.140823
     20          6           0       -3.232380   -1.632061   -0.178651
     21          8           0       -3.764826   -2.703703    0.612525
     22          1           0       -4.729354   -2.753387    0.355878
     23          6           0       -2.434677    2.606296    0.636897
     24          8           0       -1.838805    3.369468   -0.422020
     25          1           0       -1.580892    4.314314   -0.216458
     26          6           0       -2.726411    1.131883    0.410910
     27          8           0       -3.857788    0.751434   -0.384944
     28          6           0       -4.296297   -0.560968   -0.004693
     29          8           0       -5.259791   -0.700795   -1.059455
     30          1           0       -6.135427   -0.498543   -0.721882
     31          1           0        5.738803   -0.225367    0.189704
     32          1           0        2.192467   -3.117594   -0.483868
     33          1           0        2.694325   -2.700932    1.110567
     34          1           0        2.611477   -1.040604   -1.306745
     35          1           0        3.897296   -0.117394    1.196409
     36          1           0        3.237412    1.395487   -1.289681
     37          1           0        1.829927    1.811201    1.352039
     38          1           0        0.645802    0.539360   -1.165288
     39          1           0       -1.787822    2.678017    1.486212
     40          1           0       -3.359607    3.080160    0.891568
     41          1           0       -3.005506    0.804620    1.390658
     42          1           0       -1.411377    0.283931   -0.989025
     43          1           0       -1.902875   -1.349569    1.453531
     44          1           0       -3.145858   -1.922496   -1.204839
     45          1           0       -4.750541   -0.576927    0.963970
 ---------------------------------------------------------------------

 SCF Done:  E(RB3LYP) =  -1297.92148642     A.U. after   14 cycles

 The electronic state is 1-A.
 Alpha  occ. eigenvalues --  -19.19650 -19.19509 -19.18339 -19.17834 -19.17834
 Alpha  occ. eigenvalues --  -19.17574 -19.17010 -19.16796 -19.16401 -19.16042
 Alpha  occ. eigenvalues --  -19.14685 -10.31766 -10.30957 -10.26315 -10.26249
 Alpha  occ. eigenvalues --  -10.25717 -10.25561 -10.25554 -10.25152 -10.25150
 Alpha  occ. eigenvalues --  -10.24803 -10.24720 -10.24509  -1.10506  -1.09480
 Alpha  occ. eigenvalues --   -1.05403  -1.04475  -1.03839  -1.03312  -1.03232
 Alpha  occ. eigenvalues --   -1.02326  -1.02029  -1.01203  -1.00821  -0.82361
 Alpha  occ. eigenvalues --   -0.80261  -0.78622  -0.78560  -0.72384  -0.70625
 Alpha  occ. eigenvalues --   -0.68009  -0.65612  -0.63073  -0.63045  -0.61683
 Alpha  occ. eigenvalues --   -0.60359  -0.56421  -0.55863  -0.55287  -0.54182
 Alpha  occ. eigenvalues --   -0.53786  -0.53499  -0.53078  -0.52865  -0.52181
 Alpha  occ. eigenvalues --   -0.50846  -0.50427  -0.48847  -0.48162  -0.46631
 Alpha  occ. eigenvalues --   -0.46366  -0.45373  -0.44768  -0.43946  -0.43280
 Alpha  occ. eigenvalues --   -0.42840  -0.42319  -0.41269  -0.40298  -0.39322
 Alpha  occ. eigenvalues --   -0.38525  -0.37737  -0.36441  -0.36085  -0.35783
 Alpha  occ. eigenvalues --   -0.35328  -0.34643  -0.34238  -0.33932  -0.33676
 Alpha  occ. eigenvalues --   -0.32553  -0.31432  -0.31185  -0.30077  -0.29867
 Alpha  occ. eigenvalues --   -0.29627  -0.29008  -0.28799  -0.28256  -0.26760
 Alpha  occ. eigenvalues --   -0.26523
 Alpha virt. eigenvalues --   -0.02249  -0.01966  -0.01870  -0.00567   0.00308
 Alpha virt. eigenvalues --    0.01348   0.01963   0.02267   0.03057   0.03239
 Alpha virt. eigenvalues --    0.03549   0.03964   0.04744   0.05205   0.05444

 Mulliken atomic charges:
              1
     1  O   -0.535861
     2  C   -0.185397
     3  C    0.084742
     4  O   -0.540567
     5  H    0.352829
     6  C    0.151856
     7  O   -0.492307
     8  H    0.365934
     9  C   -0.031486
    10  O   -0.532569
    11  H    0.360759
    12  C    0.208599
    13  O   -0.444990
    14  C   -0.040941
    15  O   -0.321903
    16  C    0.000569
    17  C   -0.011455
    18  O   -0.533207
    19  H    0.418993
    20  C    0.207466
    21  O   -0.486655
    22  H    0.341862
    23  C   -0.399480
    24  O   -0.597116
    25  H    0.368776
    26  C    0.472206
    27  O   -0.336737
    28  C   -0.039661
    29  O   -0.521675
    30  H    0.355966
    31  H    0.364542
    32  H    0.140044
    33  H    0.138381
    34  H    0.127178
    35  H    0.133686
    36  H    0.152761
    37  H    0.157210
    38  H    0.148822
    39  H    0.141062
    40  H    0.137002
    41  H    0.113402
    42  H    0.139749
    43  H    0.149549
    44  H    0.171636
    45  H    0.146424
 Sum of Mulliken atomic charges =   0.00000

 Dipole moment (field-independent basis, Debye):
    X=             -1.8881    Y=              0.8702    Z=              3.5351  Tot=              4.1011
 Quadrupole moment (field-independent basis, Debye-Ang):
   XX=           -116.4237   YY=           -136.4602   ZZ=           -142.5354
   XY=             -9.7109   XZ=             -4.6053   YZ=              5.4149

  Exact polarizability: 226.912   1.939 192.144  -0.788  -0.124 142.210
 Approx polarizability: 265.134   1.104 245.181  -1.350  -2.023 232.072

 ******    8 imaginary frequencies (negative Signs) ******

                     1                      2                      3
                     A                      A                      A
 Frequencies --  -321.6170              -304.8359              -288.3035
 Red. masses --     1.3965                 1.3997                 1.1208
 Frc consts  --     0.0851                 0.0766                 0.0549
 IR Inten    --    68.2330                70.0990               104.2589
 Raman Activ --     0.5690                 0.6342                 2.5723

                     4                      5                      6
                     A                      A                      A
 Frequencies --  -234.5410               -83.9182               -68.6074
 Red. masses --     1.9322                 6.2664                 5.8665
 Frc consts  --     0.0626                 0.0260                 0.0163
 IR Inten    --    20.7362                 0.9044                 1.1370
 Raman Activ --     0.0800                 0.0290                 0.1239

                     7                      8                      9
                     A                      A                      A
 Frequencies --   -57.2765               -43.4117                10.4747
 Red. masses --     6.1810                 6.2286                 6.8097
 Frc consts  --     0.0119                 0.0069                 0.0004
 IR Inten    --     0.5837                 1.6592                 0.5834
 Raman Activ --     0.0156                 0.0171                 0.0832

                    10                     11                     12
                     A                      A                      A
 Frequencies --    42.1598                70.6806               104.8808
 Red. masses --     6.1539                 6.9695                 5.7817
 Frc consts  --     0.0064                 0.0205                 0.0375
 IR Inten    --     0.1032                 3.5645                 0.4653
 Raman Activ --     0.0822                 0.0646                 0.1144

                    13                     14                     15
                     A                      A                      A
 Frequencies --   112.8041               155.5785               167.4155
 Red. masses --     5.2015                 6.1811                 6.3441
 Frc consts  --     0.0390                 0.0881                 0.1048
 IR Inten    --     0.9970                 3.2277                 0.3529
 Raman Activ --     0.4600                 0.0607                 0.3985

                    16                     17                     18
                     A                      A                      A
 Frequencies --   178.9261               227.6298               233.8666
 Red. masses --     6.2229                 5.2047                 5.5901
 Frc consts  --     0.1174                 0.1589                 0.1801
 IR Inten    --     0.4690                 1.3025                12.3193
 Raman Activ --     0.8989                 1.8905                 1.0834

                    19                     20                     21
                     A                      A                      A
 Frequencies --   248.4694               266.8176               289.3705
 Red. masses --     5.8630                 5.4319                 5.3350
 Frc consts  --     0.2133                 0.2278                 0.2632
 IR Inten    --    10.4435                 1.0420                 2.4309
 Raman Activ --     1.7017                 0.0872                 0.4768

                    22                     23                     24
                     A                      A                      A
 Frequencies --   300.5167               319.4752               327.8226
 Red. masses --     5.1508                 6.9093                 6.0789
 Frc consts  --     0.2741                 0.4155                 0.3849
 IR Inten    --     0.8119                 1.9734                 1.9518
 Raman Activ --     0.5897                 3.9901                 0.5140

                    25                     26                     27
                     A                      A                      A
 Frequencies --   331.7155               383.9417               391.3887
 Red. masses --     5.9880                 6.3576                 5.0190
 Frc consts  --     0.3882                 0.5522                 0.4530
 IR Inten    --     4.8098                 5.2789                 9.1312
 Raman Activ --     1.5190                 1.2650                 2.0208

                    28                     29                     30
                     A                      A                      A
 Frequencies --   419.2689               426.5221               438.2589
 Red. masses --     4.3928                 4.1643                 5.8631
 Frc consts  --     0.4550                 0.4463                 0.6635
 IR Inten    --     6.2948                17.0017                 6.1606
 Raman Activ --     2.1697                 1.9152                 2.3983

                    31                     32                     33
                     A                      A                      A
 Frequencies --   470.1715               482.6647               518.3830
 Red. masses --     6.8584                 4.3960                 5.2188
 Frc consts  --     0.8933                 0.6034                 0.8263
 IR Inten    --     8.2903                 9.6718                11.5959
 Raman Activ --     0.9902                 4.1875                 4.3438

                    34                     35                     36
                     A                      A                      A
 Frequencies --   545.7177               561.6470               578.6135
 Red. masses --     3.3923                 3.2541                 3.5476
 Frc consts  --     0.5952                 0.6048                 0.6998
 IR Inten    --    22.4133                19.3376                29.1616
 Raman Activ --     3.6572                 0.5052                 1.0707

                    37                     38                     39
                     A                      A                      A
 Frequencies --   604.8066               617.6943               640.5701
 Red. masses --     4.7403                 4.2416                 1.5514
 Frc consts  --     1.0216                 0.9535                 0.3751
 IR Inten    --     9.0559                20.0734                99.5798
 Raman Activ --     2.7154                 0.4010                 1.4449

                    40                     41                     42
                     A                      A                      A
 Frequencies --   646.9395               663.9024               673.4805
 Red. masses --     2.0395                 1.0983                 3.9015
 Frc consts  --     0.5029                 0.2852                 1.0426
 IR Inten    --    94.2663               106.1165                11.2867
 Raman Activ --     1.2717                 1.9992                 1.0788

                    43                     44                     45
                     A                      A                      A
 Frequencies --   705.6070               711.7696               745.1135
 Red. masses --     1.0481                 3.4929                 1.0823
 Frc consts  --     0.3075                 1.0426                 0.3540
 IR Inten    --    96.8867                 4.1296               112.9989
 Raman Activ --     1.9298                 1.3425                 2.0420

                    46                     47                     48
                     A                      A                      A
 Frequencies --   773.0211               837.2554               845.8150
 Red. masses --     1.0776                 1.1318                 2.7699
 Frc consts  --     0.3794                 0.4675                 1.1675
 IR Inten    --   122.3722                97.7798                26.8065
 Raman Activ --     1.0626                 3.3492                 2.6479

                    49                     50                     51
                     A                      A                      A
 Frequencies --   850.7170               892.5228               926.3141
 Red. masses --     1.8095                 2.8618                 6.3284
 Frc consts  --     0.7716                 1.3432                 3.1994
 IR Inten    --     5.5301                16.7568               169.1769
 Raman Activ --     3.6957                 1.7058                 2.8426

                    52                     53                     54
                     A                      A                      A
 Frequencies --   960.5253               987.3390              1015.4159
 Red. masses --     5.8593                 4.6080                 4.4844
 Frc consts  --     3.1850                 2.6467                 2.7242
 IR Inten    --   208.6146                28.8009                 3.8217
 Raman Activ --     2.6740                 1.4968                 2.6614

                    55                     56                     57
                     A                      A                      A
 Frequencies --  1016.1172              1019.5396              1022.2490
 Red. masses --     6.0995                 3.9512                 5.0506
 Frc consts  --     3.7105                 2.4199                 3.1096
 IR Inten    --   376.1956                59.9055                43.7110
 Raman Activ --     4.2783                 3.2596                 3.3355

                    58                     59                     60
                     A                      A                      A
 Frequencies --  1045.3659              1050.8693              1058.8667
 Red. masses --     4.7657                 2.3167                 3.5961
 Frc consts  --     3.0684                 1.5074                 2.3755
 IR Inten    --   119.5150                86.6552                30.4264
 Raman Activ --     6.3800                 5.5708                 3.2062

                    61                     62                     63
                     A                      A                      A
 Frequencies --  1068.3039              1073.8719              1084.7654
 Red. masses --     4.0990                 3.4233                 3.5862
 Frc consts  --     2.7563                 2.3260                 2.4863
 IR Inten    --   120.7932               216.4306                36.5091
 Raman Activ --     4.6619                 4.6688                 2.9684

                    64                     65                     66
                     A                      A                      A
 Frequencies --  1092.4464              1101.1563              1107.4498
 Red. masses --     3.7024                 4.0805                 2.1599
 Frc consts  --     2.6033                 2.9152                 1.5608
 IR Inten    --    82.6222                47.1207                55.3242
 Raman Activ --     3.9296                11.9120                 1.3836

                    67                     68                     69
                     A                      A                      A
 Frequencies --  1113.5790              1119.4778              1125.9162
 Red. masses --     1.9124                 2.8767                 3.1022
 Frc consts  --     1.3973                 2.1241                 2.3170
 IR Inten    --    14.0467                 9.7568                22.6927
 Raman Activ --     5.3173                 7.1589                 3.1262

                    70                     71                     72
                     A                      A                      A
 Frequencies --  1135.6733              1143.4580              1158.1828
 Red. masses --     2.7573                 1.6666                 1.7047
 Frc consts  --     2.0953                 1.2839                 1.3473
 IR Inten    --    11.6655                14.6174                 9.8079
 Raman Activ --     6.3756                 4.9385                 2.5502

                    73                     74                     75
                     A                      A                      A
 Frequencies --  1170.4578              1192.1992              1199.7561
 Red. masses --     1.8126                 1.7645                 1.5599
 Frc consts  --     1.4631                 1.4776                 1.3229
 IR Inten    --     5.2946                 3.9702                13.0425
 Raman Activ --     5.7419                 1.8336                 4.1290

                    76                     77                     78
                     A                      A                      A
 Frequencies --  1203.3050              1206.9593              1218.7166
 Red. masses --     1.3502                 1.2926                 1.6828
 Frc consts  --     1.1519                 1.1094                 1.4726
 IR Inten    --    25.0942                11.6850                50.3935
 Raman Activ --     1.4243                 2.2610                 1.0310

                    79                     80                     81
                     A                      A                      A
 Frequencies --  1233.6591              1237.6648              1253.5898
 Red. masses --     1.2970                 1.2603                 1.2825
 Frc consts  --     1.1630                 1.1374                 1.1875
 IR Inten    --     3.2853                 6.6024                17.8676
 Raman Activ --     1.1589                 2.1356                 2.8781

                    82                     83                     84
                     A                      A                      A
 Frequencies --  1255.9595              1266.8184              1268.6428
 Red. masses --     1.4230                 1.2810                 1.4089
 Frc consts  --     1.3225                 1.2112                 1.3360
 IR Inten    --    31.9031                55.0071                12.0282
 Raman Activ --     2.1576                 3.0433                 2.7717

                    85                     86                     87
                     A                      A                      A
 Frequencies --  1285.8799              1293.0291              1296.5516
 Red. masses --     1.2337                 1.1777                 1.2931
 Frc consts  --     1.2019                 1.1602                 1.2808
 IR Inten    --    77.2524                 5.3066                 9.1052
 Raman Activ --     5.2127                 6.6225                 0.9356

                    88                     89                     90
                     A                      A                      A
 Frequencies --  1308.1954              1314.5993              1319.5033
 Red. masses --     1.4266                 1.3810                 1.1764
 Frc consts  --     1.4385                 1.4062                 1.2068
 IR Inten    --     6.8881                35.1044                16.2967
 Raman Activ --     2.7516                 8.9005                 8.5901

                    91                     92                     93
                     A                      A                      A
 Frequencies --  1332.1264              1339.4524              1345.1407
 Red. masses --     1.4312                 1.2795                 1.3182
 Frc consts  --     1.4964                 1.3526                 1.4053
 IR Inten    --     7.6307                80.6173                18.5485
 Raman Activ --     2.0618                 2.3314                 0.8680

                    94                     95                     96
                     A                      A                      A
 Frequencies --  1356.7914              1371.5085              1373.2512
 Red. masses --     1.4745                 1.3071                 1.6105
 Frc consts  --     1.5993                 1.4486                 1.7894
 IR Inten    --     3.1356                 4.3374                 9.7815
 Raman Activ --     6.3733                11.6509                 5.3268

                    97                     98                     99
                     A                      A                      A
 Frequencies --  1394.7169              1400.1373              1407.9071
 Red. masses --     1.3959                 1.3974                 1.2781
 Frc consts  --     1.5998                 1.6141                 1.4927
 IR Inten    --    12.5775                23.9808                 7.8533
 Raman Activ --     4.1980                 4.7154                 1.2244

                   100                    101                    102
                     A                      A                      A
 Frequencies --  1413.7030              1431.5455              1442.3784
 Red. masses --     1.5841                 1.4710                 1.5012
 Frc consts  --     1.8653                 1.7761                 1.8401
 IR Inten    --    10.3620                 8.7264                39.6971
 Raman Activ --     4.3194                 3.8462                 1.5042

                   103                    104                    105
                     A                      A                      A
 Frequencies --  1458.6605              1460.1063              1464.9908
 Red. masses --     1.3952                 1.0723                 1.3872
 Frc consts  --     1.7490                 1.3470                 1.7541
 IR Inten    --    14.8692                15.1607                33.5285
 Raman Activ --     2.3550                 5.7395                 1.0070

                   106                    107                    108
                     A                      A                      A
 Frequencies --  1483.8028              1500.0688              3254.9774
 Red. masses --     1.1009                 1.2962                 1.0788
 Frc consts  --     1.4281                 1.7185                 6.7340
 IR Inten    --     0.6003                44.2755                 7.1362
 Raman Activ --     4.4466                 1.5182                24.7722

                   109                    110                    111
                     A                      A                      A
 Frequencies --  3265.7771              3272.0837              3279.9948
 Red. masses --     1.0580                 1.0828                 1.0614
 Frc consts  --     6.6483                 6.8303                 6.7277
 IR Inten    --    44.1001                24.9918                52.3317
 Raman Activ --    86.3612                66.9740               151.1371

                   112                    113                    114
                     A                      A                      A
 Frequencies --  3291.2010              3291.6084              3301.4277
 Red. masses --     1.0832                 1.0845                 1.0809
 Frc consts  --     6.9127                 6.9231                 6.9413
 IR Inten    --    40.0143                 8.2366               197.7473
 Raman Activ --   146.2430                15.2958                63.7550

                   115                    116                    117
                     A                      A                      A
 Frequencies --  3306.0711              3309.0605              3310.7588
 Red. masses --     1.0872                 1.0800                 1.0833
 Frc consts  --     7.0017                 6.9679                 6.9962
 IR Inten    --    16.5962               277.1794               109.1672
 Raman Activ --    28.9380               112.8529                80.8307

                   118                    119                    120
                     A                      A                      A
 Frequencies --  3318.2399              3323.2909              3325.4567
 Red. masses --     1.1043                 1.0870                 1.0925
 Frc consts  --     7.1642                 7.0729                 7.1180
 IR Inten    --    60.3884                48.1918                16.0785
 Raman Activ --    41.5592                84.4510                54.3903

                   121                    122                    123
                     A                      A                      A
 Frequencies --  3325.9566              3330.7784              3366.5724
 Red. masses --     1.1004                 1.0867                 1.0678
 Frc consts  --     7.1721                 7.1033                 7.1302
 IR Inten    --    38.6570                42.3704               112.1943
 Raman Activ --    59.4620                11.8305               223.0797

                   124                    125                    126
                     A                      A                      A
 Frequencies --  3379.8102              3383.5398              3385.9071
 Red. masses --     1.0677                 1.0663                 1.0677
 Frc consts  --     7.1862                 7.1922                 7.2120
 IR Inten    --    57.6721                34.5747                49.6455
 Raman Activ --   124.8970               125.6331               170.5491

                   127                    128                    129
                     A                      A                      A
 Frequencies --  3386.7903              3914.7594              3918.5762
 Red. masses --     1.0658                 1.0678                 1.0674
 Frc consts  --     7.2028                 9.6414                 9.6572
 IR Inten    --    21.4911                69.0437                56.4267
 Raman Activ --   127.8155                93.5063               137.9238

 - Thermochemistry -
 -------------------
 Temperature   298.150 Kelvin.  Pressure   1.00000 Atm.
 Atom     1 has atomic number  8 and mass  15.99491

 Molecular mass:   342.11621 amu.
 Principal axes and moments of inertia in atomic units:
                           1         2         3
     Eigenvalues --  4480.64192********************
           X            0.99998  -0.00556  -0.00238
           Y            0.00557   0.99998   0.00415
           Z            0.00236  -0.00416   0.99999
 This molecule is an asymmetric top.
 Rotational symmetry number  1.
 Warning -- assumption of classical behavior for rotation
           may cause significant error
 Rotational temperatures (Kelvin)      0.01933     0.00700     0.00532
 Rotational constants (GHZ):           0.40279     0.14585     0.11090
    8 imaginary frequencies ignored.
 Zero-point vibrational energy     974870.9 (Joules/Mol)
                                  232.99974 (Kcal/Mol)
 Warning -- explicit consideration of  30 degrees of freedom as
           vibrations may cause significant error
 Vibrational temperatures:     15.07    60.66   101.69   150.90   162.30
          (Kelvin)            223.84   240.87   257.43   327.51   336.48
                              357.49   383.89   416.34   432.38   459.65
                              471.66   477.26   552.41   563.12   603.23
                              613.67   630.56   676.47   694.45   745.84
                              785.17   808.08   832.49   870.18   888.72
                              921.64   930.80   955.21   968.99  1015.21
                             1024.08  1072.05  1112.20  1204.62  1216.94
                             1223.99  1284.14  1332.76  1381.98  1420.56
                             1460.96  1461.96  1466.89  1470.79  1504.05
                             1511.96  1523.47  1537.05  1545.06  1560.73
                             1571.78  1584.32  1593.37  1602.19  1610.68
                             1619.94  1633.98  1645.18  1666.36  1684.03
                             1715.31  1726.18  1731.29  1736.54  1753.46
                             1774.96  1780.72  1803.63  1807.04  1822.67
                             1825.29  1850.09  1860.38  1865.45  1882.20
                             1891.41  1898.47  1916.63  1927.17  1935.35
                             1952.12  1973.29  1975.80  2006.68  2014.48
                             2025.66  2034.00  2059.67  2075.26  2098.68
                             2100.76  2107.79  2134.86  2158.26  4683.18
                             4698.72  4707.79  4719.17  4735.30  4735.88
                             4750.01  4756.69  4760.99  4763.44  4774.20
                             4781.47  4784.58  4785.30  4792.24  4843.74
                             4862.79  4868.15  4871.56  4872.83  5632.46
                             5637.95

 Zero-point correction=                           0.371309 (Hartree/Particle)
 Thermal correction to Energy=                    0.389226
 Thermal correction to Enthalpy=                  0.390170
 Thermal correction to Gibbs Free Energy=         0.324413
 Sum of electronic and zero-point Energies=          -1297.550178
 Sum of electronic and thermal Energies=             -1297.532260
 Sum of electronic and thermal Enthalpies=           -1297.531316
 Sum of electronic and thermal Free Energies=        -1297.597073

                     E (Thermal)             CV                S
                      KCal/Mol        Cal/Mol-Kelvin    Cal/Mol-Kelvin
 Total                  244.243             73.983            138.397
 Electronic               0.000              0.000              0.000
 Translational            0.889              2.981             43.384
 Rotational               0.889              2.981             35.155
 Vibrational            242.466             68.021             59.858
 Vibration     1          0.593              1.987              7.919
 Vibration     2          0.595              1.980              5.155
 Vibration     3          0.598              1.968              4.134
 Vibration     4          0.605              1.945              3.362
 Vibration     5          0.607              1.939              3.220
 Vibration     6          0.620              1.896              2.603
 Vibration     7          0.624              1.883              2.464
 Vibration     8          0.629              1.868              2.340
 Vibration     9          0.651              1.799              1.898
 Vibration    10          0.654              1.789              1.849
 Vibration    11          0.662              1.765              1.741
 Vibration    12          0.672              1.734              1.617
 Vibration    13          0.686              1.693              1.478
 Vibration    14          0.693              1.673              1.414
 Vibration    15          0.705              1.636              1.313
 Vibration    16          0.711              1.620              1.271
 Vibration    17          0.714              1.612              1.252
 Vibration    18          0.753              1.504              1.024
 Vibration    19          0.759              1.489              0.995
 Vibration    20          0.782              1.428              0.894
 Vibration    21          0.788              1.413              0.870
 Vibration    22          0.798              1.387              0.832
 Vibration    23          0.827              1.316              0.737
 Vibration    24          0.839              1.289              0.703
 Vibration    25          0.873              1.209              0.614
 Vibration    26          0.901              1.149              0.553
 Vibration    27          0.917              1.114              0.521
 Vibration    28          0.935              1.078              0.488
 Vibration    29          0.963              1.022              0.441
 Vibration    30          0.977              0.995              0.420

 Normal termination of Gaussian 09 at Tue Mar  1 16:12:20 2016.
