 Gaussian 09, Revision B.01,
 Gaussian 09:  EM64L-G09RevB.01 12-Aug-2010

 --------------------------------------------------
 # freq=raman b3lyp/6-31+g(2df,p) geom=connectivity
 --------------------------------------------------

 ------------
 500 8000.com
 ------------
 Symbolic Z-matrix:
 Charge =  0 Multiplicity = 1

                         Standard orientation:
 ---------------------------------------------------------------------
 Center     Atomic      Atomic             Coordinates (Angstroms)
 Number     Number       Type             X           Y           Z
 ---------------------------------------------------------------------
      1          8           0        5.085516   -0.512859   -0.329111
      2          6           0        3.856166   -0.000379    0.205085
      3          6           0        3.330761    1.254066   -0.473924
      4          8           0        4.248347    2.307256   -0.145521
      5          1           0        5.149880    1.974658   -0.421426
      6          6           0        1.997103    1.748664    0.061266
      7          8           0        1.411508    2.775258   -0.753430
      8          1           0        1.633771    3.664447   -0.353309
      9          6           0        3.078348   -2.472942    0.440555
     10          8           0        2.187512   -3.560710    0.151291
     11          1           0        2.461410   -4.434474    0.553766
     12          6           0        2.801984   -1.062996   -0.054537
     13          8           0        1.527012   -0.659748    0.466508
     14          6           0        1.024641    0.584868   -0.041643
     15          8           0       -0.198722    0.854768    0.657222
     16          6           0       -1.322889    0.250116    0.001432
     17          6           0       -1.571500   -1.220786    0.291947
     18          8           0       -0.557005   -2.029619   -0.322299
     19          1           0        0.294764   -1.698095    0.083285
     20          6           0       -2.905540   -1.540005   -0.362009
     21          8           0       -3.448184   -2.853376   -0.164205
     22          1           0       -2.977358   -3.481776   -0.784222
     23          6           0       -2.286941    2.612675    0.067124
     24          8           0       -3.388877    3.395657    0.546466
     25          1           0       -3.287888    4.365679    0.323337
     26          6           0       -2.470120    1.148721    0.433522
     27          8           0       -3.758196    0.729700   -0.038629
     28          6           0       -4.026766   -0.663996    0.173179
     29          8           0       -5.119852   -0.909371   -0.724403
     30          1           0       -5.946157   -0.886075   -0.236266
     31          1           0       -4.276894   -0.886603    1.189438
     32          1           0       -2.813246   -1.367768   -1.414015
     33          1           0       -1.613621   -1.398140    1.346305
     34          1           0       -1.191353    0.360519   -1.054698
     35          1           0       -2.505402    1.102278    1.501931
     36          1           0       -1.380316    2.974857    0.505023
     37          1           0       -2.225741    2.704677   -0.997155
     38          1           0        5.720727   -0.626104    0.381721
     39          1           0        3.161270   -2.415989    1.505815
     40          1           0        4.039463   -2.751070    0.061342
     41          1           0        2.694400   -1.129196   -1.117055
     42          1           0        3.955135    0.166602    1.257331
     43          1           0        3.283019    1.116661   -1.533990
     44          1           0        2.090860    2.075123    1.075926
     45          1           0        0.789324    0.446107   -1.076183
 ---------------------------------------------------------------------

 SCF Done:  E(RB3LYP) =  -1298.02052410     A.U. after   14 cycles

 The electronic state is 1-A.
 Alpha  occ. eigenvalues --  -19.19724 -19.19171 -19.18027 -19.17717 -19.17575
 Alpha  occ. eigenvalues --  -19.16258 -19.14291 -19.14194 -19.14124 -19.13994
 Alpha  occ. eigenvalues --  -19.12561 -10.30545 -10.27584 -10.27565 -10.26740
 Alpha  occ. eigenvalues --  -10.26656 -10.26422 -10.24883 -10.23970 -10.23108
 Alpha  occ. eigenvalues --  -10.22816 -10.22669 -10.22049  -1.10361  -1.07618
 Alpha  occ. eigenvalues --   -1.05863  -1.05404  -1.04297  -1.03404  -1.02382
 Alpha  occ. eigenvalues --   -1.01373  -1.00542  -0.99587  -0.98588  -0.82538
 Alpha  occ. eigenvalues --   -0.81538  -0.78282  -0.76648  -0.72286  -0.68911
 Alpha  occ. eigenvalues --   -0.67379  -0.64109  -0.63562  -0.62353  -0.60686
 Alpha  occ. eigenvalues --   -0.59039  -0.57171  -0.56484  -0.54978  -0.54243
 Alpha  occ. eigenvalues --   -0.53219  -0.52708  -0.52305  -0.51444  -0.50901
 Alpha  occ. eigenvalues --   -0.50227  -0.48998  -0.47568  -0.47023  -0.46414
 Alpha  occ. eigenvalues --   -0.45497  -0.44889  -0.44824  -0.43807  -0.43285
 Alpha  occ. eigenvalues --   -0.42267  -0.40847  -0.40450  -0.39774  -0.39442
 Alpha  occ. eigenvalues --   -0.38229  -0.37979  -0.37145  -0.36601  -0.35547
 Alpha  occ. eigenvalues --   -0.34958  -0.34805  -0.33371  -0.33364  -0.32873
 Alpha  occ. eigenvalues --   -0.32217  -0.31532  -0.30780  -0.30476  -0.29306
 Alpha  occ. eigenvalues --   -0.28936  -0.28478  -0.27217  -0.26994  -0.26120
 Alpha  occ. eigenvalues --   -0.25157
 Alpha virt. eigenvalues --   -0.03409  -0.01741  -0.01238  -0.00002   0.00649
 Alpha virt. eigenvalues --    0.01507   0.01585   0.02088   0.02313   0.03214
 Alpha virt. eigenvalues --    0.03710   0.04404   0.05135   0.05520   0.06229

 Mulliken atomic charges:
              1
     1  O   -0.458819
     2  C   -0.232898
     3  C    0.205804
     4  O   -0.478264
     5  H    0.345685
     6  C   -0.462871
     7  O   -0.431311
     8  H    0.352546
     9  C   -0.478327
    10  O   -0.452176
    11  H    0.354890
    12  C    0.305017
    13  O   -0.151455
    14  C    0.145932
    15  O    0.006391
    16  C    0.233560
    17  C    0.031797
    18  O   -0.463229
    19  H    0.428188
    20  C   -0.304197
    21  O   -0.422364
    22  H    0.346484
    23  C   -0.316433
    24  O   -0.445855
    25  H    0.338235
    26  C   -0.223797
    27  O   -0.050492
    28  C    0.068676
    29  O   -0.420625
    30  H    0.334296
    31  H    0.136109
    32  H    0.142028
    33  H    0.129152
    34  H    0.116695
    35  H    0.119493
    36  H    0.156437
    37  H    0.140671
    38  H    0.352413
    39  H    0.141418
    40  H    0.160026
    41  H    0.130496
    42  H    0.138861
    43  H    0.146663
    44  H    0.151303
    45  H    0.133847
 Sum of Mulliken atomic charges =   0.00000

 Dipole moment (field-independent basis, Debye):
    X=              8.0266    Y=              0.7020    Z=              2.3124  Tot=              8.3825
 Quadrupole moment (field-independent basis, Debye-Ang):
   XX=           -125.7522   YY=           -127.4588   ZZ=           -138.1361
   XY=             -7.2725   XZ=              4.3663   YZ=             -4.5885

  Exact polarizability: 224.019   1.478 204.666   0.648   0.079 144.046
 Approx polarizability: 265.654   0.549 264.723   0.387   3.313 240.231

 ******    7 imaginary frequencies (negative Signs) ******

                     1                      2                      3
                     A                      A                      A
 Frequencies --  -310.1783              -261.6607              -226.2908
 Red. masses --     1.7152                 1.0837                 1.9053
 Frc consts  --     0.0972                 0.0437                 0.0575
 IR Inten    --     5.7679                90.3194                 5.6227
 Raman Activ --     0.0596                 1.3266                 0.0808

                     4                      5                      6
                     A                      A                      A
 Frequencies --   -83.6139               -64.8581               -58.3143
 Red. masses --     1.4216                 6.1468                 5.3273
 Frc consts  --     0.0059                 0.0152                 0.0107
 IR Inten    --    90.3223                 0.6983                 5.7163
 Raman Activ --     0.5980                 0.0469                 0.0505

                     7                      8                      9
                     A                      A                      A
 Frequencies --   -17.9727                57.6571                65.3490
 Red. masses --     5.9539                 7.1598                 6.2438
 Frc consts  --     0.0011                 0.0140                 0.0157
 IR Inten    --     3.1958                 0.8118                 1.7048
 Raman Activ --     0.0713                 0.0647                 0.1084

                    10                     11                     12
                     A                      A                      A
 Frequencies --    82.6740                94.5929               110.0599
 Red. masses --     5.5751                 5.5681                 6.6038
 Frc consts  --     0.0225                 0.0294                 0.0471
 IR Inten    --     7.0521                 3.1671                 0.1261
 Raman Activ --     0.1220                 0.0335                 0.0991

                    13                     14                     15
                     A                      A                      A
 Frequencies --   131.0876               171.5129               186.0258
 Red. masses --     5.8701                 5.7549                 5.9891
 Frc consts  --     0.0594                 0.0997                 0.1221
 IR Inten    --     1.7778                 0.7003                 0.7873
 Raman Activ --     0.5894                 0.7981                 0.2502

                    16                     17                     18
                     A                      A                      A
 Frequencies --   201.8796               216.5707               263.9915
 Red. masses --     6.2811                 6.2514                 5.1126
 Frc consts  --     0.1508                 0.1728                 0.2099
 IR Inten    --     0.8735                 3.2069                 9.2401
 Raman Activ --     1.0955                 1.0969                 1.0259

                    19                     20                     21
                     A                      A                      A
 Frequencies --   271.2501               282.0338               307.3330
 Red. masses --     3.9950                 6.0595                 4.9152
 Frc consts  --     0.1732                 0.2840                 0.2735
 IR Inten    --     0.4836                 1.3449                 3.7384
 Raman Activ --     0.4382                 0.4861                 0.1910

                    22                     23                     24
                     A                      A                      A
 Frequencies --   319.2493               332.5933               333.6752
 Red. masses --     4.9811                 5.4465                 5.2644
 Frc consts  --     0.2991                 0.3550                 0.3453
 IR Inten    --     2.0997                 4.6208                 2.5172
 Raman Activ --     1.0092                 4.7048                 1.8538

                    25                     26                     27
                     A                      A                      A
 Frequencies --   346.7986               374.4133               382.9219
 Red. masses --     6.5555                 4.8796                 4.8933
 Frc consts  --     0.4645                 0.4030                 0.4227
 IR Inten    --     0.6800                 3.1033                 1.3261
 Raman Activ --     3.4903                 0.3461                 0.5214

                    28                     29                     30
                     A                      A                      A
 Frequencies --   414.0744               433.0989               442.2777
 Red. masses --     6.7341                 4.9808                 5.3719
 Frc consts  --     0.6803                 0.5505                 0.6191
 IR Inten    --     3.3358                15.3596                 0.6503
 Raman Activ --     6.7602                 2.3992                 0.2830

                    31                     32                     33
                     A                      A                      A
 Frequencies --   445.8061               482.2801               489.0486
 Red. masses --     4.4895                 3.8970                 4.3401
 Frc consts  --     0.5257                 0.5340                 0.6116
 IR Inten    --     8.6553                 6.6888                 6.4789
 Raman Activ --     1.7512                 0.9991                 0.6889

                    34                     35                     36
                     A                      A                      A
 Frequencies --   546.6325               548.5158               578.5897
 Red. masses --     4.2199                 3.8879                 4.6486
 Frc consts  --     0.7429                 0.6892                 0.9169
 IR Inten    --    17.5573                 7.6606                16.7011
 Raman Activ --     4.8029                 1.4725                 3.2436

                    37                     38                     39
                     A                      A                      A
 Frequencies --   586.5361               598.2096               616.0655
 Red. masses --     3.3949                 3.0885                 3.1616
 Frc consts  --     0.6881                 0.6512                 0.7070
 IR Inten    --     9.3559                33.4633                13.3978
 Raman Activ --     1.0061                 0.5763                 1.3877

                    40                     41                     42
                     A                      A                      A
 Frequencies --   630.3117               659.2574               665.4380
 Red. masses --     1.0990                 5.0435                 3.2867
 Frc consts  --     0.2572                 1.2915                 0.8575
 IR Inten    --   111.5783                 8.5173                49.6183
 Raman Activ --     1.5518                 0.1249                 0.1511

                    43                     44                     45
                     A                      A                      A
 Frequencies --   691.6025               703.9173               713.0978
 Red. masses --     1.0599                 1.0963                 1.0883
 Frc consts  --     0.2987                 0.3201                 0.3261
 IR Inten    --   104.4426               102.5408               103.4894
 Raman Activ --     2.4261                 1.7106                 1.5449

                    46                     47                     48
                     A                      A                      A
 Frequencies --   785.0620               841.2354               850.6534
 Red. masses --     1.0824                 2.5292                 2.4367
 Frc consts  --     0.3931                 1.0545                 1.0389
 IR Inten    --    95.4699                19.3382                 9.3608
 Raman Activ --     1.7668                 3.1109                 3.9398

                    49                     50                     51
                     A                      A                      A
 Frequencies --   893.7800               948.1619               964.6842
 Red. masses --     1.1406                 6.3854                 7.2489
 Frc consts  --     0.5368                 3.3822                 3.9746
 IR Inten    --    71.5183               117.5711               130.1824
 Raman Activ --     1.5382                 3.7547                 2.2124

                    52                     53                     54
                     A                      A                      A
 Frequencies --   977.0451               982.5173               984.7154
 Red. masses --     4.4124                 7.0826                 5.2999
 Frc consts  --     2.4817                 4.0283                 3.0279
 IR Inten    --    53.5997               383.9545                21.6685
 Raman Activ --     1.1364                 2.2196                 1.6925

                    55                     56                     57
                     A                      A                      A
 Frequencies --   991.5967              1006.4925              1019.4019
 Red. masses --     4.1897                 4.7541                 6.4633
 Frc consts  --     2.4272                 2.8375                 3.9572
 IR Inten    --    82.6751                83.4182               357.8598
 Raman Activ --     1.3407                 2.2501                 0.1141

                    58                     59                     60
                     A                      A                      A
 Frequencies --  1044.6620              1050.4164              1058.5303
 Red. masses --     3.1610                 3.3947                 3.1685
 Frc consts  --     2.0325                 2.2069                 2.0918
 IR Inten    --    87.9937                34.9871                94.9165
 Raman Activ --     4.7918                20.4116                 0.5658

                    61                     62                     63
                     A                      A                      A
 Frequencies --  1062.0347              1070.1821              1082.1082
 Red. masses --     4.7711                 4.4490                 2.6524
 Frc consts  --     3.1706                 3.0021                 1.8299
 IR Inten    --     4.5468                78.0989                60.1626
 Raman Activ --    10.9112                 2.2778                 5.9054

                    64                     65                     66
                     A                      A                      A
 Frequencies --  1086.1996              1089.5976              1097.8641
 Red. masses --     4.3612                 2.4561                 2.9692
 Frc consts  --     3.0316                 1.7180                 2.1086
 IR Inten    --     5.0064                58.5801                 4.7909
 Raman Activ --     2.5202                 2.3923                14.0021

                    67                     68                     69
                     A                      A                      A
 Frequencies --  1101.9542              1117.1236              1127.2704
 Red. masses --     2.6838                 2.4414                 2.0709
 Frc consts  --     1.9201                 1.7951                 1.5504
 IR Inten    --   104.5625                 4.9434                23.7708
 Raman Activ --     2.2236                 6.7661                 2.4690

                    70                     71                     72
                     A                      A                      A
 Frequencies --  1138.8688              1144.8648              1148.2626
 Red. masses --     2.4626                 1.7840                 3.3585
 Frc consts  --     1.8819                 1.3777                 2.6091
 IR Inten    --    51.7638                15.3889                12.9821
 Raman Activ --     2.1761                 2.9851                 2.3368

                    73                     74                     75
                     A                      A                      A
 Frequencies --  1162.1164              1169.3452              1175.9031
 Red. masses --     1.8155                 1.7049                 1.8813
 Frc consts  --     1.4446                 1.3735                 1.5327
 IR Inten    --    10.8435                 1.7816                 6.4658
 Raman Activ --     1.1583                 1.0040                 4.1870

                    76                     77                     78
                     A                      A                      A
 Frequencies --  1186.0226              1187.9372              1208.9151
 Red. masses --     1.3166                 1.4514                 1.2952
 Frc consts  --     1.0912                 1.2068                 1.1153
 IR Inten    --     1.1666                 8.5377                 5.8091
 Raman Activ --     0.9709                 2.1798                 1.4266

                    79                     80                     81
                     A                      A                      A
 Frequencies --  1215.9334              1221.2597              1249.3653
 Red. masses --     1.3060                 1.3011                 1.2722
 Frc consts  --     1.1377                 1.1434                 1.1700
 IR Inten    --    17.1539                 7.8855                 2.8417
 Raman Activ --     1.5216                 2.5481                 0.5088

                    82                     83                     84
                     A                      A                      A
 Frequencies --  1250.6199              1265.8122              1271.6537
 Red. masses --     1.1896                 1.1616                 1.3427
 Frc consts  --     1.0962                 1.0965                 1.2793
 IR Inten    --    14.9116                 4.8640                 7.5818
 Raman Activ --     6.3203                 4.0536                 2.0382

                    85                     86                     87
                     A                      A                      A
 Frequencies --  1282.0637              1283.5123              1296.1069
 Red. masses --     1.2353                 1.1944                 1.2648
 Frc consts  --     1.1963                 1.1593                 1.2519
 IR Inten    --    26.9585                12.9435                38.3872
 Raman Activ --     2.2115                 2.4599                 2.7695

                    88                     89                     90
                     A                      A                      A
 Frequencies --  1306.0643              1308.6508              1321.4477
 Red. masses --     1.3043                 1.4054                 1.3622
 Frc consts  --     1.3109                 1.4181                 1.4015
 IR Inten    --     7.0328                 8.0190                95.1668
 Raman Activ --     2.1910                 4.4068                 2.7657

                    91                     92                     93
                     A                      A                      A
 Frequencies --  1327.2921              1335.6208              1344.2199
 Red. masses --     1.2279                 1.3092                 1.4379
 Frc consts  --     1.2745                 1.3760                 1.5308
 IR Inten    --    10.9862                10.9229                17.3311
 Raman Activ --     2.7363                 9.8714                 0.9087

                    94                     95                     96
                     A                      A                      A
 Frequencies --  1348.0417              1351.8101              1356.8908
 Red. masses --     1.4398                 1.4875                 1.3320
 Frc consts  --     1.5416                 1.6016                 1.4449
 IR Inten    --     5.8731                15.8666                24.4228
 Raman Activ --     5.6441                 3.1958                 1.6955

                    97                     98                     99
                     A                      A                      A
 Frequencies --  1372.2000              1381.2403              1404.3783
 Red. masses --     1.5142                 1.4152                 1.3047
 Frc consts  --     1.6799                 1.5908                 1.5162
 IR Inten    --    11.8567                 2.9148                 6.9953
 Raman Activ --     3.8434                 7.1942                 7.4712

                   100                    101                    102
                     A                      A                      A
 Frequencies --  1428.8639              1434.6805              1435.4455
 Red. masses --     1.4262                 1.3594                 1.4167
 Frc consts  --     1.7156                 1.6485                 1.7199
 IR Inten    --     4.1450                20.1652                27.3829
 Raman Activ --     0.4571                 1.7081                 3.2385

                   103                    104                    105
                     A                      A                      A
 Frequencies --  1452.1847              1455.1039              1456.0535
 Red. masses --     1.4030                 1.0777                 1.0834
 Frc consts  --     1.7432                 1.3445                 1.3533
 IR Inten    --    35.0471                 2.4215                 0.5871
 Raman Activ --     4.5882                 5.3946                 5.0278

                   106                    107                    108
                     A                      A                      A
 Frequencies --  1464.4337              1525.6980              3235.8384
 Red. masses --     1.4052                 1.2249                 1.0672
 Frc consts  --     1.7755                 1.6799                 6.5838
 IR Inten    --    58.3805                36.4963               850.7972
 Raman Activ --     1.8451                 1.5798               139.9253

                   109                    110                    111
                     A                      A                      A
 Frequencies --  3253.7349              3257.5989              3262.6836
 Red. masses --     1.0605                 1.0623                 1.0750
 Frc consts  --     6.6147                 6.6422                 6.7423
 IR Inten    --    16.1745                37.7113                21.4931
 Raman Activ --   143.9797               112.0850                16.9749

                   112                    113                    114
                     A                      A                      A
 Frequencies --  3267.9630              3274.3180              3278.2621
 Red. masses --     1.0800                 1.0841                 1.0826
 Frc consts  --     6.7959                 6.8481                 6.8551
 IR Inten    --    21.8459                18.3713                 5.0780
 Raman Activ --    24.2181                11.0431                85.8088

                   115                    116                    117
                     A                      A                      A
 Frequencies --  3283.2667              3286.2105              3289.0823
 Red. masses --     1.0836                 1.0844                 1.0856
 Frc consts  --     6.8824                 6.8995                 6.9195
 IR Inten    --    23.9125                 2.1040                 9.2212
 Raman Activ --    82.1893               106.4665                94.7598

                   118                    119                    120
                     A                      A                      A
 Frequencies --  3294.6692              3301.8948              3303.8039
 Red. masses --     1.0871                 1.0866                 1.0988
 Frc consts  --     6.9526                 6.9800                 7.0664
 IR Inten    --     4.4781                65.4938                 9.7049
 Raman Activ --    16.4400                16.3102                45.2431

                   121                    122                    123
                     A                      A                      A
 Frequencies --  3308.6171              3320.8267              3348.3112
 Red. masses --     1.0893                 1.1072                 1.0674
 Frc consts  --     7.0256                 7.1940                 7.0505
 IR Inten    --    75.9442                40.4714                34.4262
 Raman Activ --    17.7537                37.6006               185.5271

                   124                    125                    126
                     A                      A                      A
 Frequencies --  3355.8048              3356.1291              3357.6273
 Red. masses --     1.0680                 1.0654                 1.0667
 Frc consts  --     7.0865                 7.0704                 7.0853
 IR Inten    --    68.3619                32.7313                41.9420
 Raman Activ --   167.8245               117.2852               108.5237

                   127                    128                    129
                     A                      A                      A
 Frequencies --  3367.6364              3874.5518              3874.6656
 Red. masses --     1.0675                 1.0676                 1.0673
 Frc consts  --     7.1331                 9.4424                 9.4411
 IR Inten    --    58.8756               114.4558                20.9903
 Raman Activ --   116.9252                35.1275               206.6232

 - Thermochemistry -
 -------------------
 Temperature   298.150 Kelvin.  Pressure   1.00000 Atm.
 Atom     1 has atomic number  8 and mass  15.99491

 Molecular mass:   342.11621 amu.
 Principal axes and moments of inertia in atomic units:
                           1         2         3
     Eigenvalues --  4706.82675********************
           X            0.99997  -0.00710   0.00084
           Y            0.00710   0.99997  -0.00323
           Z           -0.00082   0.00323   0.99999
 This molecule is an asymmetric top.
 Rotational symmetry number  1.
 Warning -- assumption of classical behavior for rotation
           may cause significant error
 Rotational temperatures (Kelvin)      0.01840     0.00749     0.00549
 Rotational constants (GHZ):           0.38343     0.15609     0.11442
    7 imaginary frequencies ignored.
 Zero-point vibrational energy     971559.7 (Joules/Mol)
                                  232.20834 (Kcal/Mol)
 Warning -- explicit consideration of  32 degrees of freedom as
           vibrations may cause significant error
 Vibrational temperatures:     82.96    94.02   118.95   136.10   158.35
          (Kelvin)            188.61   246.77   267.65   290.46   311.60
                              379.82   390.27   405.78   442.18   459.33
                              478.53   480.08   498.97   538.70   550.94
                              595.76   623.13   636.34   641.41   693.89
                              703.63   786.48   789.19   832.46   843.89
                              860.69   886.38   906.88   948.52   957.42
                              995.06  1012.78  1025.99  1129.53  1210.35
                             1223.90  1285.95  1364.19  1387.96  1405.75
                             1413.62  1416.78  1426.68  1448.12  1466.69
                             1503.03  1511.31  1522.99  1528.03  1539.75
                             1556.91  1562.80  1567.69  1579.58  1585.46
                             1607.29  1621.89  1638.58  1647.20  1652.09
                             1672.02  1682.42  1691.86  1706.42  1709.17
                             1739.36  1749.45  1757.12  1797.56  1799.36
                             1821.22  1829.62  1844.60  1846.69  1864.81
                             1879.13  1882.85  1901.27  1909.67  1921.66
                             1934.03  1939.53  1944.95  1952.26  1974.29
                             1987.29  2020.58  2055.81  2064.18  2065.28
                             2089.37  2093.57  2094.93  2106.99  2195.14
                             4655.64  4681.39  4686.95  4694.27  4701.86
                             4711.01  4716.68  4723.88  4728.12  4732.25
                             4740.29  4750.68  4753.43  4760.36  4777.92
                             4817.47  4828.25  4828.72  4830.87  4845.27
                             5574.61  5574.77

 Zero-point correction=                           0.370048 (Hartree/Particle)
 Thermal correction to Energy=                    0.388362
 Thermal correction to Enthalpy=                  0.389306
 Thermal correction to Gibbs Free Energy=         0.324671
 Sum of electronic and zero-point Energies=          -1297.650477
 Sum of electronic and thermal Energies=             -1297.632162
 Sum of electronic and thermal Enthalpies=           -1297.631218
 Sum of electronic and thermal Free Energies=        -1297.695853

                     E (Thermal)             CV                S
                      KCal/Mol        Cal/Mol-Kelvin    Cal/Mol-Kelvin
 Total                  243.701             76.080            136.037
 Electronic               0.000              0.000              0.000
 Translational            0.889              2.981             43.384
 Rotational               0.889              2.981             35.105
 Vibrational            241.923             70.119             57.547
 Vibration     1          0.596              1.974              4.536
 Vibration     2          0.597              1.971              4.289
 Vibration     3          0.600              1.961              3.826
 Vibration     4          0.603              1.953              3.563
 Vibration     5          0.606              1.941              3.268
 Vibration     6          0.612              1.922              2.930
 Vibration     7          0.626              1.878              2.419
 Vibration     8          0.632              1.859              2.267
 Vibration     9          0.639              1.837              2.116
 Vibration    10          0.645              1.816              1.988
 Vibration    11          0.671              1.739              1.635
 Vibration    12          0.675              1.726              1.588
 Vibration    13          0.681              1.707              1.521
 Vibration    14          0.697              1.660              1.377
 Vibration    15          0.705              1.637              1.314
 Vibration    16          0.715              1.610              1.247
 Vibration    17          0.715              1.608              1.242
 Vibration    18          0.725              1.582              1.181
 Vibration    19          0.746              1.525              1.062
 Vibration    20          0.752              1.507              1.028
 Vibration    21          0.778              1.440              0.912
 Vibration    22          0.794              1.398              0.849
 Vibration    23          0.802              1.378              0.819
 Vibration    24          0.805              1.370              0.809
 Vibration    25          0.839              1.289              0.704
 Vibration    26          0.845              1.274              0.686
 Vibration    27          0.902              1.147              0.551
 Vibration    28          0.904              1.143              0.547
 Vibration    29          0.935              1.078              0.488
 Vibration    30          0.944              1.061              0.473
 Vibration    31          0.956              1.036              0.453
 Vibration    32          0.976              0.998              0.423

 Normal termination of Gaussian 09 at Tue Feb 16 10:52:48 2016.
