 Gaussian 09, Revision B.01,
 Gaussian 09:  EM64L-G09RevB.01 12-Aug-2010

 --------------------------------------------------
 # freq=raman b3lyp/6-31+g(2df,p) geom=connectivity
 --------------------------------------------------

 -------------
 280 10000.com
 -------------
 Symbolic Z-matrix:
 Charge =  0 Multiplicity = 1

                         Standard orientation:
 ---------------------------------------------------------------------
 Center     Atomic      Atomic             Coordinates (Angstroms)
 Number     Number       Type             X           Y           Z
 ---------------------------------------------------------------------
      1          8           0        4.970641   -0.385638   -0.282612
      2          6           0        3.651133   -0.137246    0.224336
      3          6           0        3.256142    1.250716   -0.253177
      4          8           0        4.227403    2.268396    0.033871
      5          1           0        5.110430    1.948169   -0.309641
      6          6           0        1.823186    1.599515    0.114620
      7          8           0        1.300370    2.775821   -0.518590
      8          1           0        0.389575    2.884812   -0.119932
      9          6           0        3.055314   -2.581535    0.288689
     10          8           0        4.100592   -3.220642   -0.459609
     11          1           0        4.095953   -4.190645   -0.215746
     12          6           0        2.654138   -1.200874   -0.205056
     13          8           0        1.382738   -0.885678    0.382216
     14          6           0        0.949288    0.380762   -0.134720
     15          8           0       -0.263115    0.467864    0.627314
     16          6           0       -1.502487    0.250748   -0.061390
     17          6           0       -2.013466   -1.119103    0.354903
     18          8           0       -1.036165   -2.143781    0.127189
     19          1           0       -0.101401   -1.851361    0.330458
     20          6           0       -3.364775   -1.515941   -0.218254
     21          8           0       -3.908644   -2.753982    0.261990
     22          1           0       -4.766015   -3.052080   -0.156370
     23          6           0       -2.155810    2.613069   -0.086112
     24          8           0       -1.012379    3.252844    0.497379
     25          1           0       -1.138690    4.243189    0.554992
     26          6           0       -2.642210    1.209670    0.241213
     27          8           0       -3.910985    0.897702   -0.352588
     28          6           0       -4.348623   -0.397746    0.083741
     29          8           0       -5.542740   -0.446441   -0.710169
     30          1           0        5.555596   -0.611054    0.444447
     31          1           0        3.695202   -0.127894    1.293387
     32          1           0        3.250841    1.178711   -1.320739
     33          1           0        2.568623   -1.208076   -1.271609
     34          1           0        2.190729   -3.211355    0.261863
     35          1           0        3.376726   -2.493532    1.305473
     36          1           0        0.722304    0.295133   -1.176856
     37          1           0        1.809015    1.783813    1.168534
     38          1           0       -2.984383    3.262416    0.105500
     39          1           0       -1.991601    2.627054   -1.143344
     40          1           0       -2.791438    1.177969    1.300281
     41          1           0       -1.319168    0.249545   -1.115569
     42          1           0       -6.301219   -0.588021   -0.138972
     43          1           0       -4.592119   -0.379485    1.125507
     44          1           0       -3.263133   -1.590854   -1.280778
     45          1           0       -2.148516   -1.070388    1.415227
 ---------------------------------------------------------------------

 SCF Done:  E(RB3LYP) =  -1297.99935779     A.U. after   13 cycles

 The electronic state is 1-A.
 Alpha  occ. eigenvalues --  -19.19694 -19.19170 -19.18518 -19.17763 -19.17446
 Alpha  occ. eigenvalues --  -19.16744 -19.16316 -19.16226 -19.15001 -19.13323
 Alpha  occ. eigenvalues --  -19.12923 -10.30567 -10.30430 -10.26039 -10.25519
 Alpha  occ. eigenvalues --  -10.25518 -10.25481 -10.25162 -10.24968 -10.24294
 Alpha  occ. eigenvalues --  -10.24291 -10.24002 -10.23922  -1.10668  -1.09437
 Alpha  occ. eigenvalues --   -1.06375  -1.05116  -1.03818  -1.02966  -1.02646
 Alpha  occ. eigenvalues --   -1.02146  -1.01521  -1.00135  -0.99583  -0.82503
 Alpha  occ. eigenvalues --   -0.80483  -0.79365  -0.78412  -0.72052  -0.69932
 Alpha  occ. eigenvalues --   -0.67142  -0.64959  -0.63575  -0.62641  -0.61429
 Alpha  occ. eigenvalues --   -0.60176  -0.56472  -0.56152  -0.55471  -0.54549
 Alpha  occ. eigenvalues --   -0.54161  -0.53634  -0.52879  -0.51649  -0.51008
 Alpha  occ. eigenvalues --   -0.50741  -0.50232  -0.49535  -0.48702  -0.46958
 Alpha  occ. eigenvalues --   -0.46183  -0.45094  -0.44256  -0.43679  -0.42916
 Alpha  occ. eigenvalues --   -0.42578  -0.41704  -0.40973  -0.40330  -0.39956
 Alpha  occ. eigenvalues --   -0.39026  -0.37632  -0.37255  -0.36150  -0.35649
 Alpha  occ. eigenvalues --   -0.35081  -0.34501  -0.34138  -0.33827  -0.33325
 Alpha  occ. eigenvalues --   -0.32743  -0.31740  -0.30697  -0.30571  -0.29702
 Alpha  occ. eigenvalues --   -0.29428  -0.28705  -0.28317  -0.27451  -0.27001
 Alpha  occ. eigenvalues --   -0.26015
 Alpha virt. eigenvalues --   -0.02330  -0.01770  -0.01709  -0.00058   0.00235
 Alpha virt. eigenvalues --    0.00901   0.01820   0.02200   0.02928   0.03532
 Alpha virt. eigenvalues --    0.03706   0.04229   0.04783   0.05257   0.05512

 Mulliken atomic charges:
              1
     1  O   -0.448980
     2  C    0.003593
     3  C    0.016961
     4  O   -0.463237
     5  H    0.354550
     6  C   -0.270364
     7  O   -0.493873
     8  H    0.466680
     9  C   -0.247588
    10  O   -0.434305
    11  H    0.341666
    12  C   -0.149605
    13  O   -0.043098
    14  C    0.144071
    15  O   -0.000519
    16  C    0.030522
    17  C    0.076362
    18  O   -0.515117
    19  H    0.419748
    20  C   -0.017072
    21  O   -0.467613
    22  H    0.353791
    23  C   -0.490076
    24  O   -0.514800
    25  H    0.383024
    26  C   -0.096100
    27  O   -0.036654
    28  C   -0.017545
    29  O   -0.463767
    30  H    0.349565
    31  H    0.126426
    32  H    0.121245
    33  H    0.129420
    34  H    0.150552
    35  H    0.140844
    36  H    0.132429
    37  H    0.136007
    38  H    0.145146
    39  H    0.165028
    40  H    0.125141
    41  H    0.120734
    42  H    0.342284
    43  H    0.135482
    44  H    0.137324
    45  H    0.121717
 Sum of Mulliken atomic charges =   0.00000

 Dipole moment (field-independent basis, Debye):
    X=             -2.2303    Y=             -0.1984    Z=              2.4350  Tot=              3.3080
 Quadrupole moment (field-independent basis, Debye-Ang):
   XX=           -118.2243   YY=           -134.0162   ZZ=           -140.3337
   XY=            -15.7806   XZ=              1.7513   YZ=              1.3287

  Exact polarizability: 236.029   2.364 198.082   0.046  -0.733 143.946
 Approx polarizability: 276.998   2.494 258.295  -0.890  -1.822 240.943

 ******    6 imaginary frequencies (negative Signs) ******

                     1                      2                      3
                     A                      A                      A
 Frequencies --  -316.6120              -255.0401              -217.4926
 Red. masses --     1.6493                 1.7244                 1.1950
 Frc consts  --     0.0974                 0.0661                 0.0333
 IR Inten    --     2.5315                25.1942               100.3783
 Raman Activ --     0.0048                 0.1511                 0.7257

                     4                      5                      6
                     A                      A                      A
 Frequencies --  -180.9275               -63.9159               -50.0531
 Red. masses --     1.2772                 7.0105                 5.7758
 Frc consts  --     0.0246                 0.0169                 0.0085
 IR Inten    --    74.7917                 2.0336                 0.2991
 Raman Activ --     0.5848                 0.0272                 0.0289

                     7                      8                      9
                     A                      A                      A
 Frequencies --    21.1771                52.9929                83.0105
 Red. masses --     6.4267                 6.0880                 6.5541
 Frc consts  --     0.0017                 0.0101                 0.0266
 IR Inten    --     2.0586                 1.9152                 5.4034
 Raman Activ --     0.0343                 0.0378                 0.0809

                    10                     11                     12
                     A                      A                      A
 Frequencies --    96.0700                99.7125               110.6830
 Red. masses --     5.9115                 6.0612                 6.0595
 Frc consts  --     0.0321                 0.0355                 0.0437
 IR Inten    --     3.3410                 0.7535                 4.0330
 Raman Activ --     0.2791                 0.0973                 0.2211

                    13                     14                     15
                     A                      A                      A
 Frequencies --   166.4732               176.4321               187.4690
 Red. masses --     6.4492                 5.5042                 7.0320
 Frc consts  --     0.1053                 0.1009                 0.1456
 IR Inten    --     3.0578                 3.3934                 0.2678
 Raman Activ --     0.4592                 0.3950                 0.5948

                    16                     17                     18
                     A                      A                      A
 Frequencies --   216.9825               240.7008               275.6792
 Red. masses --     7.0428                 6.0616                 4.6460
 Frc consts  --     0.1954                 0.2069                 0.2080
 IR Inten    --     0.4251                 1.7711                12.1060
 Raman Activ --     3.0268                 0.4025                 0.5968

                    19                     20                     21
                     A                      A                      A
 Frequencies --   279.6526               295.5335               299.3587
 Red. masses --     5.3910                 5.1556                 5.8096
 Frc consts  --     0.2484                 0.2653                 0.3067
 IR Inten    --     2.9399                 1.0245                 5.9024
 Raman Activ --     0.2987                 0.1431                 2.4866

                    22                     23                     24
                     A                      A                      A
 Frequencies --   313.5351               314.4959               324.5594
 Red. masses --     4.6395                 5.2064                 6.5259
 Frc consts  --     0.2687                 0.3034                 0.4050
 IR Inten    --     9.9332                 2.8978                 1.6855
 Raman Activ --     0.5615                 1.4870                 3.8275

                    25                     26                     27
                     A                      A                      A
 Frequencies --   348.4121               368.6316               381.0706
 Red. masses --     6.1062                 7.5224                 5.4355
 Frc consts  --     0.4367                 0.6023                 0.4651
 IR Inten    --    10.2834                 0.7319                11.2230
 Raman Activ --     1.7630                 1.7161                 0.2118

                    28                     29                     30
                     A                      A                      A
 Frequencies --   399.5856               423.6458               434.6674
 Red. masses --     4.5762                 4.7575                 5.9911
 Frc consts  --     0.4305                 0.5031                 0.6669
 IR Inten    --    13.0139                 4.4364                 2.5800
 Raman Activ --     1.9204                 7.3737                 2.2795

                    31                     32                     33
                     A                      A                      A
 Frequencies --   441.9023               466.6333               484.4794
 Red. masses --     4.6255                 4.0621                 4.3744
 Frc consts  --     0.5322                 0.5211                 0.6050
 IR Inten    --     3.6902                 6.5569                12.9945
 Raman Activ --     0.5206                 4.8473                 1.2502

                    34                     35                     36
                     A                      A                      A
 Frequencies --   500.1546               520.8637               557.3891
 Red. masses --     4.4075                 3.2034                 3.6306
 Frc consts  --     0.6496                 0.5121                 0.6646
 IR Inten    --    10.0464                11.3162                11.2298
 Raman Activ --     3.3625                 4.3230                 0.9833

                    37                     38                     39
                     A                      A                      A
 Frequencies --   576.9494               587.4463               617.6002
 Red. masses --     2.7576                 6.2574                 3.9937
 Frc consts  --     0.5408                 1.2723                 0.8975
 IR Inten    --    33.6707                 7.8270                 8.7540
 Raman Activ --     0.9921                 0.4609                 0.4431

                    40                     41                     42
                     A                      A                      A
 Frequencies --   641.8000               665.8276               695.9125
 Red. masses --     6.3174                 1.0482                 1.2406
 Frc consts  --     1.5332                 0.2738                 0.3540
 IR Inten    --    39.5965                84.7251               108.9185
 Raman Activ --     0.5961                 1.9477                 1.6795

                    43                     44                     45
                     A                      A                      A
 Frequencies --   701.3010               718.7191               755.7440
 Red. masses --     3.4205                 1.0690                 1.0718
 Frc consts  --     0.9912                 0.3253                 0.3607
 IR Inten    --    21.2476               102.2358               102.6317
 Raman Activ --     2.8906                 1.9964                 1.7659

                    46                     47                     48
                     A                      A                      A
 Frequencies --   787.7820               846.5405               858.2717
 Red. masses --     1.0614                 1.6324                 1.7782
 Frc consts  --     0.3881                 0.6893                 0.7718
 IR Inten    --    89.5193                 7.2927                 3.3857
 Raman Activ --     1.3443                 0.2437                 1.0257

                    49                     50                     51
                     A                      A                      A
 Frequencies --   925.1443               948.6545               953.8490
 Red. masses --     6.1366                 1.3157                 5.8341
 Frc consts  --     3.0945                 0.6976                 3.1274
 IR Inten    --    95.2163                66.8968               104.8459
 Raman Activ --     3.1496                 0.5175                 1.3971

                    52                     53                     54
                     A                      A                      A
 Frequencies --   978.1375               987.3558               991.6383
 Red. masses --     4.8343                 4.9056                 4.9853
 Frc consts  --     2.7251                 2.8176                 2.8883
 IR Inten    --     9.4498               194.4121               133.3065
 Raman Activ --     1.8636                 0.6552                 0.6695

                    55                     56                     57
                     A                      A                      A
 Frequencies --  1004.3746              1015.0307              1021.0348
 Red. masses --     4.5443                 6.1086                 6.1847
 Frc consts  --     2.7009                 3.7081                 3.7988
 IR Inten    --   246.1880                 6.9409                87.1212
 Raman Activ --     4.8764                 3.0788                 2.8543

                    58                     59                     60
                     A                      A                      A
 Frequencies --  1034.6990              1050.2986              1062.0721
 Red. masses --     5.9443                 5.5162                 6.0244
 Frc consts  --     3.7495                 3.5852                 4.0038
 IR Inten    --   349.3920                61.6521               138.9281
 Raman Activ --     1.7738                 5.3321                 1.8494

                    61                     62                     63
                     A                      A                      A
 Frequencies --  1069.3699              1078.6580              1082.9400
 Red. masses --     3.2819                 3.7157                 3.6741
 Frc consts  --     2.2112                 2.5471                 2.5387
 IR Inten    --     0.1589                18.1774                31.6701
 Raman Activ --     8.4582                 9.4856                 6.6228

                    64                     65                     66
                     A                      A                      A
 Frequencies --  1104.6995              1110.4193              1117.4420
 Red. masses --     2.7685                 2.3639                 3.1365
 Frc consts  --     1.9906                 1.7174                 2.3076
 IR Inten    --    43.1254                84.9981                52.2986
 Raman Activ --    12.8385                10.3409                 5.5231

                    67                     68                     69
                     A                      A                      A
 Frequencies --  1119.4023              1122.5214              1134.9239
 Red. masses --     2.5594                 2.6856                 2.3297
 Frc consts  --     1.8896                 1.9938                 1.7680
 IR Inten    --    21.0870                 0.3361                 8.7727
 Raman Activ --     4.1646                 3.5803                 3.6651

                    70                     71                     72
                     A                      A                      A
 Frequencies --  1143.7142              1153.3960              1161.1326
 Red. masses --     2.5485                 1.7666                 2.1483
 Frc consts  --     1.9641                 1.3847                 1.7065
 IR Inten    --    44.0873                19.7198                10.6433
 Raman Activ --     2.6084                 2.4156                 5.0275

                    73                     74                     75
                     A                      A                      A
 Frequencies --  1163.7048              1169.4586              1184.4194
 Red. masses --     1.9415                 1.8510                 2.2992
 Frc consts  --     1.5491                 1.4915                 1.9004
 IR Inten    --     5.5668                 2.0598                 5.3978
 Raman Activ --     2.0230                 4.9742                 1.3211

                    76                     77                     78
                     A                      A                      A
 Frequencies --  1200.1923              1208.5063              1230.9797
 Red. masses --     1.2894                 1.4822                 1.1659
 Frc consts  --     1.0943                 1.2754                 1.0409
 IR Inten    --    12.0520                16.2512                 7.7099
 Raman Activ --     3.1342                 3.1576                 1.5457

                    79                     80                     81
                     A                      A                      A
 Frequencies --  1233.7389              1242.1905              1249.3160
 Red. masses --     1.2740                 1.3452                 1.2620
 Frc consts  --     1.1425                 1.2229                 1.1605
 IR Inten    --    10.7530                 8.3688                35.8399
 Raman Activ --     1.4234                 0.9941                 1.7181

                    82                     83                     84
                     A                      A                      A
 Frequencies --  1273.3398              1281.6371              1285.7633
 Red. masses --     1.1866                 1.2511                 1.3722
 Frc consts  --     1.1336                 1.2108                 1.3365
 IR Inten    --     4.8878                 9.4696                22.4522
 Raman Activ --     2.5379                 1.2626                 3.6463

                    85                     86                     87
                     A                      A                      A
 Frequencies --  1293.0650              1299.5755              1304.1424
 Red. masses --     1.2893                 1.2722                 1.2480
 Frc consts  --     1.2701                 1.2660                 1.2506
 IR Inten    --    23.4152                14.1662                11.6573
 Raman Activ --     1.1054                 1.5873                 5.8130

                    88                     89                     90
                     A                      A                      A
 Frequencies --  1314.1535              1325.0583              1328.8348
 Red. masses --     1.3270                 1.2462                 1.2158
 Frc consts  --     1.3502                 1.2892                 1.2648
 IR Inten    --    33.9480                27.3981                19.7340
 Raman Activ --     3.4947                 5.0122                 7.8179

                    91                     92                     93
                     A                      A                      A
 Frequencies --  1333.3738              1339.7692              1352.5764
 Red. masses --     1.2530                 1.2365                 1.4390
 Frc consts  --     1.3125                 1.3076                 1.5511
 IR Inten    --    35.0154                 9.4512                11.5700
 Raman Activ --     4.7923                 5.3646                 3.6248

                    94                     95                     96
                     A                      A                      A
 Frequencies --  1361.0875              1364.9911              1367.7680
 Red. masses --     1.3013                 1.5242                 1.2783
 Frc consts  --     1.4203                 1.6732                 1.4090
 IR Inten    --     2.8904                38.0361                11.3674
 Raman Activ --     2.8430                 7.2236                 2.7298

                    97                     98                     99
                     A                      A                      A
 Frequencies --  1371.7494              1377.8684              1381.7914
 Red. masses --     1.1813                 1.4468                 1.5841
 Frc consts  --     1.3097                 1.6184                 1.7821
 IR Inten    --    16.0836                 5.4249                22.2574
 Raman Activ --     7.1769                 6.8430                 0.6775

                   100                    101                    102
                     A                      A                      A
 Frequencies --  1394.2810              1437.2509              1450.5821
 Red. masses --     1.4755                 1.4068                 1.3437
 Frc consts  --     1.6900                 1.7121                 1.6659
 IR Inten    --     3.9687                36.7001                21.8130
 Raman Activ --     7.1272                 2.0518                 1.2462

                   103                    104                    105
                     A                      A                      A
 Frequencies --  1458.2508              1461.8073              1463.8973
 Red. masses --     1.3560                 1.1682                 1.0855
 Frc consts  --     1.6989                 1.4707                 1.3706
 IR Inten    --    38.5041                11.3924                 4.6023
 Raman Activ --     2.8054                 4.2857                 4.0119

                   106                    107                    108
                     A                      A                      A
 Frequencies --  1471.2077              1538.5752              3180.3538
 Red. masses --     1.2381                 1.2038                 1.0686
 Frc consts  --     1.5789                 1.6789                 6.3683
 IR Inten    --     4.0219                37.0571              1143.7470
 Raman Activ --     1.3709                 0.9524               172.7563

                   109                    110                    111
                     A                      A                      A
 Frequencies --  3251.9120              3252.0796              3254.8972
 Red. masses --     1.0686                 1.0672                 1.0696
 Frc consts  --     6.6579                 6.6498                 6.6767
 IR Inten    --   128.0196                67.0476               146.5740
 Raman Activ --    26.8105                20.7064               381.0828

                   112                    113                    114
                     A                      A                      A
 Frequencies --  3255.3093              3259.5856              3268.5328
 Red. masses --     1.0715                 1.0747                 1.0743
 Frc consts  --     6.6899                 6.7276                 6.7623
 IR Inten    --    34.8611                82.9877               438.5452
 Raman Activ --    31.5956                46.7910               106.4924

                   115                    116                    117
                     A                      A                      A
 Frequencies --  3272.4080              3277.8695              3280.0780
 Red. masses --     1.0823                 1.0837                 1.0832
 Frc consts  --     6.8289                 6.8601                 6.8661
 IR Inten    --    14.3723                12.1107                48.9600
 Raman Activ --     3.5796               112.0647                23.1424

                   118                    119                    120
                     A                      A                      A
 Frequencies --  3282.4097              3287.4213              3295.0736
 Red. masses --     1.0851                 1.0859                 1.0873
 Frc consts  --     6.8880                 6.9144                 6.9555
 IR Inten    --    36.6826                13.8458                 4.2268
 Raman Activ --   109.3448                22.7680                17.9688

                   121                    122                    123
                     A                      A                      A
 Frequencies --  3297.1287              3305.9109              3310.1041
 Red. masses --     1.0875                 1.1021                 1.1050
 Frc consts  --     6.9652                 7.0965                 7.1336
 IR Inten    --   123.8161                69.5694                58.2172
 Raman Activ --    21.6610                37.6693                31.4150

                   124                    125                    126
                     A                      A                      A
 Frequencies --  3355.9584              3358.8119              3363.1805
 Red. masses --     1.0674                 1.0653                 1.0683
 Frc consts  --     7.0829                 7.0807                 7.1196
 IR Inten    --    38.8235                49.4590                93.5401
 Raman Activ --   155.7462               115.5616               133.8323

                   127                    128                    129
                     A                      A                      A
 Frequencies --  3365.2728              3874.3809              3877.2025
 Red. masses --     1.0674                 1.0676                 1.0674
 Frc consts  --     7.1225                 9.4418                 9.4540
 IR Inten    --    48.0931                72.9922                64.2867
 Raman Activ --   190.7111                85.2144               129.3284

 - Thermochemistry -
 -------------------
 Temperature   298.150 Kelvin.  Pressure   1.00000 Atm.
 Atom     1 has atomic number  8 and mass  15.99491

 Molecular mass:   342.11621 amu.
 Principal axes and moments of inertia in atomic units:
                           1         2         3
     Eigenvalues --  4391.48260********************
           X            0.99997  -0.00760   0.00006
           Y            0.00760   0.99997  -0.00167
           Z           -0.00004   0.00167   1.00000
 This molecule is an asymmetric top.
 Rotational symmetry number  1.
 Warning -- assumption of classical behavior for rotation
           may cause significant error
 Rotational temperatures (Kelvin)      0.01972     0.00704     0.00532
 Rotational constants (GHZ):           0.41096     0.14677     0.11094
    6 imaginary frequencies ignored.
 Zero-point vibrational energy     973446.5 (Joules/Mol)
                                  232.65929 (Kcal/Mol)
 Warning -- explicit consideration of  33 degrees of freedom as
           vibrations may cause significant error
 Vibrational temperatures:     30.47    76.24   119.43   138.22   143.46
          (Kelvin)            159.25   239.52   253.85   269.73   312.19
                              346.31   396.64   402.36   425.21   430.71
                              451.11   452.49   466.97   501.29   530.38
                              548.27   574.91   609.53   625.39   635.80
                              671.38   697.06   719.61   749.41   801.96
                              830.10   845.20   888.59   923.41   957.98
                             1001.26  1009.01  1034.08  1087.35  1133.44
                             1217.98  1234.86  1331.07  1364.90  1372.37
                             1407.32  1420.58  1426.74  1445.07  1460.40
                             1469.04  1488.70  1511.14  1528.08  1538.58
                             1551.95  1558.11  1589.41  1597.64  1607.75
                             1610.57  1615.06  1632.90  1645.55  1659.48
                             1670.61  1674.31  1682.59  1704.11  1726.81
                             1738.77  1771.10  1775.07  1787.23  1797.48
                             1832.05  1843.99  1849.92  1860.43  1869.80
                             1876.37  1890.77  1906.46  1911.89  1918.43
                             1927.63  1946.05  1958.30  1963.92  1967.91
                             1973.64  1982.44  1988.09  2006.06  2067.88
                             2087.06  2098.10  2103.21  2106.22  2116.74
                             2213.66  4575.81  4678.77  4679.01  4683.07
                             4683.66  4689.81  4702.68  4708.26  4716.12
                             4719.29  4722.65  4729.86  4740.87  4743.83
                             4756.46  4762.50  4828.47  4832.58  4838.86
                             4841.87  5574.36  5578.42

 Zero-point correction=                           0.370766 (Hartree/Particle)
 Thermal correction to Energy=                    0.389831
 Thermal correction to Enthalpy=                  0.390775
 Thermal correction to Gibbs Free Energy=         0.323673
 Sum of electronic and zero-point Energies=          -1297.628592
 Sum of electronic and thermal Energies=             -1297.609527
 Sum of electronic and thermal Enthalpies=           -1297.608582
 Sum of electronic and thermal Free Energies=        -1297.675684

                     E (Thermal)             CV                S
                      KCal/Mol        Cal/Mol-Kelvin    Cal/Mol-Kelvin
 Total                  244.623             77.779            141.228
 Electronic               0.000              0.000              0.000
 Translational            0.889              2.981             43.384
 Rotational               0.889              2.981             35.128
 Vibrational            242.845             71.817             62.715
 Vibration     1          0.593              1.985              6.521
 Vibration     2          0.596              1.976              4.702
 Vibration     3          0.600              1.961              3.818
 Vibration     4          0.603              1.952              3.533
 Vibration     5          0.604              1.949              3.460
 Vibration     6          0.607              1.941              3.257
 Vibration     7          0.624              1.884              2.475
 Vibration     8          0.628              1.871              2.366
 Vibration     9          0.632              1.857              2.253
 Vibration    10          0.646              1.815              1.984
 Vibration    11          0.658              1.778              1.798
 Vibration    12          0.677              1.718              1.560
 Vibration    13          0.680              1.711              1.536
 Vibration    14          0.690              1.682              1.442
 Vibration    15          0.692              1.675              1.420
 Vibration    16          0.701              1.648              1.344
 Vibration    17          0.702              1.646              1.339
 Vibration    18          0.709              1.626              1.287
 Vibration    19          0.726              1.578              1.173
 Vibration    20          0.741              1.537              1.085
 Vibration    21          0.751              1.511              1.035
 Vibration    22          0.766              1.471              0.964
 Vibration    23          0.786              1.419              0.880
 Vibration    24          0.795              1.395              0.844
 Vibration    25          0.802              1.379              0.821
 Vibration    26          0.824              1.324              0.747
 Vibration    27          0.841              1.284              0.698
 Vibration    28          0.856              1.250              0.658
 Vibration    29          0.876              1.204              0.608
 Vibration    30          0.913              1.124              0.529
 Vibration    31          0.933              1.081              0.491
 Vibration    32          0.945              1.059              0.472
 Vibration    33          0.977              0.995              0.420

 Normal termination of Gaussian 09 at Tue Feb 23 11:42:42 2016.
