 Gaussian 09, Revision B.01,
 Gaussian 09:  EM64L-G09RevB.01 12-Aug-2010

 -------------------------------------------------
 # freq=raman b3lyp/6-31+g(2d,p) geom=connectivity
 -------------------------------------------------

 -----------------
 483 7000/7000.com
 -----------------
 Symbolic Z-matrix:
 Charge =  0 Multiplicity = 1

                         Standard orientation:
 ---------------------------------------------------------------------
 Center     Atomic      Atomic             Coordinates (Angstroms)
 Number     Number       Type             X           Y           Z
 ---------------------------------------------------------------------
      1          8           0        4.946073   -0.332412   -0.327119
      2          6           0        3.670907   -0.043402    0.262791
      3          6           0        3.139006    1.248326   -0.337123
      4          8           0        4.095244    2.290889   -0.096563
      5          1           0        4.991739    1.928179   -0.349596
      6          6           0        1.708267    1.660786   -0.030000
      7          8           0        1.093865    2.796519   -0.658001
      8          1           0        0.270281    3.009883   -0.133384
      9          6           0        3.178474   -2.514004    0.295872
     10          8           0        4.373657   -3.288494    0.122319
     11          1           0        4.221819   -4.272848    0.033404
     12          6           0        2.762118   -1.153060   -0.238922
     13          8           0        1.471707   -0.776137    0.261145
     14          6           0        0.871431    0.415493   -0.269133
     15          8           0       -0.283416    0.539968    0.572850
     16          6           0       -1.526681    0.312500   -0.105590
     17          6           0       -1.942822   -1.098025    0.279807
     18          8           0       -1.067660   -2.104942   -0.249066
     19          1           0       -0.135578   -1.938192    0.072160
     20          6           0       -3.305866   -1.613952   -0.151465
     21          8           0       -3.818820   -2.858966    0.342348
     22          1           0       -4.626116   -3.158991   -0.165680
     23          6           0       -2.343597    2.721635    0.228578
     24          8           0       -1.111664    3.272386    0.715726
     25          1           0       -1.077004    4.271502    0.742857
     26          6           0       -2.650918    1.237052    0.332133
     27          8           0       -3.839668    0.846411   -0.370918
     28          6           0       -4.276823   -0.459391    0.033144
     29          8           0       -5.451179   -0.796993   -0.719834
     30          1           0       -6.148202   -1.071658   -0.119568
     31          1           0       -4.544642   -0.413454    1.068066
     32          1           0       -3.226760   -1.753426   -1.209382
     33          1           0       -1.899809   -1.159970    1.347146
     34          1           0       -1.386325    0.377961   -1.164323
     35          1           0       -2.826797    1.035803    1.368215
     36          1           0       -3.133599    3.236715    0.734038
     37          1           0       -2.408672    2.979090   -0.807946
     38          1           0        5.575402   -0.553289    0.363358
     39          1           0        3.090499   -2.411160    1.357278
     40          1           0        2.397963   -3.168701   -0.031351
     41          1           0        2.752472   -1.164722   -1.308815
     42          1           0        3.715716   -0.008651    1.331287
     43          1           0        3.155693    1.089286   -1.395106
     44          1           0        1.675001    1.853515    1.021974
     45          1           0        0.600837    0.303540   -1.298280
 ---------------------------------------------------------------------

 SCF Done:  E(RB3LYP) =  -1297.94794238     A.U. after   13 cycles

 The electronic state is 1-A.
 Alpha  occ. eigenvalues --  -19.19653 -19.18727 -19.18010 -19.17583 -19.17432
 Alpha  occ. eigenvalues --  -19.16938 -19.16464 -19.16458 -19.14311 -19.13905
 Alpha  occ. eigenvalues --  -19.13573 -10.30155 -10.30149 -10.26801 -10.26196
 Alpha  occ. eigenvalues --  -10.25503 -10.25479 -10.24836 -10.24374 -10.24312
 Alpha  occ. eigenvalues --  -10.24067 -10.24024 -10.23845  -1.09879  -1.08959
 Alpha  occ. eigenvalues --   -1.06245  -1.05438  -1.03911  -1.03639  -1.02616
 Alpha  occ. eigenvalues --   -1.02393  -1.01397  -1.00589  -0.99998  -0.82322
 Alpha  occ. eigenvalues --   -0.79998  -0.79411  -0.78445  -0.72645  -0.70417
 Alpha  occ. eigenvalues --   -0.66812  -0.64741  -0.63678  -0.62628  -0.61223
 Alpha  occ. eigenvalues --   -0.60085  -0.56337  -0.55981  -0.55284  -0.54689
 Alpha  occ. eigenvalues --   -0.53856  -0.53531  -0.52816  -0.52626  -0.51595
 Alpha  occ. eigenvalues --   -0.50709  -0.50091  -0.49628  -0.48936  -0.46724
 Alpha  occ. eigenvalues --   -0.46130  -0.44973  -0.44278  -0.43848  -0.42867
 Alpha  occ. eigenvalues --   -0.42628  -0.41990  -0.41469  -0.40618  -0.39399
 Alpha  occ. eigenvalues --   -0.38063  -0.37349  -0.37272  -0.36560  -0.35970
 Alpha  occ. eigenvalues --   -0.35143  -0.34229  -0.33950  -0.33628  -0.33239
 Alpha  occ. eigenvalues --   -0.32441  -0.31495  -0.30794  -0.30486  -0.29625
 Alpha  occ. eigenvalues --   -0.28987  -0.28681  -0.27967  -0.27161  -0.26577
 Alpha  occ. eigenvalues --   -0.26138
 Alpha virt. eigenvalues --   -0.02543  -0.02047  -0.01660  -0.00081   0.00264
 Alpha virt. eigenvalues --    0.01043   0.01874   0.02319   0.02847   0.03471
 Alpha virt. eigenvalues --    0.03720   0.04366   0.04885   0.05291   0.05721

 Mulliken atomic charges:
              1
     1  O   -0.546819
     2  C    0.068307
     3  C    0.348427
     4  O   -0.576645
     5  H    0.348295
     6  C   -0.293951
     7  O   -0.587356
     8  H    0.426974
     9  C   -0.424663
    10  O   -0.554135
    11  H    0.347217
    12  C    0.242801
    13  O   -0.263075
    14  C    0.452333
    15  O   -0.171559
    16  C   -0.036430
    17  C    0.371577
    18  O   -0.573221
    19  H    0.366806
    20  C   -0.079245
    21  O   -0.566682
    22  H    0.343355
    23  C   -0.354524
    24  O   -0.579601
    25  H    0.376996
    26  C    0.050368
    27  O   -0.275615
    28  C    0.210219
    29  O   -0.559983
    30  H    0.338329
    31  H    0.119294
    32  H    0.130007
    33  H    0.121868
    34  H    0.119887
    35  H    0.118364
    36  H    0.147346
    37  H    0.161334
    38  H    0.342429
    39  H    0.142042
    40  H    0.132841
    41  H    0.119674
    42  H    0.128474
    43  H    0.109006
    44  H    0.126709
    45  H    0.132227
 Sum of Mulliken atomic charges =   0.00000

 Dipole moment (field-independent basis, Debye):
    X=             -2.2851    Y=             -0.2951    Z=              2.3280  Tot=              3.2754
 Quadrupole moment (field-independent basis, Debye-Ang):
   XX=           -124.2542   YY=           -130.8801   ZZ=           -140.3746
   XY=            -13.9998   XZ=             -2.3742   YZ=              5.7785

  Exact polarizability: 232.954   0.206 201.179   0.611   1.160 143.502
 Approx polarizability: 273.042  -0.345 261.366   1.765   3.062 239.825

 ******    6 imaginary frequencies (negative Signs) ******

                     1                      2                      3
                     A                      A                      A
 Frequencies --  -375.4332              -306.4821              -272.1663
 Red. masses --     1.5763                 1.7441                 1.1909
 Frc consts  --     0.1309                 0.0965                 0.0520
 IR Inten    --     3.3025                 5.1964               129.8878
 Raman Activ --     0.0337                 0.0335                 1.3273

                     4                      5                      6
                     A                      A                      A
 Frequencies --  -213.8268               -83.0058               -64.9268
 Red. masses --     1.1477                 6.4181                 6.5267
 Frc consts  --     0.0309                 0.0261                 0.0162
 IR Inten    --   107.1236                 0.3332                 0.4875
 Raman Activ --     0.9438                 0.0188                 0.0599

                     7                      8                      9
                     A                      A                      A
 Frequencies --    45.7199                56.1645                70.0622
 Red. masses --     7.0178                 6.7008                 6.0625
 Frc consts  --     0.0086                 0.0125                 0.0175
 IR Inten    --     1.4623                 2.7506                 7.4645
 Raman Activ --     0.0742                 0.0569                 0.1339

                    10                     11                     12
                     A                      A                      A
 Frequencies --    80.1006               101.8686               133.7476
 Red. masses --     6.4904                 6.5228                 6.0441
 Frc consts  --     0.0245                 0.0399                 0.0637
 IR Inten    --     0.2074                 0.4092                 0.9355
 Raman Activ --     0.1328                 0.2596                 0.1650

                    13                     14                     15
                     A                      A                      A
 Frequencies --   153.4353               173.6468               183.1550
 Red. masses --     6.8069                 7.4685                 5.8915
 Frc consts  --     0.0944                 0.1327                 0.1164
 IR Inten    --     4.0788                 1.5369                 5.4692
 Raman Activ --     0.1549                 0.7480                 0.4771

                    16                     17                     18
                     A                      A                      A
 Frequencies --   213.7048               230.2317               269.5272
 Red. masses --     7.2892                 6.0517                 4.1809
 Frc consts  --     0.1961                 0.1890                 0.1789
 IR Inten    --     0.0599                 1.5708                22.3849
 Raman Activ --     2.7903                 0.0571                 0.1705

                    19                     20                     21
                     A                      A                      A
 Frequencies --   282.9085               286.7385               291.3686
 Red. masses --     6.1906                 4.6898                 6.0329
 Frc consts  --     0.2919                 0.2272                 0.3018
 IR Inten    --     2.9016                 3.0252                 3.4115
 Raman Activ --     0.4249                 0.2669                 3.6191

                    22                     23                     24
                     A                      A                      A
 Frequencies --   304.4727               309.7674               312.9390
 Red. masses --     5.7282                 6.2059                 5.2867
 Frc consts  --     0.3129                 0.3509                 0.3050
 IR Inten    --     3.8731                 3.2550                 3.2934
 Raman Activ --     1.4392                 2.0585                 4.2214

                    25                     26                     27
                     A                      A                      A
 Frequencies --   330.3908               361.0316               376.7059
 Red. masses --     6.5873                 4.5592                 8.3208
 Frc consts  --     0.4237                 0.3501                 0.6957
 IR Inten    --    13.1672                 5.9462                 8.6575
 Raman Activ --     3.0370                 0.6736                 1.4483

                    28                     29                     30
                     A                      A                      A
 Frequencies --   399.7466               407.6974               424.5637
 Red. masses --     6.6958                 3.9145                 4.8394
 Frc consts  --     0.6304                 0.3834                 0.5140
 IR Inten    --     6.6069                15.2935                 1.0976
 Raman Activ --     2.9322                 1.7062                 2.2364

                    31                     32                     33
                     A                      A                      A
 Frequencies --   435.8641               482.7650               495.4361
 Red. masses --     4.9288                 4.2697                 3.9833
 Frc consts  --     0.5517                 0.5863                 0.5761
 IR Inten    --     1.5998                 9.3949                18.6957
 Raman Activ --     1.3513                 2.5024                 0.0292

                    34                     35                     36
                     A                      A                      A
 Frequencies --   508.4358               528.8997               554.7659
 Red. masses --     4.2768                 3.4973                 3.9997
 Frc consts  --     0.6514                 0.5764                 0.7253
 IR Inten    --     5.0254                17.4507                26.8929
 Raman Activ --     6.6257                 2.8529                 0.7517

                    37                     38                     39
                     A                      A                      A
 Frequencies --   570.8923               586.8695               594.7298
 Red. masses --     5.0614                 2.5235                 1.7085
 Frc consts  --     0.9719                 0.5121                 0.3561
 IR Inten    --     5.4339                39.6757                36.2614
 Raman Activ --     0.7134                 0.4177                 1.7253

                    40                     41                     42
                     A                      A                      A
 Frequencies --   608.0156               624.9903               685.2269
 Red. masses --     3.5109                 2.9393                 1.7328
 Frc consts  --     0.7647                 0.6765                 0.4794
 IR Inten    --    14.9000                64.8876                88.8981
 Raman Activ --     0.9995                 1.8210                 0.8476

                    43                     44                     45
                     A                      A                      A
 Frequencies --   687.1025               700.1007               775.6106
 Red. masses --     1.8568                 1.0587                 1.0662
 Frc consts  --     0.5165                 0.3057                 0.3779
 IR Inten    --    50.4284                87.1366                92.6475
 Raman Activ --     1.5712                 1.7424                 1.6082

                    46                     47                     48
                     A                      A                      A
 Frequencies --   831.4046               842.2432               856.4433
 Red. masses --     1.7855                 1.0948                 1.4857
 Frc consts  --     0.7272                 0.4576                 0.6421
 IR Inten    --     4.0773               117.3446                14.8327
 Raman Activ --     0.8313                 2.0596                 0.7875

                    49                     50                     51
                     A                      A                      A
 Frequencies --   908.4917               926.4042               951.9638
 Red. masses --     1.6590                 2.6447                 4.7618
 Frc consts  --     0.8067                 1.3373                 2.5425
 IR Inten    --    34.3036                87.9681                57.6801
 Raman Activ --     1.2734                 1.6421                 0.9257

                    52                     53                     54
                     A                      A                      A
 Frequencies --   964.5837               981.2100               985.5790
 Red. masses --     6.8136                 4.1227                 7.2046
 Frc consts  --     3.7352                 2.3386                 4.1233
 IR Inten    --    10.0917               220.1140                21.5640
 Raman Activ --     3.7062                 0.6361                 2.0859

                    55                     56                     57
                     A                      A                      A
 Frequencies --  1000.0774              1012.1406              1016.8173
 Red. masses --     5.9083                 5.6286                 6.4665
 Frc consts  --     3.4816                 3.3973                 3.9392
 IR Inten    --   474.5192                24.9719               308.7750
 Raman Activ --     3.5294                 2.0429                 2.7870

                    58                     59                     60
                     A                      A                      A
 Frequencies --  1026.4156              1039.7107              1055.1885
 Red. masses --     6.7368                 6.0703                 6.1860
 Frc consts  --     4.1817                 3.8662                 4.0581
 IR Inten    --   190.3413                54.3573               147.8349
 Raman Activ --     1.4699                 1.7407                 0.7682

                    61                     62                     63
                     A                      A                      A
 Frequencies --  1062.7754              1075.0699              1078.9104
 Red. masses --     2.9501                 3.2713                 5.4955
 Frc consts  --     1.9632                 2.2276                 3.7690
 IR Inten    --    28.0480                 2.8282                55.4011
 Raman Activ --     9.7530                21.3176                 0.9173

                    64                     65                     66
                     A                      A                      A
 Frequencies --  1092.8656              1098.7261              1103.5446
 Red. masses --     3.3045                 3.0882                 2.6604
 Frc consts  --     2.3254                 2.1965                 1.9089
 IR Inten    --    16.3350                58.4704                 2.9159
 Raman Activ --    14.3683                 7.1646                 2.0919

                    67                     68                     69
                     A                      A                      A
 Frequencies --  1127.6130              1133.3641              1137.1252
 Red. masses --     2.7537                 2.8181                 2.2029
 Frc consts  --     2.0629                 2.1328                 1.6783
 IR Inten    --     3.8625                26.0366                27.4237
 Raman Activ --     3.5982                 6.1761                 6.1608

                    70                     71                     72
                     A                      A                      A
 Frequencies --  1141.7933              1151.6256              1157.7395
 Red. masses --     2.3781                 1.9304                 1.5974
 Frc consts  --     1.8266                 1.5084                 1.2615
 IR Inten    --    48.5270                24.7929                16.9892
 Raman Activ --     1.9419                 2.3386                 0.6224

                    73                     74                     75
                     A                      A                      A
 Frequencies --  1168.4017              1175.3137              1189.3159
 Red. masses --     2.7872                 1.6518                 1.5841
 Frc consts  --     2.2419                 1.3444                 1.3202
 IR Inten    --    16.4992                 0.2333                25.2026
 Raman Activ --     5.2520                 2.1648                 1.3787

                    76                     77                     78
                     A                      A                      A
 Frequencies --  1191.7868              1215.9228              1233.2266
 Red. masses --     1.3476                 1.6766                 1.3901
 Frc consts  --     1.1277                 1.4604                 1.2456
 IR Inten    --    19.4744                 6.6133                 2.0079
 Raman Activ --     0.9335                 2.6463                 1.2044

                    79                     80                     81
                     A                      A                      A
 Frequencies --  1240.3940              1252.6272              1278.3625
 Red. masses --     1.1822                 1.3088                 1.1850
 Frc consts  --     1.0717                 1.2100                 1.1410
 IR Inten    --     2.5465                39.4776                21.9242
 Raman Activ --     2.0319                 1.1316                 0.8044

                    82                     83                     84
                     A                      A                      A
 Frequencies --  1284.9545              1290.3038              1296.1917
 Red. masses --     1.1956                 1.2934                 1.1997
 Frc consts  --     1.1630                 1.2688                 1.1876
 IR Inten    --     4.0476                 9.5697                12.3432
 Raman Activ --     4.0550                 1.3947                 2.4583

                    85                     86                     87
                     A                      A                      A
 Frequencies --  1300.6475              1302.9745              1309.1188
 Red. masses --     1.3697                 1.2765                 1.1986
 Frc consts  --     1.3651                 1.2768                 1.2103
 IR Inten    --    45.9572                26.7481                16.5031
 Raman Activ --     4.6666                 2.9355                 6.8765

                    88                     89                     90
                     A                      A                      A
 Frequencies --  1313.9967              1328.3364              1339.8127
 Red. masses --     1.2940                 1.3606                 1.2590
 Frc consts  --     1.3164                 1.4144                 1.3315
 IR Inten    --     5.1033                12.8223                35.9906
 Raman Activ --     5.5125                 1.6155                 2.1880

                    91                     92                     93
                     A                      A                      A
 Frequencies --  1346.9347              1357.8653              1364.7642
 Red. masses --     1.2963                 1.3925                 1.3826
 Frc consts  --     1.3857                 1.5128                 1.5173
 IR Inten    --    38.3774                 5.8268                12.1777
 Raman Activ --     7.4847                10.7083                 9.9653

                    94                     95                     96
                     A                      A                      A
 Frequencies --  1370.1743              1374.0847              1380.8904
 Red. masses --     1.2491                 1.3313                 1.2875
 Frc consts  --     1.3816                 1.4810                 1.4464
 IR Inten    --    24.2630                 6.1506                 7.8845
 Raman Activ --     1.5823                 5.5704                 3.3100

                    97                     98                     99
                     A                      A                      A
 Frequencies --  1386.9683              1396.8276              1404.8607
 Red. masses --     1.3090                 1.3351                 1.4863
 Frc consts  --     1.4836                 1.5348                 1.7283
 IR Inten    --    24.4656                 6.5374                 6.1246
 Raman Activ --     3.0740                 3.2288                 4.7076

                   100                    101                    102
                     A                      A                      A
 Frequencies --  1421.9486              1440.3533              1443.8846
 Red. masses --     1.3435                 1.1676                 1.3400
 Frc consts  --     1.6005                 1.4272                 1.6460
 IR Inten    --    11.5463                26.1574                 9.8406
 Raman Activ --     2.1468                 3.4257                 3.5723

                   103                    104                    105
                     A                      A                      A
 Frequencies --  1451.1815              1457.3445              1479.2759
 Red. masses --     1.3828                 1.2285                 1.1034
 Frc consts  --     1.7157                 1.5372                 1.4226
 IR Inten    --    31.7197                 6.7689                 2.9538
 Raman Activ --     1.6592                 0.8591                 5.8297

                   106                    107                    108
                     A                      A                      A
 Frequencies --  1480.3921              1515.9223              3217.0542
 Red. masses --     1.2852                 1.2381                 1.0691
 Frc consts  --     1.6595                 1.6763                 6.5190
 IR Inten    --    38.8313                22.9506              1119.4434
 Raman Activ --     1.0347                 1.2864               151.1013

                   109                    110                    111
                     A                      A                      A
 Frequencies --  3245.0310              3254.6200              3258.3854
 Red. masses --     1.0578                 1.0803                 1.0821
 Frc consts  --     6.5629                 6.7419                 6.7691
 IR Inten    --    38.7881                22.7174                 5.3461
 Raman Activ --    75.1489                85.8384                11.8921

                   112                    113                    114
                     A                      A                      A
 Frequencies --  3262.6974              3265.6546              3270.2043
 Red. masses --     1.0594                 1.0823                 1.0820
 Frc consts  --     6.6445                 6.8006                 6.8174
 IR Inten    --    14.1952                15.9963                 3.4755
 Raman Activ --   162.2373               142.5033                76.8584

                   115                    116                    117
                     A                      A                      A
 Frequencies --  3279.1123              3281.4684              3284.6931
 Red. masses --     1.0841                 1.0857                 1.0854
 Frc consts  --     6.8678                 6.8881                 6.8997
 IR Inten    --    11.3757                11.5508                48.8922
 Raman Activ --    47.9139                80.4799                13.0984

                   118                    119                    120
                     A                      A                      A
 Frequencies --  3293.7797              3300.3950              3302.2195
 Red. masses --     1.0875                 1.0938                 1.0885
 Frc consts  --     6.9516                 7.0198                 6.9935
 IR Inten    --     9.0345                11.4403                32.2750
 Raman Activ --    14.1205                41.3221                21.7370

                   121                    122                    123
                     A                      A                      A
 Frequencies --  3309.4143              3312.8691              3324.7943
 Red. masses --     1.0924                 1.1043                 1.0675
 Frc consts  --     7.0492                 7.1406                 6.9526
 IR Inten    --    78.2975                55.6491               364.1976
 Raman Activ --    11.0852                60.1965               186.7757

                   124                    125                    126
                     A                      A                      A
 Frequencies --  3365.9199              3368.8466              3371.5147
 Red. masses --     1.0650                 1.0700                 1.0671
 Frc consts  --     7.1093                 7.1551                 7.1469
 IR Inten    --    39.3313                72.8956               105.5138
 Raman Activ --    95.0954               161.1800               121.7205

                   127                    128                    129
                     A                      A                      A
 Frequencies --  3373.5602              3890.8752              3891.8733
 Red. masses --     1.0667                 1.0674                 1.0674
 Frc consts  --     7.1529                 9.5211                 9.5255
 IR Inten    --    49.6286                82.8382                69.4424
 Raman Activ --   161.3178                93.6954               101.4643

 - Thermochemistry -
 -------------------
 Temperature   298.150 Kelvin.  Pressure   1.00000 Atm.
 Atom     1 has atomic number  8 and mass  15.99491

 Molecular mass:   342.11621 amu.
 Principal axes and moments of inertia in atomic units:
                           1         2         3
     Eigenvalues --  4542.91338********************
           X            0.99997  -0.00755  -0.00092
           Y            0.00755   0.99997   0.00144
           Z            0.00091  -0.00145   1.00000
 This molecule is an asymmetric top.
 Rotational symmetry number  1.
 Warning -- assumption of classical behavior for rotation
           may cause significant error
 Rotational temperatures (Kelvin)      0.01907     0.00708     0.00531
 Rotational constants (GHZ):           0.39727     0.14755     0.11065
    6 imaginary frequencies ignored.
 Zero-point vibrational energy     974415.6 (Joules/Mol)
                                  232.89092 (Kcal/Mol)
 Warning -- explicit consideration of  34 degrees of freedom as
           vibrations may cause significant error
 Vibrational temperatures:     65.78    80.81   100.80   115.25   146.57
          (Kelvin)            192.43   220.76   249.84   263.52   307.47
                              331.25   387.79   407.04   412.55   419.21
                              438.07   445.69   450.25   475.36   519.44
                              542.00   575.15   586.58   610.85   627.11
                              694.59   712.82   731.52   760.97   798.18
                              821.39   844.37   855.68   874.80   899.22
                              985.89   988.59  1007.29  1115.93  1196.20
                             1211.80  1232.23  1307.12  1332.89  1369.66
                             1387.82  1411.74  1418.03  1438.89  1456.24
                             1462.97  1476.78  1495.91  1518.18  1529.09
                             1546.78  1552.31  1572.39  1580.82  1587.75
                             1622.38  1630.66  1636.07  1642.78  1656.93
                             1665.73  1681.07  1691.01  1711.16  1714.71
                             1749.44  1774.34  1784.65  1802.25  1839.28
                             1848.76  1856.46  1864.93  1871.34  1874.69
                             1883.53  1890.55  1911.18  1927.69  1937.94
                             1953.66  1963.59  1971.37  1977.00  1986.79
                             1995.54  2009.72  2021.28  2045.86  2072.34
                             2077.43  2087.92  2096.79  2128.35  2129.95
                             2181.07  4628.62  4668.87  4682.67  4688.08
                             4694.29  4698.54  4705.09  4717.91  4721.30
                             4725.93  4739.01  4748.53  4751.15  4761.50
                             4766.47  4783.63  4842.80  4847.01  4850.85
                             4853.79  5598.09  5599.53

 Zero-point correction=                           0.371135 (Hartree/Particle)
 Thermal correction to Energy=                    0.390354
 Thermal correction to Enthalpy=                  0.391298
 Thermal correction to Gibbs Free Energy=         0.324396
 Sum of electronic and zero-point Energies=          -1297.576807
 Sum of electronic and thermal Energies=             -1297.557588
 Sum of electronic and thermal Enthalpies=           -1297.556644
 Sum of electronic and thermal Free Energies=        -1297.623547

                     E (Thermal)             CV                S
                      KCal/Mol        Cal/Mol-Kelvin    Cal/Mol-Kelvin
 Total                  244.951             78.169            140.808
 Electronic               0.000              0.000              0.000
 Translational            0.889              2.981             43.384
 Rotational               0.889              2.981             35.159
 Vibrational            243.174             72.207             62.265
 Vibration     1          0.595              1.979              4.994
 Vibration     2          0.596              1.975              4.588
 Vibration     3          0.598              1.968              4.152
 Vibration     4          0.600              1.963              3.888
 Vibration     5          0.604              1.948              3.418
 Vibration     6          0.613              1.920              2.891
 Vibration     7          0.619              1.899              2.629
 Vibration     8          0.627              1.875              2.396
 Vibration     9          0.631              1.863              2.296
 Vibration    10          0.644              1.820              2.012
 Vibration    11          0.652              1.795              1.877
 Vibration    12          0.674              1.729              1.599
 Vibration    13          0.682              1.705              1.516
 Vibration    14          0.684              1.698              1.493
 Vibration    15          0.687              1.690              1.466
 Vibration    16          0.695              1.665              1.392
 Vibration    17          0.699              1.655              1.364
 Vibration    18          0.701              1.649              1.347
 Vibration    19          0.713              1.615              1.258
 Vibration    20          0.735              1.553              1.118
 Vibration    21          0.747              1.520              1.052
 Vibration    22          0.766              1.471              0.964
 Vibration    23          0.772              1.454              0.935
 Vibration    24          0.787              1.417              0.877
 Vibration    25          0.796              1.392              0.840
 Vibration    26          0.839              1.288              0.703
 Vibration    27          0.851              1.260              0.670
 Vibration    28          0.864              1.231              0.637
 Vibration    29          0.884              1.186              0.590
 Vibration    30          0.910              1.129              0.534
 Vibration    31          0.927              1.094              0.503
 Vibration    32          0.944              1.060              0.473
 Vibration    33          0.952              1.043              0.459
 Vibration    34          0.967              1.015              0.436

 Normal termination of Gaussian 09 at Tue Mar 29 22:48:21 2016.
