 Gaussian 09, Revision B.01,
 Gaussian 09:  EM64L-G09RevB.01 12-Aug-2010

 ------------------------------------------------
 # freq=raman b3lyp/6-31+g(d,p) geom=connectivity
 ------------------------------------------------

 -----------------------------
 450K 5000ps Cellobiose Unit 1
 -----------------------------
 Symbolic Z-matrix:
 Charge =  0 Multiplicity = 1

                         Standard orientation:
 ---------------------------------------------------------------------
 Center     Atomic      Atomic             Coordinates (Angstroms)
 Number     Number       Type             X           Y           Z
 ---------------------------------------------------------------------
      1          6           0        4.120908   -0.157195   -0.132735
      2          6           0        3.583859    1.221128   -0.481442
      3          8           0        4.488137    2.166531    0.108535
      4          1           0        5.369412    2.111205   -0.360922
      5          6           0        2.265264    1.596844    0.174618
      6          8           0        1.734459    2.861403   -0.248169
      7          1           0        2.530357    3.437901   -0.433875
      8          6           0        3.508738   -2.611856    0.161480
      9          8           0        2.572588   -3.691540    0.030657
     10          1           0        2.951972   -4.552908    0.367457
     11          6           0        3.064952   -1.236336   -0.310250
     12          8           0        1.899642   -0.749172    0.371166
     13          6           0        1.269145    0.470272   -0.046046
     14          8           0        0.094083    0.531717    0.774993
     15          6           0       -1.118831    0.293117    0.046563
     16          6           0       -1.581416   -1.129092    0.320179
     17          8           0       -0.697629   -2.150456   -0.162907
     18          1           0        0.244998   -1.909370    0.068376
     19          6           0       -2.895989   -1.539962   -0.320465
     20          8           0       -3.344251   -2.892561   -0.144386
     21          1           0       -2.463404   -3.360024   -0.217999
     22          6           0       -1.879077    2.666632   -0.096436
     23          8           0       -2.832150    3.738137   -0.095405
     24          1           0       -2.969767    4.049589    0.844436
     25          6           0       -2.231579    1.269983    0.391293
     26          8           0       -3.478860    0.784134   -0.125618
     27          6           0       -3.913414   -0.541853    0.207129
     28          8           0       -5.190116   -0.769438   -0.407958
     29          1           0       -5.881404   -0.390824    0.140105
     30          1           0       -3.999997   -0.639225    1.269165
     31          1           0       -2.800941   -1.374789   -1.373358
     32          1           0       -1.677234   -1.245546    1.379498
     33          1           0       -2.313829    1.308683    1.457425
     34          1           0       -0.905886    0.382558   -0.998212
     35          1           0       -1.535237    2.562350   -1.104305
     36          1           0       -1.046441    2.995586    0.489573
     37          1           0        3.773229   -2.532705    1.195250
     38          1           0        4.389813   -2.875810   -0.385269
     39          1           0        2.834211   -1.305191   -1.352804
     40          1           0        4.449441   -0.155567    0.885579
     41          1           0        4.953828   -0.377217   -0.767349
     42          1           0        3.534543    1.355696   -1.541800
     43          1           0        0.997391    0.411251   -1.079277
     44          1           0        2.442351    1.664221    1.227709
 ---------------------------------------------------------------------

 SCF Done:  E(RB3LYP) =  -1222.73466569     A.U. after   14 cycles

 The electronic state is 1-A.
 Alpha  occ. eigenvalues --  -19.19647 -19.19259 -19.18950 -19.18165 -19.17939
 Alpha  occ. eigenvalues --  -19.16107 -19.15983 -19.15885 -19.15621 -19.15060
 Alpha  occ. eigenvalues --  -10.31892 -10.28760 -10.27601 -10.27553 -10.26226
 Alpha  occ. eigenvalues --  -10.26137 -10.25676 -10.24930 -10.24013 -10.23015
 Alpha  occ. eigenvalues --  -10.22998 -10.21765  -1.10032  -1.06558  -1.06295
 Alpha  occ. eigenvalues --   -1.04543  -1.03447  -1.03318  -1.02610  -1.01504
 Alpha  occ. eigenvalues --   -1.00388  -0.99709  -0.83485  -0.81712  -0.79077
 Alpha  occ. eigenvalues --   -0.77869  -0.72773  -0.69927  -0.67890  -0.64873
 Alpha  occ. eigenvalues --   -0.64284  -0.62353  -0.61650  -0.59592  -0.56563
 Alpha  occ. eigenvalues --   -0.55190  -0.54695  -0.53890  -0.53744  -0.52917
 Alpha  occ. eigenvalues --   -0.52715  -0.51390  -0.49678  -0.49440  -0.48648
 Alpha  occ. eigenvalues --   -0.47259  -0.46865  -0.46272  -0.45637  -0.44982
 Alpha  occ. eigenvalues --   -0.44073  -0.43830  -0.42507  -0.42423  -0.41498
 Alpha  occ. eigenvalues --   -0.39747  -0.39658  -0.39010  -0.37179  -0.36854
 Alpha  occ. eigenvalues --   -0.36494  -0.36169  -0.35685  -0.34989  -0.34226
 Alpha  occ. eigenvalues --   -0.34154  -0.32032  -0.31957  -0.30975  -0.30218
 Alpha  occ. eigenvalues --   -0.29910  -0.29877  -0.29398  -0.28775  -0.27084
 Alpha  occ. eigenvalues --   -0.26712  -0.26327
 Alpha virt. eigenvalues --   -0.03064  -0.02190  -0.00690  -0.00250   0.00070
 Alpha virt. eigenvalues --    0.01270   0.01921   0.02330   0.02582   0.03161
 Alpha virt. eigenvalues --    0.03786   0.04358   0.05214   0.05570   0.05776

 Mulliken atomic charges:
              1
     1  C   -0.539738
     2  C    0.180468
     3  O   -0.519413
     4  H    0.348082
     5  C   -0.416476
     6  O   -0.490120
     7  H    0.363786
     8  C   -0.157759
     9  O   -0.547396
    10  H    0.362526
    11  C    0.312869
    12  O   -0.421610
    13  C    0.491729
    14  O   -0.279756
    15  C   -0.157492
    16  C    0.108051
    17  O   -0.577225
    18  H    0.419844
    19  C   -0.073704
    20  O   -0.474169
    21  H    0.368362
    22  C   -0.027012
    23  O   -0.504015
    24  H    0.337206
    25  C   -0.073486
    26  O   -0.306427
    27  C    0.373277
    28  O   -0.500123
    29  H    0.345303
    30  H    0.110346
    31  H    0.144233
    32  H    0.138485
    33  H    0.121576
    34  H    0.112002
    35  H    0.135612
    36  H    0.162006
    37  H    0.136692
    38  H    0.129343
    39  H    0.128851
    40  H    0.177012
    41  H    0.143288
    42  H    0.148851
    43  H    0.108544
    44  H    0.157576
 Sum of Mulliken atomic charges =   0.00000

 Dipole moment (field-independent basis, Debye):
    X=             10.0081    Y=              0.2567    Z=              1.4152  Tot=             10.1109
 Quadrupole moment (field-independent basis, Debye-Ang):
   XX=           -113.5175   YY=           -138.0824   ZZ=           -130.5073
   XY=            -12.9633   XZ=            -22.4272   YZ=             -0.0338

  Exact polarizability: 214.290   2.070 196.213  -2.529   0.521 139.375
 Approx polarizability: 254.059   1.537 248.045  -1.972   2.331 227.422

 ******    6 imaginary frequencies (negative Signs) ******

                     1                      2                      3
                     A                      A                      A
 Frequencies --  -270.6897              -238.0413              -231.8197
 Red. masses --     1.7620                 1.2960                 1.2943
 Frc consts  --     0.0761                 0.0433                 0.0410
 IR Inten    --     5.0525                65.6307                55.6982
 Raman Activ --     0.0465                 0.7641                 0.8473

                     4                      5                      6
                     A                      A                      A
 Frequencies --  -171.9783               -65.6454               -56.4250
 Red. masses --     2.1833                 6.5320                 6.2516
 Frc consts  --     0.0380                 0.0166                 0.0117
 IR Inten    --     2.2640                 0.0833                 0.4742
 Raman Activ --     0.0509                 0.0903                 0.0157

                     7                      8                      9
                     A                      A                      A
 Frequencies --    36.7167                49.6063                61.8183
 Red. masses --     6.4473                 6.7243                 6.4260
 Frc consts  --     0.0051                 0.0097                 0.0145
 IR Inten    --     0.2393                 0.1905                 0.4865
 Raman Activ --     0.0591                 0.0431                 0.0643

                    10                     11                     12
                     A                      A                      A
 Frequencies --    75.1271               101.0328               132.1957
 Red. masses --     6.6434                 6.2366                 5.9579
 Frc consts  --     0.0221                 0.0375                 0.0613
 IR Inten    --     3.8802                 1.1204                 0.5426
 Raman Activ --     0.0359                 0.5186                 0.1100

                    13                     14                     15
                     A                      A                      A
 Frequencies --   135.7507               169.5243               181.3317
 Red. masses --     6.7533                 6.9480                 5.4684
 Frc consts  --     0.0733                 0.1176                 0.1059
 IR Inten    --     1.8355                 2.5762                 2.1815
 Raman Activ --     0.3913                 0.7610                 0.3734

                    16                     17                     18
                     A                      A                      A
 Frequencies --   214.8702               270.1828               282.5459
 Red. masses --     6.4894                 4.7092                 5.3516
 Frc consts  --     0.1765                 0.2025                 0.2517
 IR Inten    --     0.8361                 8.2872                 2.3130
 Raman Activ --     2.1385                 0.2165                 0.3853

                    19                     20                     21
                     A                      A                      A
 Frequencies --   294.7470               301.0061               323.9011
 Red. masses --     4.4502                 4.6121                 6.9655
 Frc consts  --     0.2278                 0.2462                 0.4306
 IR Inten    --     1.0748                 1.8442                 1.5775
 Raman Activ --     0.3546                 0.6194                 9.3154

                    22                     23                     24
                     A                      A                      A
 Frequencies --   326.0078               333.2859               357.7625
 Red. masses --     5.2193                 5.8870                 4.6628
 Frc consts  --     0.3268                 0.3853                 0.3516
 IR Inten    --     0.3047                 4.1808                 8.3910
 Raman Activ --     2.0360                 1.0970                 0.5444

                    25                     26                     27
                     A                      A                      A
 Frequencies --   386.8876               413.1419               423.4871
 Red. masses --     3.5947                 5.0305                 4.2086
 Frc consts  --     0.3170                 0.5059                 0.4447
 IR Inten    --     3.2751                 2.3345                14.0509
 Raman Activ --     2.4288                 3.4659                 3.7112

                    28                     29                     30
                     A                      A                      A
 Frequencies --   427.2006               448.9749               482.0319
 Red. masses --     5.6588                 4.6371                 3.9886
 Frc consts  --     0.6085                 0.5507                 0.5460
 IR Inten    --     5.9058                 2.9978                 6.3619
 Raman Activ --     0.9180                 0.4728                 1.1561

                    31                     32                     33
                     A                      A                      A
 Frequencies --   498.4676               526.4034               549.4283
 Red. masses --     5.4616                 4.4134                 3.3307
 Frc consts  --     0.7995                 0.7205                 0.5924
 IR Inten    --     5.9411                13.4001                 7.6484
 Raman Activ --     0.3745                 6.1397                 0.8085

                    34                     35                     36
                     A                      A                      A
 Frequencies --   561.3753               585.3093               601.6660
 Red. masses --     3.7519                 3.4508                 3.2057
 Frc consts  --     0.6966                 0.6965                 0.6837
 IR Inten    --     7.6145                14.7970                13.5749
 Raman Activ --     1.5696                 0.6664                 0.5593

                    37                     38                     39
                     A                      A                      A
 Frequencies --   624.6966               648.5552               650.9940
 Red. masses --     4.0354                 1.3116                 2.0908
 Frc consts  --     0.9278                 0.3250                 0.5220
 IR Inten    --     2.2601               117.1241                37.3928
 Raman Activ --     1.7645                 1.9203                 0.6937

                    40                     41                     42
                     A                      A                      A
 Frequencies --   697.5240               710.4008               742.8360
 Red. masses --     1.0788                 1.0916                 1.0937
 Frc consts  --     0.3092                 0.3246                 0.3556
 IR Inten    --   111.8250                90.5842               122.9722
 Raman Activ --     1.2403                 0.8787                 2.8839

                    43                     44                     45
                     A                      A                      A
 Frequencies --   748.3104               818.3948               822.7440
 Red. masses --     1.1042                 2.0323                 2.5822
 Frc consts  --     0.3643                 0.8020                 1.0298
 IR Inten    --   124.3631                24.7858                 3.6655
 Raman Activ --     1.0976                 0.5438                 1.4092

                    46                     47                     48
                     A                      A                      A
 Frequencies --   836.2305               847.9576               954.3522
 Red. masses --     1.1128                 2.9034                 4.9559
 Frc consts  --     0.4585                 1.2300                 2.6595
 IR Inten    --    51.6769                 1.6296               260.6483
 Raman Activ --     0.8302                 6.2763                 1.2513

                    49                     50                     51
                     A                      A                      A
 Frequencies --   954.6681               968.9215               980.0819
 Red. masses --     1.9928                 6.1809                 4.4599
 Frc consts  --     1.0701                 3.4188                 2.5241
 IR Inten    --    34.4977               185.2165                96.8384
 Raman Activ --     1.2871                 0.5727                 2.7202

                    52                     53                     54
                     A                      A                      A
 Frequencies --   994.5342              1004.1448              1020.4785
 Red. masses --     4.5896                 5.2375                 5.9836
 Frc consts  --     2.6746                 3.1115                 3.6713
 IR Inten    --    24.2661                80.3102               123.6591
 Raman Activ --     2.9535                 1.5749                 1.4003

                    55                     56                     57
                     A                      A                      A
 Frequencies --  1031.5076              1046.9516              1066.5453
 Red. masses --     4.7307                 2.3186                 4.3380
 Frc consts  --     2.9657                 1.4973                 2.9074
 IR Inten    --   255.9704               202.3362                26.7460
 Raman Activ --     2.9860                 3.8246                10.0717

                    58                     59                     60
                     A                      A                      A
 Frequencies --  1073.8928              1079.0929              1084.3531
 Red. masses --     6.4427                 5.2433                 4.0113
 Frc consts  --     4.3777                 3.5973                 2.7789
 IR Inten    --   134.7435               118.1976                41.2202
 Raman Activ --     1.2445                 7.5412                 4.3099

                    61                     62                     63
                     A                      A                      A
 Frequencies --  1089.6385              1108.3000              1116.4425
 Red. masses --     3.0826                 3.1800                 2.0993
 Frc consts  --     2.1564                 2.3014                 1.5417
 IR Inten    --    41.3349                 5.9021                45.3272
 Raman Activ --     5.8765                13.5295                 2.3759

                    64                     65                     66
                     A                      A                      A
 Frequencies --  1118.6832              1122.8110              1129.7141
 Red. masses --     2.8511                 2.0916                 2.7199
 Frc consts  --     2.1022                 1.5536                 2.0452
 IR Inten    --    37.2514                66.3779                64.2777
 Raman Activ --     3.5044                 4.9819                 1.3316

                    67                     68                     69
                     A                      A                      A
 Frequencies --  1144.7275              1150.2584              1156.4633
 Red. masses --     2.3520                 2.5059                 2.7754
 Frc consts  --     1.8159                 1.9535                 2.1870
 IR Inten    --    42.2055                12.5057                41.7272
 Raman Activ --     3.8149                 3.0162                 3.0233

                    70                     71                     72
                     A                      A                      A
 Frequencies --  1162.6521              1171.4155              1183.9335
 Red. masses --     2.1083                 2.2392                 1.7031
 Frc consts  --     1.6791                 1.8104                 1.4065
 IR Inten    --     8.1552                20.5862                 0.7229
 Raman Activ --     4.1115                 3.1809                 2.3302

                    73                     74                     75
                     A                      A                      A
 Frequencies --  1200.8241              1207.6438              1237.3042
 Red. masses --     1.5139                 1.4187                 1.2504
 Frc consts  --     1.2862                 1.2190                 1.1279
 IR Inten    --     3.4867                16.6977                 3.1832
 Raman Activ --     2.3849                 1.5507                 7.5337

                    76                     77                     78
                     A                      A                      A
 Frequencies --  1251.7534              1253.8815              1257.4132
 Red. masses --     1.2998                 1.2043                 1.2112
 Frc consts  --     1.2000                 1.1155                 1.1283
 IR Inten    --     6.2372                15.6355                 4.7041
 Raman Activ --     2.2258                 2.1782                 3.2321

                    79                     80                     81
                     A                      A                      A
 Frequencies --  1266.4486              1273.4893              1281.1432
 Red. masses --     1.1864                 1.2936                 1.1949
 Frc consts  --     1.1211                 1.2360                 1.1555
 IR Inten    --    11.7331                29.7712                22.0755
 Raman Activ --     2.0847                 2.0680                 3.7005

                    82                     83                     84
                     A                      A                      A
 Frequencies --  1290.8236              1296.7253              1299.1126
 Red. masses --     1.2734                 1.2592                 1.2783
 Frc consts  --     1.2502                 1.2475                 1.2711
 IR Inten    --    17.8446                 9.8983                 2.1431
 Raman Activ --     4.8411                 1.4535                 1.5815

                    85                     86                     87
                     A                      A                      A
 Frequencies --  1319.0626              1329.4171              1338.7859
 Red. masses --     1.2999                 1.2625                 1.2122
 Frc consts  --     1.3326                 1.3147                 1.2801
 IR Inten    --    38.9673                53.9284                 8.0350
 Raman Activ --     1.5082                 9.6321                 4.0675

                    88                     89                     90
                     A                      A                      A
 Frequencies --  1342.3669              1347.2235              1349.4222
 Red. masses --     1.3302                 1.4785                 1.4154
 Frc consts  --     1.4122                 1.5811                 1.5185
 IR Inten    --    12.7993                 5.9406                 9.5165
 Raman Activ --     1.4093                 8.2221                 8.0852

                    91                     92                     93
                     A                      A                      A
 Frequencies --  1353.4615              1358.4049              1379.4346
 Red. masses --     1.2489                 1.3449                 1.4244
 Frc consts  --     1.3480                 1.4621                 1.5969
 IR Inten    --    28.1799                24.4768                23.8353
 Raman Activ --     1.1216                 6.0194                 6.8506

                    94                     95                     96
                     A                      A                      A
 Frequencies --  1396.2625              1405.6251              1431.8259
 Red. masses --     1.3142                 1.2460                 1.4103
 Frc consts  --     1.5095                 1.4505                 1.7036
 IR Inten    --     9.0283                 7.3445                15.1947
 Raman Activ --     1.3088                 9.4477                 4.5032

                    97                     98                     99
                     A                      A                      A
 Frequencies --  1434.6194              1442.2612              1445.1402
 Red. masses --     1.4428                 1.2715                 1.3091
 Frc consts  --     1.7495                 1.5583                 1.6108
 IR Inten    --     6.0113                80.1972                 9.0663
 Raman Activ --     1.1835                 2.3289                 5.1755

                   100                    101                    102
                     A                      A                      A
 Frequencies --  1450.1628              1455.2788              1458.3664
 Red. masses --     1.1832                 1.1400                 1.4136
 Frc consts  --     1.4660                 1.4225                 1.7714
 IR Inten    --    23.1292                15.8135                34.4384
 Raman Activ --     1.9866                 4.8828                 2.8749

                   103                    104                    105
                     A                      A                      A
 Frequencies --  1463.2727              1495.0773              3269.2256
 Red. masses --     1.0836                 1.4509                 1.0574
 Frc consts  --     1.3670                 1.9108                 6.6587
 IR Inten    --     7.2291                94.1459                25.4347
 Raman Activ --    10.4016                 1.8732                56.1494

                   106                    107                    108
                     A                      A                      A
 Frequencies --  3275.2558              3279.0987              3281.3962
 Red. masses --     1.0825                 1.0631                 1.0691
 Frc consts  --     6.8421                 6.7349                 6.7822
 IR Inten    --    17.8053                42.7104                23.8245
 Raman Activ --    54.9881               162.7249                15.5085

                   109                    110                    111
                     A                      A                      A
 Frequencies --  3282.5257              3283.9755              3288.2266
 Red. masses --     1.0729                 1.0797                 1.0833
 Frc consts  --     6.8113                 6.8607                 6.9010
 IR Inten    --     3.0598                23.8469                15.7517
 Raman Activ --    76.9595                42.7455               147.1754

                   112                    113                    114
                     A                      A                      A
 Frequencies --  3289.9773              3295.5691              3299.1540
 Red. masses --     1.0855                 1.0845                 1.0843
 Frc consts  --     6.9227                 6.9394                 6.9533
 IR Inten    --     4.4863                 8.5086                 4.7805
 Raman Activ --    99.9771               126.7592                50.4100

                   115                    116                    117
                     A                      A                      A
 Frequencies --  3308.4396              3311.7722              3322.1168
 Red. masses --     1.0864                 1.0858                 1.1068
 Frc consts  --     7.0064                 7.0162                 7.1969
 IR Inten    --    52.4394                88.4059                29.0456
 Raman Activ --     4.6899                 3.3910                37.0912

                   118                    119                    120
                     A                      A                      A
 Frequencies --  3340.7223              3346.9055              3350.3195
 Red. masses --     1.1041                 1.0778                 1.0956
 Frc consts  --     7.2601                 7.1131                 7.2454
 IR Inten    --    33.0052               317.8769                96.8450
 Raman Activ --    43.4952               119.9730               152.9137

                   121                    122                    123
                     A                      A                      A
 Frequencies --  3386.8313              3391.3136              3391.8356
 Red. masses --     1.0665                 1.0658                 1.0691
 Frc consts  --     7.2077                 7.2218                 7.2470
 IR Inten    --    21.7207                49.9484                17.1806
 Raman Activ --   187.2365                95.5283                84.7380

                   124                    125                    126
                     A                      A                      A
 Frequencies --  3393.2435              3396.9311              3916.0123
 Red. masses --     1.0642                 1.0677                 1.0671
 Frc consts  --     7.2194                 7.2586                 9.6416
 IR Inten    --    39.8042                52.2703                51.4362
 Raman Activ --    46.5398               191.4781               143.0426

 - Thermochemistry -
 -------------------
 Temperature   298.150 Kelvin.  Pressure   1.00000 Atm.
 Atom     1 has atomic number  6 and mass  12.00000

 Molecular mass:   326.12130 amu.
 Principal axes and moments of inertia in atomic units:
                           1         2         3
     Eigenvalues --  4829.11823********************
           X            0.99993  -0.01062  -0.00495
           Y            0.01061   0.99994  -0.00067
           Z            0.00496   0.00062   0.99999
 This molecule is an asymmetric top.
 Rotational symmetry number  1.
 Warning -- assumption of classical behavior for rotation
           may cause significant error
 Rotational temperatures (Kelvin)      0.01794     0.00840     0.00585
 Rotational constants (GHZ):           0.37372     0.17495     0.12191
    6 imaginary frequencies ignored.
 Zero-point vibrational energy     965553.1 (Joules/Mol)
                                  230.77273 (Kcal/Mol)
 Warning -- explicit consideration of  30 degrees of freedom as
           vibrations may cause significant error
 Vibrational temperatures:     52.83    71.37    88.94   108.09   145.36
          (Kelvin)            190.20   195.31   243.91   260.90   309.15
                              388.73   406.52   424.07   433.08   466.02
                              469.05   479.52   514.74   556.64   594.42
                              609.30   614.65   645.97   693.54   717.18
                              757.38   790.50   807.69   842.13   865.66
                              898.80   933.13   936.63  1003.58  1022.11
                             1068.77  1076.65  1177.49  1183.74  1203.15
                             1220.02  1373.10  1373.55  1394.06  1410.12
                             1430.91  1444.74  1468.24  1484.11  1506.33
                             1534.52  1545.09  1552.57  1560.14  1567.74
                             1594.59  1606.31  1609.53  1615.47  1625.40
                             1647.01  1654.96  1663.89  1672.79  1685.40
                             1703.41  1727.72  1737.53  1780.20  1800.99
                             1804.05  1809.13  1822.13  1832.26  1843.28
                             1857.20  1865.70  1869.13  1897.83  1912.73
                             1926.21  1931.36  1938.35  1941.52  1947.33
                             1954.44  1984.70  2008.91  2022.38  2060.08
                             2064.09  2075.09  2079.23  2086.46  2093.82
                             2098.26  2105.32  2151.08  4703.68  4712.36
                             4717.89  4721.19  4722.82  4724.90  4731.02
                             4733.54  4741.58  4746.74  4760.10  4764.90
                             4779.78  4806.55  4815.44  4820.36  4872.89
                             4879.34  4880.09  4882.11  4887.42  5634.26

 Zero-point correction=                           0.367760 (Hartree/Particle)
 Thermal correction to Energy=                    0.385911
 Thermal correction to Enthalpy=                  0.386855
 Thermal correction to Gibbs Free Energy=         0.321416
 Sum of electronic and zero-point Energies=          -1222.366906
 Sum of electronic and thermal Energies=             -1222.348755
 Sum of electronic and thermal Enthalpies=           -1222.347810
 Sum of electronic and thermal Free Energies=        -1222.413249

                     E (Thermal)             CV                S
                      KCal/Mol        Cal/Mol-Kelvin    Cal/Mol-Kelvin
 Total                  242.163             73.852            137.728
 Electronic               0.000              0.000              0.000
 Translational            0.889              2.981             43.242
 Rotational               0.889              2.981             34.955
 Vibrational            240.385             67.891             59.531
 Vibration     1          0.594              1.982              5.429
 Vibration     2          0.595              1.978              4.833
 Vibration     3          0.597              1.973              4.398
 Vibration     4          0.599              1.966              4.014
 Vibration     5          0.604              1.948              3.434
 Vibration     6          0.612              1.921              2.914
 Vibration     7          0.614              1.918              2.863
 Vibration     8          0.625              1.880              2.441
 Vibration     9          0.630              1.865              2.315
 Vibration    10          0.645              1.818              2.002
 Vibration    11          0.674              1.728              1.595
 Vibration    12          0.682              1.706              1.518
 Vibration    13          0.689              1.684              1.447
 Vibration    14          0.693              1.672              1.411
 Vibration    15          0.708              1.628              1.290
 Vibration    16          0.710              1.623              1.280
 Vibration    17          0.715              1.609              1.244
 Vibration    18          0.733              1.559              1.132
 Vibration    19          0.755              1.498              1.012
 Vibration    20          0.777              1.442              0.916
 Vibration    21          0.786              1.419              0.880
 Vibration    22          0.789              1.411              0.868
 Vibration    23          0.808              1.363              0.799
 Vibration    24          0.838              1.290              0.705
 Vibration    25          0.854              1.253              0.662
 Vibration    26          0.881              1.192              0.595
 Vibration    27          0.905              1.141              0.545
 Vibration    28          0.917              1.115              0.521
 Vibration    29          0.942              1.063              0.476
 Vibration    30          0.960              1.028              0.447

 Normal termination of Gaussian 09 at Thu Oct 22 01:09:09 2015.
