 Gaussian 09, Revision B.01,
 Gaussian 09:  EM64L-G09RevB.01 12-Aug-2010

 -------------------------------------------------
 # freq=raman b3lyp/6-31+g(2d,p) geom=connectivity
 -------------------------------------------------

 -----------------
 300 7944/7944.com
 -----------------
 Symbolic Z-matrix:
 Charge =  0 Multiplicity = 1

                         Standard orientation:
 ---------------------------------------------------------------------
 Center     Atomic      Atomic             Coordinates (Angstroms)
 Number     Number       Type             X           Y           Z
 ---------------------------------------------------------------------
      1          8           0       -5.095890   -0.549805    0.240562
      2          6           0       -3.788742   -0.208802   -0.244408
      3          6           0       -3.280747    1.142967    0.229177
      4          8           0       -4.303068    2.075832   -0.150262
      5          1           0       -5.178293    1.597550   -0.085404
      6          6           0       -1.924927    1.660473   -0.223441
      7          8           0       -1.475239    2.880002    0.384565
      8          1           0       -0.619692    3.125437   -0.071402
      9          6           0       -2.798695   -2.583916    0.053847
     10          8           0       -3.885480   -3.345690    0.599774
     11          1           0       -3.664518   -4.313929    0.487156
     12          6           0       -2.649954   -1.084306    0.252054
     13          8           0       -1.398584   -0.735654   -0.358452
     14          6           0       -0.909112    0.556698    0.025642
     15          8           0        0.367301    0.623260   -0.627740
     16          6           0        1.484735    0.215248    0.174226
     17          6           0        1.990952   -1.105051   -0.383072
     18          8           0        1.044972   -2.180944   -0.471864
     19          1           0        0.221381   -1.655713   -0.685897
     20          6           0        3.361910   -1.573292    0.077276
     21          8           0        3.859315   -2.722470   -0.623459
     22          1           0        4.720376   -3.032651   -0.218955
     23          6           0        2.289730    2.688868    0.217660
     24          8           0        1.253212    3.452877   -0.417137
     25          1           0        1.467672    4.425621   -0.329039
     26          6           0        2.580144    1.231221   -0.102247
     27          8           0        3.757466    0.771796    0.576873
     28          6           0        4.314788   -0.395766   -0.045491
     29          8           0        5.389666   -0.608658    0.880766
     30          1           0        6.185343   -0.845483    0.398676
     31          1           0        3.202197    3.221204    0.047598
     32          1           0        2.094073    2.732430    1.268717
     33          1           0        2.786580    1.183706   -1.151068
     34          1           0        4.652971   -0.219642   -1.045247
     35          1           0        3.288999   -1.829840    1.113504
     36          1           0        2.162986   -0.863488   -1.411153
     37          1           0        1.240086    0.152898    1.214014
     38          1           0       -1.900036   -3.028856    0.427131
     39          1           0       -2.814642   -2.749089   -1.003207
     40          1           0       -5.660618   -0.784421   -0.499463
     41          1           0       -2.553349   -0.910338    1.303388
     42          1           0       -3.799605   -0.222980   -1.314259
     43          1           0       -3.259480    1.111297    1.298497
     44          1           0       -1.976585    1.825189   -1.279424
     45          1           0       -0.725703    0.530694    1.079485
 ---------------------------------------------------------------------

 SCF Done:  E(RB3LYP) =  -1297.96198417     A.U. after   13 cycles

 The electronic state is 1-A.
 Alpha  occ. eigenvalues --  -19.18763 -19.18634 -19.18483 -19.18260 -19.17802
 Alpha  occ. eigenvalues --  -19.17454 -19.16607 -19.15849 -19.14977 -19.14388
 Alpha  occ. eigenvalues --  -19.14019 -10.30538 -10.30500 -10.26031 -10.25918
 Alpha  occ. eigenvalues --  -10.25743 -10.25560 -10.25449 -10.25271 -10.24735
 Alpha  occ. eigenvalues --  -10.24581 -10.23906 -10.23532  -1.10395  -1.09360
 Alpha  occ. eigenvalues --   -1.06113  -1.05191  -1.04390  -1.03388  -1.02609
 Alpha  occ. eigenvalues --   -1.02310  -1.02195  -1.00890  -1.00699  -0.82346
 Alpha  occ. eigenvalues --   -0.80867  -0.79303  -0.78428  -0.72160  -0.70538
 Alpha  occ. eigenvalues --   -0.67419  -0.64740  -0.63162  -0.62211  -0.61593
 Alpha  occ. eigenvalues --   -0.60676  -0.56711  -0.55936  -0.55184  -0.54671
 Alpha  occ. eigenvalues --   -0.54012  -0.53389  -0.53163  -0.51253  -0.51125
 Alpha  occ. eigenvalues --   -0.50527  -0.50071  -0.49363  -0.49242  -0.46799
 Alpha  occ. eigenvalues --   -0.46366  -0.45233  -0.44281  -0.43952  -0.43083
 Alpha  occ. eigenvalues --   -0.42826  -0.42354  -0.41795  -0.40158  -0.39075
 Alpha  occ. eigenvalues --   -0.38579  -0.38221  -0.37658  -0.36657  -0.35838
 Alpha  occ. eigenvalues --   -0.35569  -0.35075  -0.34785  -0.34388  -0.34140
 Alpha  occ. eigenvalues --   -0.32520  -0.31465  -0.31002  -0.30702  -0.30079
 Alpha  occ. eigenvalues --   -0.29536  -0.28419  -0.27866  -0.27801  -0.26514
 Alpha  occ. eigenvalues --   -0.26318
 Alpha virt. eigenvalues --   -0.02296  -0.02066  -0.02012  -0.00275   0.00236
 Alpha virt. eigenvalues --    0.00819   0.01888   0.02341   0.02888   0.03372
 Alpha virt. eigenvalues --    0.04029   0.04281   0.04812   0.05239   0.05663

 Mulliken atomic charges:
              1
     1  O   -0.540662
     2  C   -0.187693
     3  C    0.405046
     4  O   -0.576990
     5  H    0.346565
     6  C   -0.331969
     7  O   -0.537613
     8  H    0.390980
     9  C   -0.248389
    10  O   -0.523054
    11  H    0.336137
    12  C    0.251100
    13  O   -0.247160
    14  C    0.216107
    15  O   -0.224968
    16  C    0.426407
    17  C    0.120969
    18  O   -0.563617
    19  H    0.380320
    20  C    0.078183
    21  O   -0.543710
    22  H    0.333227
    23  C   -0.412320
    24  O   -0.555000
    25  H    0.358950
    26  C   -0.017805
    27  O   -0.243398
    28  C    0.162358
    29  O   -0.519448
    30  H    0.327941
    31  H    0.146159
    32  H    0.154718
    33  H    0.116723
    34  H    0.139811
    35  H    0.131335
    36  H    0.106053
    37  H    0.114612
    38  H    0.154630
    39  H    0.137255
    40  H    0.347287
    41  H    0.107472
    42  H    0.122808
    43  H    0.121357
    44  H    0.131775
    45  H    0.107512
 Sum of Mulliken atomic charges =   0.00000

 Dipole moment (field-independent basis, Debye):
    X=              2.9972    Y=              0.0265    Z=             -1.7925  Tot=              3.4924
 Quadrupole moment (field-independent basis, Debye-Ang):
   XX=           -118.3972   YY=           -134.5219   ZZ=           -142.0339
   XY=             14.7555   XZ=              4.2206   YZ=             -2.7937

  Exact polarizability: 231.502  -1.928 199.634   1.907   0.347 143.847
 Approx polarizability: 272.797  -1.086 259.750   1.800   0.358 240.454

 ******    6 imaginary frequencies (negative Signs) ******

                     1                      2                      3
                     A                      A                      A
 Frequencies --  -312.8609              -309.3289              -285.9216
 Red. masses --     1.7171                 1.6796                 1.1753
 Frc consts  --     0.0990                 0.0947                 0.0566
 IR Inten    --     3.7626                 3.5143               112.0515
 Raman Activ --     0.0903                 0.0397                 1.1132

                     4                      5                      6
                     A                      A                      A
 Frequencies --  -186.1553               -80.6049               -62.8102
 Red. masses --     1.2399                 6.8804                 6.1905
 Frc consts  --     0.0253                 0.0263                 0.0144
 IR Inten    --    96.8868                 1.3299                 0.5123
 Raman Activ --     0.6750                 0.0663                 0.0696

                     7                      8                      9
                     A                      A                      A
 Frequencies --    51.9002                60.6537                71.6201
 Red. masses --     6.6979                 6.5304                 6.4306
 Frc consts  --     0.0106                 0.0142                 0.0194
 IR Inten    --     0.2927                 0.5346                 0.9240
 Raman Activ --     0.1141                 0.0929                 0.0198

                    10                     11                     12
                     A                      A                      A
 Frequencies --    81.1875                94.3538               119.1931
 Red. masses --     6.6133                 5.5072                 5.7764
 Frc consts  --     0.0257                 0.0289                 0.0484
 IR Inten    --     0.8782                 6.6278                 0.4833
 Raman Activ --     0.0920                 0.1843                 0.0389

                    13                     14                     15
                     A                      A                      A
 Frequencies --   138.0101               169.9857               179.0653
 Red. masses --     6.2445                 6.6797                 6.4161
 Frc consts  --     0.0701                 0.1137                 0.1212
 IR Inten    --     3.7774                 0.7289                 2.7018
 Raman Activ --     0.3720                 0.2471                 0.4441

                    16                     17                     18
                     A                      A                      A
 Frequencies --   186.0475               233.0133               266.8653
 Red. masses --     6.9472                 6.1771                 4.6019
 Frc consts  --     0.1417                 0.1976                 0.1931
 IR Inten    --     0.1996                 3.1675                 8.0769
 Raman Activ --     1.7948                 1.0039                 0.4169

                    19                     20                     21
                     A                      A                      A
 Frequencies --   271.2203               292.2730               300.0336
 Red. masses --     4.3844                 5.4119                 5.0426
 Frc consts  --     0.1900                 0.2724                 0.2675
 IR Inten    --     8.2457                 4.2009                 3.4791
 Raman Activ --     0.3908                 0.3458                 0.3904

                    22                     23                     24
                     A                      A                      A
 Frequencies --   306.3509               311.3841               324.5807
 Red. masses --     5.1702                 6.1450                 5.6873
 Frc consts  --     0.2859                 0.3510                 0.3530
 IR Inten    --     2.8102                 0.3340                 2.1752
 Raman Activ --     0.6549                 2.3948                 4.7213

                    25                     26                     27
                     A                      A                      A
 Frequencies --   326.7744               348.7628               375.9154
 Red. masses --     6.5587                 4.7230                 7.3145
 Frc consts  --     0.4126                 0.3385                 0.6090
 IR Inten    --     6.3892                 6.2579                 1.4644
 Raman Activ --     3.7562                 0.0928                 1.2791

                    28                     29                     30
                     A                      A                      A
 Frequencies --   397.9916               404.8225               424.9487
 Red. masses --     5.0374                 4.9275                 5.4661
 Frc consts  --     0.4701                 0.4758                 0.5816
 IR Inten    --    13.0419                 9.4434                 2.4493
 Raman Activ --     3.4279                 3.8132                 6.4566

                    31                     32                     33
                     A                      A                      A
 Frequencies --   439.7410               486.2214               501.3469
 Red. masses --     4.5615                 5.4683                 3.4886
 Frc consts  --     0.5197                 0.7617                 0.5166
 IR Inten    --     2.9645                 9.5595                20.4566
 Raman Activ --     1.9728                 0.2533                 0.7522

                    34                     35                     36
                     A                      A                      A
 Frequencies --   506.1288               533.8848               562.6830
 Red. masses --     4.2695                 3.3937                 4.1339
 Frc consts  --     0.6444                 0.5699                 0.7712
 IR Inten    --     0.8960                 5.6620                24.0403
 Raman Activ --     4.1726                 4.6702                 1.4941

                    37                     38                     39
                     A                      A                      A
 Frequencies --   587.5363               592.4082               622.1877
 Red. masses --     3.1292                 6.2922                 3.9146
 Frc consts  --     0.6364                 1.3010                 0.8929
 IR Inten    --    37.6203                 3.3043                 5.5954
 Raman Activ --     0.4477                 0.4815                 0.1530

                    40                     41                     42
                     A                      A                      A
 Frequencies --   630.8430               693.5785               695.9000
 Red. masses --     5.5109                 4.6506                 1.0872
 Frc consts  --     1.2922                 1.3181                 0.3102
 IR Inten    --    43.2086                29.8025                77.3231
 Raman Activ --     1.1838                 0.2904                 2.0258

                    43                     44                     45
                     A                      A                      A
 Frequencies --   696.9791               715.2906               772.2129
 Red. masses --     1.0921                 1.0636                 1.0610
 Frc consts  --     0.3126                 0.3206                 0.3728
 IR Inten    --   117.1643                95.8763                70.9369
 Raman Activ --     1.5351                 1.7719                 1.1686

                    46                     47                     48
                     A                      A                      A
 Frequencies --   780.3030               803.6339               851.2032
 Red. masses --     1.1159                 1.0786                 1.7437
 Frc consts  --     0.4003                 0.4104                 0.7444
 IR Inten    --   108.5712               101.2082                 3.0819
 Raman Activ --     3.0809                 1.7930                 0.5577

                    49                     50                     51
                     A                      A                      A
 Frequencies --   851.4755               927.0376               944.6699
 Red. masses --     1.8435                 5.2984                 5.9584
 Frc consts  --     0.7875                 2.6828                 3.1328
 IR Inten    --     0.7090               209.7144                17.3752
 Raman Activ --     1.5149                 3.2988                 0.4195

                    52                     53                     54
                     A                      A                      A
 Frequencies --   975.2915               980.7710               986.6208
 Red. masses --     5.3289                 5.7476                 5.8417
 Frc consts  --     2.9864                 3.2574                 3.3503
 IR Inten    --   128.6053                64.3743                23.3750
 Raman Activ --     1.6991                 3.3981                 1.3490

                    55                     56                     57
                     A                      A                      A
 Frequencies --   993.1129              1001.0137              1025.4061
 Red. masses --     5.4687                 6.1450                 6.6364
 Frc consts  --     3.1778                 3.6279                 4.1113
 IR Inten    --   387.3419                27.1758               132.9070
 Raman Activ --     2.4043                 2.0454                 1.8472

                    58                     59                     60
                     A                      A                      A
 Frequencies --  1035.6813              1046.6605              1060.2885
 Red. masses --     5.7642                 7.1672                 4.2535
 Frc consts  --     3.6428                 4.6260                 2.8173
 IR Inten    --   207.0685               138.2402                80.0195
 Raman Activ --     3.1841                 1.0661                 8.7866

                    61                     62                     63
                     A                      A                      A
 Frequencies --  1062.1927              1069.1937              1082.8776
 Red. masses --     6.8379                 2.6791                 4.1178
 Frc consts  --     4.5455                 1.8045                 2.8450
 IR Inten    --    96.6066                10.6695                37.4087
 Raman Activ --     0.5033                13.2743                 7.6226

                    64                     65                     66
                     A                      A                      A
 Frequencies --  1100.1570              1103.8205              1109.9525
 Red. masses --     2.5750                 4.3735                 2.8763
 Frc consts  --     1.8362                 3.1396                 2.0878
 IR Inten    --    13.7287                39.0222                50.3375
 Raman Activ --     1.4630                17.9771                 5.8252

                    67                     68                     69
                     A                      A                      A
 Frequencies --  1118.4814              1122.3440              1136.0979
 Red. masses --     2.7802                 2.0539                 2.4315
 Frc consts  --     2.0492                 1.5243                 1.8491
 IR Inten    --     1.6860                68.2595                60.5824
 Raman Activ --     1.9839                 6.5864                 5.6710

                    70                     71                     72
                     A                      A                      A
 Frequencies --  1142.8023              1156.7584              1164.6247
 Red. masses --     1.6148                 2.5075                 2.1025
 Frc consts  --     1.2425                 1.9769                 1.6802
 IR Inten    --    40.0665                25.4581                14.9526
 Raman Activ --     3.9375                 3.2824                 4.8728

                    73                     74                     75
                     A                      A                      A
 Frequencies --  1181.8544              1191.5218              1200.0035
 Red. masses --     2.4991                 2.0530                 1.6592
 Frc consts  --     2.0566                 1.7173                 1.4077
 IR Inten    --     9.3718                10.8414                 2.4545
 Raman Activ --     0.7989                 3.3393                 1.0827

                    76                     77                     78
                     A                      A                      A
 Frequencies --  1204.3277              1220.7924              1232.0709
 Red. masses --     1.5890                 1.3421                 1.4578
 Frc consts  --     1.3579                 1.1784                 1.3038
 IR Inten    --    27.1151                 2.6336                 8.6908
 Raman Activ --     4.6473                 0.5889                 0.8749

                    79                     80                     81
                     A                      A                      A
 Frequencies --  1242.4453              1256.7716              1267.5818
 Red. masses --     1.2966                 1.3673                 1.2089
 Frc consts  --     1.1793                 1.2724                 1.1444
 IR Inten    --    12.2979                25.4319                23.2997
 Raman Activ --     3.3031                 2.9112                 0.5054

                    82                     83                     84
                     A                      A                      A
 Frequencies --  1285.3954              1290.7155              1296.7933
 Red. masses --     1.2042                 1.3018                 1.2239
 Frc consts  --     1.1723                 1.2778                 1.2126
 IR Inten    --     8.2296                 9.8898                 8.5270
 Raman Activ --     0.5164                 1.0613                 3.4127

                    85                     86                     87
                     A                      A                      A
 Frequencies --  1305.9851              1307.7440              1319.6328
 Red. masses --     1.3066                 1.3420                 1.2773
 Frc consts  --     1.3130                 1.3522                 1.3105
 IR Inten    --     7.3683                26.8333                15.7829
 Raman Activ --     3.1876                 2.9838                 3.0505

                    88                     89                     90
                     A                      A                      A
 Frequencies --  1324.4199              1333.2450              1340.9839
 Red. masses --     1.2519                 1.2328                 1.3221
 Frc consts  --     1.2938                 1.2911                 1.4007
 IR Inten    --    10.2731                23.1347                19.2713
 Raman Activ --     8.2883                 8.9109                 7.0696

                    91                     92                     93
                     A                      A                      A
 Frequencies --  1345.0053              1351.7690              1357.6875
 Red. masses --     1.2586                 1.1594                 1.3423
 Frc consts  --     1.3415                 1.2482                 1.4578
 IR Inten    --    18.9623                38.1922                10.7151
 Raman Activ --     7.5636                 1.0356                 4.6278

                    94                     95                     96
                     A                      A                      A
 Frequencies --  1369.3046              1386.5075              1389.0472
 Red. masses --     1.1605                 1.3608                 1.4169
 Frc consts  --     1.2820                 1.5413                 1.6107
 IR Inten    --    35.7276                 2.6035                15.3894
 Raman Activ --     2.7182                 7.3210                 5.0703

                    97                     98                     99
                     A                      A                      A
 Frequencies --  1404.8720              1411.7779              1417.0413
 Red. masses --     1.1780                 1.4556                 1.2714
 Frc consts  --     1.3698                 1.7094                 1.5042
 IR Inten    --     4.1601                 9.5700                 3.8556
 Raman Activ --     3.3722                 2.5332                 4.3750

                   100                    101                    102
                     A                      A                      A
 Frequencies --  1420.3884              1460.1793              1467.5950
 Red. masses --     1.4325                 1.3319                 1.2414
 Frc consts  --     1.7028                 1.6732                 1.5753
 IR Inten    --    20.9715                77.1224                17.3188
 Raman Activ --     2.0978                 1.6176                 3.1517

                   103                    104                    105
                     A                      A                      A
 Frequencies --  1471.9348              1473.1404              1479.0287
 Red. masses --     1.1594                 1.1862                 1.2810
 Frc consts  --     1.4799                 1.5167                 1.6511
 IR Inten    --    10.2643                 1.3480                 7.1645
 Raman Activ --     5.0407                 1.7968                 0.4981

                   106                    107                    108
                     A                      A                      A
 Frequencies --  1500.1254              1550.9579              3240.9251
 Red. masses --     1.2749                 1.2548                 1.0800
 Frc consts  --     1.6904                 1.7783                 6.6836
 IR Inten    --    37.7967                50.0777                20.6164
 Raman Activ --     1.5861                 1.1541                46.0013

                   109                    110                    111
                     A                      A                      A
 Frequencies --  3252.4569              3257.6539              3260.4571
 Red. masses --     1.0603                 1.0603                 1.0802
 Frc consts  --     6.6087                 6.6299                 6.7656
 IR Inten    --    22.6997                48.0932                18.3260
 Raman Activ --    77.8174               103.1546                32.2986

                   112                    113                    114
                     A                      A                      A
 Frequencies --  3268.2098              3270.2997              3272.4545
 Red. masses --     1.0817                 1.0819                 1.0807
 Frc consts  --     6.8073                 6.8174                 6.8188
 IR Inten    --    12.5478                10.1019                10.5283
 Raman Activ --    12.5718                24.6421               237.2795

                   115                    116                    117
                     A                      A                      A
 Frequencies --  3284.8978              3286.3241              3295.8512
 Red. masses --     1.0843                 1.0855                 1.0888
 Frc consts  --     6.8933                 6.9070                 6.9685
 IR Inten    --     5.2498                 7.1430                24.6590
 Raman Activ --    50.8612                 8.3189                48.4042

                   118                    119                    120
                     A                      A                      A
 Frequencies --  3298.1587              3302.2813              3304.5956
 Red. masses --     1.0867                 1.0884                 1.0721
 Frc consts  --     6.9650                 6.9928                 6.8983
 IR Inten    --    18.4592                48.6130               304.9106
 Raman Activ --    43.0884                14.9261               218.4521

                   121                    122                    123
                     A                      A                      A
 Frequencies --  3305.8225              3310.8593              3324.4047
 Red. masses --     1.1000                 1.1017                 1.0658
 Frc consts  --     7.0829                 7.1156                 6.9400
 IR Inten    --    86.0442               117.2226               525.2634
 Raman Activ --    49.3443                23.5963               109.7251

                   124                    125                    126
                     A                      A                      A
 Frequencies --  3357.6626              3360.4818              3371.9375
 Red. masses --     1.0653                 1.0665                 1.0675
 Frc consts  --     7.0763                 7.0962                 7.1513
 IR Inten    --    48.0974                37.7466                65.3133
 Raman Activ --    87.3691               156.0364               151.8482

                   127                    128                    129
                     A                      A                      A
 Frequencies --  3373.9077              3891.1447              3891.6136
 Red. masses --     1.0672                 1.0672                 1.0677
 Frc consts  --     7.1575                 9.5199                 9.5273
 IR Inten    --    51.9972                65.6963                84.4561
 Raman Activ --   146.1539               111.7509               103.2627

 - Thermochemistry -
 -------------------
 Temperature   298.150 Kelvin.  Pressure   1.00000 Atm.
 Atom     1 has atomic number  8 and mass  15.99491

 Molecular mass:   342.11621 amu.
 Principal axes and moments of inertia in atomic units:
                           1         2         3
     Eigenvalues --  4583.38457********************
           X            0.99997   0.00755   0.00011
           Y           -0.00755   0.99997   0.00004
           Z           -0.00011  -0.00004   1.00000
 This molecule is an asymmetric top.
 Rotational symmetry number  1.
 Warning -- assumption of classical behavior for rotation
           may cause significant error
 Rotational temperatures (Kelvin)      0.01890     0.00709     0.00532
 Rotational constants (GHZ):           0.39376     0.14771     0.11085
    6 imaginary frequencies ignored.
 Zero-point vibrational energy     976436.4 (Joules/Mol)
                                  233.37389 (Kcal/Mol)
 Warning -- explicit consideration of  32 degrees of freedom as
           vibrations may cause significant error
 Vibrational temperatures:     74.67    87.27   103.05   116.81   135.75
          (Kelvin)            171.49   198.57   244.57   257.63   267.68
                              335.25   383.96   390.23   420.52   431.68
                              440.77   448.01   467.00   470.15   501.79
                              540.86   572.62   582.45   611.41   632.69
                              699.56   721.33   728.21   768.14   809.57
                              845.33   852.34   895.19   907.64   997.90
                             1001.24  1002.80  1029.14  1111.04  1122.68
                             1156.25  1224.69  1225.08  1333.80  1359.17
                             1403.23  1411.11  1419.53  1428.87  1440.23
                             1475.33  1490.11  1505.91  1525.52  1528.26
                             1538.33  1558.02  1582.88  1588.15  1596.97
                             1609.24  1614.80  1634.59  1644.24  1664.32
                             1675.63  1700.42  1714.33  1726.54  1732.76
                             1756.45  1772.67  1787.60  1808.21  1823.77
                             1849.39  1857.05  1865.79  1879.02  1881.55
                             1898.65  1905.54  1918.24  1929.37  1935.16
                             1944.89  1953.41  1970.12  1994.87  1998.53
                             2021.29  2031.23  2038.80  2043.62  2100.87
                             2111.54  2117.78  2119.52  2127.99  2158.34
                             2231.48  4662.96  4679.55  4687.03  4691.06
                             4702.22  4705.23  4708.33  4726.23  4728.28
                             4741.99  4745.31  4751.24  4754.57  4756.34
                             4763.58  4783.07  4830.92  4834.98  4851.46
                             4854.29  5598.48  5599.16

 Zero-point correction=                           0.371905 (Hartree/Particle)
 Thermal correction to Energy=                    0.391146
 Thermal correction to Enthalpy=                  0.392091
 Thermal correction to Gibbs Free Energy=         0.325091
 Sum of electronic and zero-point Energies=          -1297.590079
 Sum of electronic and thermal Energies=             -1297.570838
 Sum of electronic and thermal Enthalpies=           -1297.569894
 Sum of electronic and thermal Free Energies=        -1297.636893

                     E (Thermal)             CV                S
                      KCal/Mol        Cal/Mol-Kelvin    Cal/Mol-Kelvin
 Total                  245.448             77.953            141.012
 Electronic               0.000              0.000              0.000
 Translational            0.889              2.981             43.384
 Rotational               0.889              2.981             35.165
 Vibrational            243.671             71.991             62.462
 Vibration     1          0.596              1.977              4.744
 Vibration     2          0.597              1.973              4.436
 Vibration     3          0.598              1.968              4.108
 Vibration     4          0.600              1.962              3.862
 Vibration     5          0.603              1.953              3.568
 Vibration     6          0.609              1.933              3.113
 Vibration     7          0.614              1.915              2.831
 Vibration     8          0.625              1.879              2.436
 Vibration     9          0.629              1.868              2.338
 Vibration    10          0.632              1.859              2.267
 Vibration    11          0.654              1.790              1.856
 Vibration    12          0.672              1.734              1.616
 Vibration    13          0.675              1.726              1.588
 Vibration    14          0.688              1.688              1.461
 Vibration    15          0.693              1.674              1.417
 Vibration    16          0.697              1.662              1.382
 Vibration    17          0.700              1.652              1.355
 Vibration    18          0.709              1.626              1.287
 Vibration    19          0.710              1.622              1.276
 Vibration    20          0.726              1.578              1.172
 Vibration    21          0.747              1.521              1.056
 Vibration    22          0.764              1.474              0.970
 Vibration    23          0.770              1.460              0.945
 Vibration    24          0.787              1.416              0.875
 Vibration    25          0.800              1.384              0.827
 Vibration    26          0.842              1.281              0.693
 Vibration    27          0.857              1.247              0.655
 Vibration    28          0.861              1.236              0.643
 Vibration    29          0.889              1.175              0.579
 Vibration    30          0.918              1.112              0.519
 Vibration    31          0.945              1.058              0.472
 Vibration    32          0.950              1.048              0.463

 Normal termination of Gaussian 09 at Wed Mar 23 05:33:28 2016.
