 Gaussian 09, Revision B.01,
 Gaussian 09:  EM64L-G09RevB.01 12-Aug-2010

 -------------------------------------------------
 # freq=raman b3lyp/6-31+g(2d,p) geom=connectivity
 -------------------------------------------------

 -----------------
 350 5329/5329.com
 -----------------
 Symbolic Z-matrix:
 Charge =  0 Multiplicity = 1

                         Standard orientation:
 ---------------------------------------------------------------------
 Center     Atomic      Atomic             Coordinates (Angstroms)
 Number     Number       Type             X           Y           Z
 ---------------------------------------------------------------------
      1          8           0       -5.009805   -0.208818    0.539312
      2          6           0       -3.781888   -0.120543   -0.197735
      3          6           0       -3.249022    1.269434    0.109377
      4          8           0       -4.076114    2.295907   -0.457026
      5          1           0       -4.993074    2.202215   -0.068948
      6          6           0       -1.762497    1.432726   -0.162714
      7          8           0       -1.333824    2.733373    0.265568
      8          1           0       -0.408768    2.957715   -0.041399
      9          6           0       -3.135228   -2.656333    0.021965
     10          8           0       -4.483618   -3.072132    0.283745
     11          1           0       -4.408165   -4.062527    0.399992
     12          6           0       -2.783953   -1.189651    0.214266
     13          8           0       -1.476060   -0.903983   -0.302280
     14          6           0       -0.906946    0.266283    0.303267
     15          8           0        0.283637    0.460126   -0.474208
     16          6           0        1.567853    0.204441    0.114587
     17          6           0        2.134689   -1.065992   -0.497061
     18          8           0        1.106526   -2.027024   -0.216355
     19          1           0        0.316386   -1.536733   -0.583479
     20          6           0        3.470860   -1.569356    0.025425
     21          8           0        3.990547   -2.690790   -0.703790
     22          1           0        4.753306   -3.044854   -0.161654
     23          6           0        2.295385    2.683677    0.345677
     24          8           0        1.238383    3.234194   -0.454307
     25          1           0        1.408063    4.180937   -0.727798
     26          6           0        2.613682    1.277445   -0.136384
     27          8           0        3.813021    0.865487    0.535260
     28          6           0        4.369505   -0.343191   -0.002435
     29          8           0        5.455183   -0.717978    0.857231
     30          1           0        6.157634   -1.109914    0.333256
     31          1           0       -5.727175   -0.429426   -0.059281
     32          1           0       -2.491367   -3.228892    0.656409
     33          1           0       -2.908843   -2.912794   -0.991877
     34          1           0       -2.692463   -1.074271    1.274085
     35          1           0       -3.985166   -0.203609   -1.244959
     36          1           0       -3.351333    1.380895    1.168626
     37          1           0       -1.667680    1.440206   -1.228478
     38          1           0       -0.751770    0.206257    1.360252
     39          1           0        3.167278    3.297467    0.256426
     40          1           0        1.986846    2.648671    1.369629
     41          1           0        2.809840    1.317693   -1.187480
     42          1           0        1.450663    0.066390    1.169152
     43          1           0        2.206835   -0.935970   -1.556679
     44          1           0        3.341415   -1.866736    1.045087
     45          1           0        4.729894   -0.173259   -0.995482
 ---------------------------------------------------------------------

 SCF Done:  E(RB3LYP) =  -1297.98113958     A.U. after   13 cycles

 The electronic state is 1-A.
 Alpha  occ. eigenvalues --  -19.18953 -19.18378 -19.18222 -19.18074 -19.17355
 Alpha  occ. eigenvalues --  -19.17349 -19.16385 -19.15888 -19.14577 -19.13321
 Alpha  occ. eigenvalues --  -19.12532 -10.30716 -10.30321 -10.25903 -10.25657
 Alpha  occ. eigenvalues --  -10.25453 -10.25104 -10.24700 -10.24257 -10.24019
 Alpha  occ. eigenvalues --  -10.23717 -10.23228 -10.23164  -1.10179  -1.09007
 Alpha  occ. eigenvalues --   -1.05607  -1.04800  -1.04129  -1.03789  -1.02918
 Alpha  occ. eigenvalues --   -1.02712  -1.01149  -1.00607  -0.99017  -0.81989
 Alpha  occ. eigenvalues --   -0.79463  -0.79242  -0.77815  -0.72326  -0.69872
 Alpha  occ. eigenvalues --   -0.66793  -0.64630  -0.63192  -0.62223  -0.61303
 Alpha  occ. eigenvalues --   -0.59590  -0.56438  -0.55732  -0.54993  -0.54336
 Alpha  occ. eigenvalues --   -0.53862  -0.53276  -0.52704  -0.51916  -0.51422
 Alpha  occ. eigenvalues --   -0.50568  -0.49858  -0.48678  -0.47703  -0.46545
 Alpha  occ. eigenvalues --   -0.46118  -0.44974  -0.44182  -0.43724  -0.42962
 Alpha  occ. eigenvalues --   -0.42460  -0.41307  -0.40646  -0.40323  -0.39100
 Alpha  occ. eigenvalues --   -0.38429  -0.38287  -0.37662  -0.36174  -0.35600
 Alpha  occ. eigenvalues --   -0.35261  -0.34815  -0.34017  -0.33858  -0.33105
 Alpha  occ. eigenvalues --   -0.32521  -0.31582  -0.31376  -0.30362  -0.29224
 Alpha  occ. eigenvalues --   -0.28846  -0.28456  -0.28153  -0.26780  -0.26212
 Alpha  occ. eigenvalues --   -0.25922
 Alpha virt. eigenvalues --   -0.02042  -0.01928  -0.01439   0.00105   0.00328
 Alpha virt. eigenvalues --    0.00873   0.02164   0.02510   0.02901   0.03254
 Alpha virt. eigenvalues --    0.03741   0.04256   0.04614   0.05449   0.05836

 Mulliken atomic charges:
              1
     1  O   -0.540101
     2  C    0.044286
     3  C    0.129244
     4  O   -0.553677
     5  H    0.341352
     6  C    0.066261
     7  O   -0.615568
     8  H    0.423689
     9  C   -0.247469
    10  O   -0.502355
    11  H    0.338929
    12  C    0.118803
    13  O   -0.213974
    14  C    0.056956
    15  O   -0.251819
    16  C    0.166200
    17  C    0.255698
    18  O   -0.551434
    19  H    0.381973
    20  C   -0.039474
    21  O   -0.545218
    22  H    0.329467
    23  C   -0.253861
    24  O   -0.568257
    25  H    0.365687
    26  C   -0.061922
    27  O   -0.268828
    28  C    0.218213
    29  O   -0.548146
    30  H    0.334607
    31  H    0.338253
    32  H    0.146520
    33  H    0.145273
    34  H    0.103056
    35  H    0.122651
    36  H    0.122151
    37  H    0.127398
    38  H    0.141941
    39  H    0.148648
    40  H    0.163882
    41  H    0.121862
    42  H    0.116458
    43  H    0.123503
    44  H    0.138067
    45  H    0.131078
 Sum of Mulliken atomic charges =   0.00000

 Dipole moment (field-independent basis, Debye):
    X=              2.8021    Y=             -0.4683    Z=             -0.7982  Tot=              2.9510
 Quadrupole moment (field-independent basis, Debye-Ang):
   XX=           -119.5144   YY=           -129.5626   ZZ=           -140.9245
   XY=             13.9229   XZ=             -3.1476   YZ=             -5.3143

  Exact polarizability: 233.142  -2.667 197.138   0.644  -0.202 144.635
 Approx polarizability: 272.438  -3.031 256.976   0.258  -1.428 241.131

 ******    7 imaginary frequencies (negative Signs) ******

                     1                      2                      3
                     A                      A                      A
 Frequencies --  -329.3657              -287.0606              -220.4992
 Red. masses --     1.1857                 1.7671                 1.1471
 Frc consts  --     0.0758                 0.0858                 0.0329
 IR Inten    --   144.3870                 4.4615               109.9007
 Raman Activ --     1.4477                 0.1182                 0.7873

                     4                      5                      6
                     A                      A                      A
 Frequencies --  -168.3107               -91.0392               -55.2425
 Red. masses --     1.9123                 5.8576                 5.9701
 Frc consts  --     0.0319                 0.0286                 0.0107
 IR Inten    --     2.8481                 0.8203                 0.9704
 Raman Activ --     0.0922                 0.0692                 0.0216

                     7                      8                      9
                     A                      A                      A
 Frequencies --   -38.7765                57.7140                67.6046
 Red. masses --     6.7139                 5.9207                 6.4203
 Frc consts  --     0.0059                 0.0116                 0.0173
 IR Inten    --     1.7618                 1.5446                 0.5941
 Raman Activ --     0.0215                 0.0661                 0.0614

                    10                     11                     12
                     A                      A                      A
 Frequencies --    74.9249                89.9924               119.8732
 Red. masses --     6.3912                 6.5666                 5.6881
 Frc consts  --     0.0211                 0.0313                 0.0482
 IR Inten    --     3.0448                 0.8079                 1.1812
 Raman Activ --     0.1390                 0.2374                 0.0772

                    13                     14                     15
                     A                      A                      A
 Frequencies --   162.2385               176.1039               181.6061
 Red. masses --     6.4235                 5.4997                 7.2949
 Frc consts  --     0.0996                 0.1005                 0.1418
 IR Inten    --     2.9079                 2.9192                 1.1909
 Raman Activ --     0.3669                 0.2323                 0.8135

                    16                     17                     18
                     A                      A                      A
 Frequencies --   207.1845               231.1944               262.7048
 Red. masses --     7.0158                 5.9529                 4.9786
 Frc consts  --     0.1774                 0.1875                 0.2024
 IR Inten    --     0.8435                 1.7941                19.6744
 Raman Activ --     2.5326                 0.5939                 0.2848

                    19                     20                     21
                     A                      A                      A
 Frequencies --   276.1405               290.3152               304.3643
 Red. masses --     5.2190                 5.0417                 6.0078
 Frc consts  --     0.2345                 0.2504                 0.3279
 IR Inten    --     1.5127                 3.4717                 4.3361
 Raman Activ --     0.2176                 0.0316                 1.7100

                    22                     23                     24
                     A                      A                      A
 Frequencies --   312.2058               318.0607               324.5670
 Red. masses --     4.7444                 6.1812                 5.2652
 Frc consts  --     0.2725                 0.3684                 0.3268
 IR Inten    --     1.3862                 4.6599                 1.6339
 Raman Activ --     0.4498                 2.0417                 1.6677

                    25                     26                     27
                     A                      A                      A
 Frequencies --   340.6898               364.3865               382.9446
 Red. masses --     6.4523                 4.9318                 7.4623
 Frc consts  --     0.4412                 0.3858                 0.6448
 IR Inten    --    11.0295                 3.2210                 3.4025
 Raman Activ --     4.0465                 0.8397                 1.0960

                    28                     29                     30
                     A                      A                      A
 Frequencies --   409.5864               427.6037               433.1021
 Red. masses --     4.0259                 5.4751                 5.3058
 Frc consts  --     0.3979                 0.5898                 0.5864
 IR Inten    --    19.8763                 8.1357                 0.2833
 Raman Activ --     2.3839                 1.2160                 3.5339

                    31                     32                     33
                     A                      A                      A
 Frequencies --   453.1612               467.4184               492.0983
 Red. masses --     5.3925                 4.7689                 4.5022
 Frc consts  --     0.6525                 0.6139                 0.6424
 IR Inten    --     0.7529                 5.9723                12.8966
 Raman Activ --     1.9477                 6.3210                 0.3277

                    34                     35                     36
                     A                      A                      A
 Frequencies --   518.1969               524.5248               567.5082
 Red. masses --     3.1314                 3.7599                 4.5920
 Frc consts  --     0.4954                 0.6095                 0.8713
 IR Inten    --    14.2092                 5.6587                11.0406
 Raman Activ --     3.4063                 1.9422                 2.0402

                    37                     38                     39
                     A                      A                      A
 Frequencies --   583.1437               589.2712               607.8972
 Red. masses --     6.4532                 3.1914                 4.4499
 Frc consts  --     1.2929                 0.6529                 0.9689
 IR Inten    --     4.3517                24.9606                25.9421
 Raman Activ --     1.3026                 0.4025                 1.2162

                    40                     41                     42
                     A                      A                      A
 Frequencies --   631.3593               681.9302               693.7019
 Red. masses --     3.7210                 1.2884                 3.0214
 Frc consts  --     0.8739                 0.3530                 0.8567
 IR Inten    --    28.8370                83.7360                20.8664
 Raman Activ --     1.3589                 1.3194                 1.3905

                    43                     44                     45
                     A                      A                      A
 Frequencies --   716.0796               740.0556               745.6334
 Red. masses --     1.0801                 1.0640                 1.0773
 Frc consts  --     0.3263                 0.3433                 0.3529
 IR Inten    --    91.7331               104.2373                77.6432
 Raman Activ --     1.7005                 1.7474                 1.4249

                    46                     47                     48
                     A                      A                      A
 Frequencies --   851.3670               859.2747               890.6478
 Red. masses --     1.3828                 1.8277                 1.2942
 Frc consts  --     0.5905                 0.7951                 0.6049
 IR Inten    --    19.7030                11.4581                28.8802
 Raman Activ --     0.7923                 2.9578                 1.1641

                    49                     50                     51
                     A                      A                      A
 Frequencies --   906.4258               915.2021               954.7798
 Red. masses --     1.4849                 2.5869                 3.7711
 Frc consts  --     0.7188                 1.2766                 2.0255
 IR Inten    --   143.6868                72.1102               115.8024
 Raman Activ --     2.8594                 2.0040                 0.8457

                    52                     53                     54
                     A                      A                      A
 Frequencies --   980.1831               994.9741               996.4692
 Red. masses --     4.1271                 5.1782                 6.6900
 Frc consts  --     2.3362                 3.0203                 3.9138
 IR Inten    --    37.8915                84.4408               252.1507
 Raman Activ --     0.7027                 1.7382                 1.7385

                    55                     56                     57
                     A                      A                      A
 Frequencies --  1004.4692              1008.8517              1029.2140
 Red. masses --     6.5471                 5.6691                 6.2839
 Frc consts  --     3.8920                 3.3995                 3.9218
 IR Inten    --    29.4010               305.7692                82.0741
 Raman Activ --     3.9493                 1.8547                 0.6131

                    58                     59                     60
                     A                      A                      A
 Frequencies --  1039.6437              1041.6945              1057.5887
 Red. masses --     6.4356                 7.0214                 3.7051
 Frc consts  --     4.0983                 4.4890                 2.4417
 IR Inten    --   349.4190                38.5103                19.8289
 Raman Activ --     3.8550                 3.0254                 4.3211

                    61                     62                     63
                     A                      A                      A
 Frequencies --  1064.9731              1066.1371              1074.0828
 Red. masses --     5.9216                 5.5324                 2.8127
 Frc consts  --     3.9570                 3.7050                 1.9118
 IR Inten    --   266.6406                 6.4621                 6.0154
 Raman Activ --     2.0313                 8.8741                21.9846

                    64                     65                     66
                     A                      A                      A
 Frequencies --  1083.3911              1104.1704              1113.9518
 Red. masses --     2.6519                 2.7775                 3.0844
 Frc consts  --     1.8339                 1.9951                 2.2550
 IR Inten    --     2.1801                18.2969                70.5711
 Raman Activ --     3.7606                 1.2798                 0.5761

                    67                     68                     69
                     A                      A                      A
 Frequencies --  1117.8446              1120.5002              1124.6150
 Red. masses --     3.4701                 2.3774                 2.5339
 Frc consts  --     2.5548                 1.7587                 1.8882
 IR Inten    --    13.9612                15.3115                12.3390
 Raman Activ --     9.1722                 6.5472                10.7048

                    70                     71                     72
                     A                      A                      A
 Frequencies --  1133.8786              1140.8787              1143.0346
 Red. masses --     1.9400                 1.6389                 1.5033
 Frc consts  --     1.4695                 1.2568                 1.1572
 IR Inten    --     5.8026                14.0851                 8.5789
 Raman Activ --     4.0350                 2.2020                 1.4713

                    73                     74                     75
                     A                      A                      A
 Frequencies --  1175.0710              1186.4252              1195.7187
 Red. masses --     1.9924                 1.6084                 1.6219
 Frc consts  --     1.6209                 1.3339                 1.3663
 IR Inten    --    27.6429                 9.0483                20.5391
 Raman Activ --     4.2295                 5.1797                 2.6719

                    76                     77                     78
                     A                      A                      A
 Frequencies --  1204.8469              1209.1385              1220.4821
 Red. masses --     1.5661                 1.2813                 1.2676
 Frc consts  --     1.3394                 1.1037                 1.1125
 IR Inten    --    10.4890                21.7015                19.5358
 Raman Activ --     1.3449                 1.6241                 1.2510

                    79                     80                     81
                     A                      A                      A
 Frequencies --  1228.5472              1233.9584              1250.3987
 Red. masses --     1.3951                 1.4298                 1.3814
 Frc consts  --     1.2407                 1.2827                 1.2725
 IR Inten    --     9.3424                10.2575                 5.6673
 Raman Activ --     1.0859                 0.7394                 3.4756

                    82                     83                     84
                     A                      A                      A
 Frequencies --  1259.7561              1268.3729              1280.1368
 Red. masses --     1.2696                 1.2142                 1.3085
 Frc consts  --     1.1871                 1.1509                 1.2634
 IR Inten    --    17.3078                14.8008                13.1817
 Raman Activ --     0.4954                 1.3539                 1.3927

                    85                     86                     87
                     A                      A                      A
 Frequencies --  1290.5559              1293.9645              1307.8910
 Red. masses --     1.2650                 1.4060                 1.3355
 Frc consts  --     1.2413                 1.3870                 1.3459
 IR Inten    --     3.0853                 5.2231                52.3011
 Raman Activ --     2.6909                 1.5748                 2.6280

                    88                     89                     90
                     A                      A                      A
 Frequencies --  1316.3571              1326.8226              1334.2455
 Red. masses --     1.3646                 1.2732                 1.1394
 Frc consts  --     1.3932                 1.3206                 1.1951
 IR Inten    --     2.7822                26.5782                 2.6126
 Raman Activ --     5.5133                 2.0961                13.0394

                    91                     92                     93
                     A                      A                      A
 Frequencies --  1335.8562              1343.8439              1354.0534
 Red. masses --     1.2595                 1.3181                 1.2835
 Frc consts  --     1.3243                 1.4025                 1.3865
 IR Inten    --    10.1224                 7.5720                61.2428
 Raman Activ --     5.5167                 3.2221                 2.2017

                    94                     95                     96
                     A                      A                      A
 Frequencies --  1354.7257              1359.4844              1361.2792
 Red. masses --     1.3116                 1.2893                 1.3939
 Frc consts  --     1.4183                 1.4039                 1.5219
 IR Inten    --     7.7598                42.3562                 5.3708
 Raman Activ --     2.4233                 4.2029                 8.9994

                    97                     98                     99
                     A                      A                      A
 Frequencies --  1381.8881              1386.2574              1396.6055
 Red. masses --     1.3372                 1.5337                 1.5133
 Frc consts  --     1.5045                 1.7365                 1.7391
 IR Inten    --     3.0179                11.2634                 6.6944
 Raman Activ --     7.0175                 5.1806                 4.9091

                   100                    101                    102
                     A                      A                      A
 Frequencies --  1424.9848              1443.2023              1443.6401
 Red. masses --     1.4010                 1.4017                 1.3368
 Frc consts  --     1.6761                 1.7202                 1.6415
 IR Inten    --    30.5566                10.1898                30.1411
 Raman Activ --     0.9254                 2.2027                 1.6117

                   103                    104                    105
                     A                      A                      A
 Frequencies --  1469.9096              1474.3519              1474.8100
 Red. masses --     1.1139                 1.1303                 1.2262
 Frc consts  --     1.4180                 1.4476                 1.5714
 IR Inten    --     4.5552                 9.2063                41.2046
 Raman Activ --     4.9513                 3.1727                 3.4287

                   106                    107                    108
                     A                      A                      A
 Frequencies --  1492.2305              1502.6754              3249.9492
 Red. masses --     1.3513                 1.3404                 1.0685
 Frc consts  --     1.7728                 1.7833                 6.6495
 IR Inten    --    34.6429                58.9894               691.6417
 Raman Activ --     0.9341                 4.2661               128.6734

                   109                    110                    111
                     A                      A                      A
 Frequencies --  3251.8830              3255.1871              3262.4951
 Red. masses --     1.0806                 1.0581                 1.0787
 Frc consts  --     6.7324                 6.6058                 6.7647
 IR Inten    --    25.2873                59.4902                28.6778
 Raman Activ --    71.3978                50.7640               171.4473

                   112                    113                    114
                     A                      A                      A
 Frequencies --  3268.4169              3271.1404              3276.0564
 Red. masses --     1.0677                 1.0763                 1.0828
 Frc consts  --     6.7198                 6.7853                 6.8467
 IR Inten    --    75.3158                 5.6238                 4.1085
 Raman Activ --   115.7423                76.7565                22.4959

                   115                    116                    117
                     A                      A                      A
 Frequencies --  3278.9882              3280.6616              3292.4694
 Red. masses --     1.0830                 1.0837                 1.0866
 Frc consts  --     6.8607                 6.8720                 6.9403
 IR Inten    --    32.1412                37.1762                18.5788
 Raman Activ --    13.2431               203.9345                30.8945

                   118                    119                    120
                     A                      A                      A
 Frequencies --  3293.1340              3301.9242              3307.0851
 Red. masses --     1.0865                 1.0868                 1.0895
 Frc consts  --     6.9421                 6.9813                 7.0206
 IR Inten    --    20.4425                50.3870                23.5953
 Raman Activ --    14.1226                 4.0043                35.6241

                   121                    122                    123
                     A                      A                      A
 Frequencies --  3309.0933              3332.0941              3336.9166
 Red. masses --     1.1030                 1.1084                 1.0648
 Frc consts  --     7.1159                 7.2505                 6.9857
 IR Inten    --    72.7396                41.8273               397.3875
 Raman Activ --    27.7762                39.4300               110.8046

                   124                    125                    126
                     A                      A                      A
 Frequencies --  3362.2258              3369.1797              3370.3630
 Red. masses --     1.0659                 1.0668                 1.0657
 Frc consts  --     7.0996                 7.1349                 7.1325
 IR Inten    --    31.2890                40.0120                40.3898
 Raman Activ --   143.3542               134.9535               134.5629

                   127                    128                    129
                     A                      A                      A
 Frequencies --  3376.0536              3889.1394              3892.4858
 Red. masses --     1.0696                 1.0675                 1.0670
 Frc consts  --     7.1830                 9.5128                 9.5255
 IR Inten    --    58.3889                70.3168                64.6660
 Raman Activ --   147.5507                95.4234               103.6826

 - Thermochemistry -
 -------------------
 Temperature   298.150 Kelvin.  Pressure   1.00000 Atm.
 Atom     1 has atomic number  8 and mass  15.99491

 Molecular mass:   342.11621 amu.
 Principal axes and moments of inertia in atomic units:
                           1         2         3
     Eigenvalues --  4354.21290********************
           X            0.99998   0.00666  -0.00113
           Y           -0.00667   0.99998  -0.00136
           Z            0.00112   0.00137   1.00000
 This molecule is an asymmetric top.
 Rotational symmetry number  1.
 Warning -- assumption of classical behavior for rotation
           may cause significant error
 Rotational temperatures (Kelvin)      0.01989     0.00684     0.00524
 Rotational constants (GHZ):           0.41448     0.14244     0.10927
    7 imaginary frequencies ignored.
 Zero-point vibrational energy     975284.0 (Joules/Mol)
                                  233.09848 (Kcal/Mol)
 Warning -- explicit consideration of  32 degrees of freedom as
           vibrations may cause significant error
 Vibrational temperatures:     83.04    97.27   107.80   129.48   172.47
          (Kelvin)            233.42   253.37   261.29   298.09   332.64
                              377.97   397.30   417.70   437.91   449.19
                              457.62   466.98   490.18   524.27   550.97
                              589.30   615.23   623.14   652.00   672.51
                              708.02   745.57   754.67   816.52   839.01
                              847.83   874.63   908.38   981.14   998.08
                             1030.28  1064.77  1072.80  1224.93  1236.30
                             1281.44  1304.14  1316.77  1373.71  1410.26
                             1431.54  1433.70  1445.21  1451.51  1480.81
                             1495.81  1498.76  1521.63  1532.26  1533.93
                             1545.36  1558.76  1588.65  1602.73  1608.33
                             1612.15  1618.07  1631.40  1641.47  1644.57
                             1690.66  1707.00  1720.37  1733.50  1739.68
                             1756.00  1767.60  1775.39  1799.04  1812.51
                             1824.90  1841.83  1856.82  1861.72  1881.76
                             1893.94  1909.00  1919.68  1922.00  1933.49
                             1948.18  1949.15  1955.99  1958.57  1988.23
                             1994.51  2009.40  2050.23  2076.44  2077.07
                             2114.87  2121.26  2121.92  2146.98  2162.01
                             4675.95  4678.73  4683.48  4694.00  4702.52
                             4706.44  4713.51  4717.73  4720.13  4737.12
                             4738.08  4750.73  4758.15  4761.04  4794.13
                             4801.07  4837.49  4847.49  4849.19  4857.38
                             5595.60  5600.41

 Zero-point correction=                           0.371466 (Hartree/Particle)
 Thermal correction to Energy=                    0.389704
 Thermal correction to Enthalpy=                  0.390648
 Thermal correction to Gibbs Free Energy=         0.326181
 Sum of electronic and zero-point Energies=          -1297.609673
 Sum of electronic and thermal Energies=             -1297.591436
 Sum of electronic and thermal Enthalpies=           -1297.590492
 Sum of electronic and thermal Free Energies=        -1297.654959

                     E (Thermal)             CV                S
                      KCal/Mol        Cal/Mol-Kelvin    Cal/Mol-Kelvin
 Total                  244.543             75.661            135.682
 Electronic               0.000              0.000              0.000
 Translational            0.889              2.981             43.384
 Rotational               0.889              2.981             35.165
 Vibrational            242.765             69.700             57.133
 Vibration     1          0.596              1.974              4.534
 Vibration     2          0.598              1.970              4.222
 Vibration     3          0.599              1.966              4.020
 Vibration     4          0.602              1.956              3.660
 Vibration     5          0.609              1.933              3.102
 Vibration     6          0.622              1.889              2.524
 Vibration     7          0.628              1.872              2.369
 Vibration     8          0.630              1.865              2.312
 Vibration     9          0.641              1.830              2.068
 Vibration    10          0.653              1.793              1.870
 Vibration    11          0.670              1.741              1.644
 Vibration    12          0.678              1.718              1.557
 Vibration    13          0.686              1.692              1.472
 Vibration    14          0.695              1.665              1.393
 Vibration    15          0.701              1.650              1.351
 Vibration    16          0.704              1.639              1.320
 Vibration    17          0.709              1.626              1.287
 Vibration    18          0.720              1.594              1.209
 Vibration    19          0.738              1.546              1.103
 Vibration    20          0.752              1.507              1.028
 Vibration    21          0.774              1.449              0.928
 Vibration    22          0.789              1.410              0.867
 Vibration    23          0.794              1.398              0.849
 Vibration    24          0.812              1.354              0.786
 Vibration    25          0.825              1.322              0.745
 Vibration    26          0.848              1.268              0.678
 Vibration    27          0.873              1.210              0.614
 Vibration    28          0.879              1.196              0.600
 Vibration    29          0.923              1.102              0.509
 Vibration    30          0.940              1.068              0.480
 Vibration    31          0.947              1.055              0.468
 Vibration    32          0.967              1.015              0.436

 Normal termination of Gaussian 09 at Fri Mar 25 19:37:30 2016.
