 Gaussian 09, Revision B.01,
 Gaussian 09:  EM64L-G09RevB.01 12-Aug-2010

 -------------------------------------------------
 # freq=raman b3lyp/6-31+g(2d,p) geom=connectivity
 -------------------------------------------------

 -----------------
 473 7704/7704.com
 -----------------
 Symbolic Z-matrix:
 Charge =  0 Multiplicity = 1

                         Standard orientation:
 ---------------------------------------------------------------------
 Center     Atomic      Atomic             Coordinates (Angstroms)
 Number     Number       Type             X           Y           Z
 ---------------------------------------------------------------------
      1          8           0        5.008799   -0.408359   -0.293816
      2          6           0        3.730549   -0.081629    0.271453
      3          6           0        3.305256    1.246359   -0.333936
      4          8           0        4.256827    2.280323   -0.045180
      5          1           0        5.107669    1.883896   -0.391323
      6          6           0        1.908947    1.650928    0.107780
      7          8           0        1.212909    2.746444   -0.503182
      8          1           0        0.293054    2.763156   -0.110226
      9          6           0        3.064314   -2.590521    0.272088
     10          8           0        4.160000   -3.280389   -0.345823
     11          1           0        4.083326   -4.272062   -0.246429
     12          6           0        2.738885   -1.161638   -0.131050
     13          8           0        1.409647   -0.778231    0.247978
     14          6           0        0.902006    0.525591   -0.068356
     15          8           0       -0.323574    0.757779    0.642064
     16          6           0       -1.530289    0.220923    0.081231
     17          6           0       -1.989479   -1.178844    0.454818
     18          8           0       -0.950096   -2.096430    0.084620
     19          1           0       -0.130957   -1.772433    0.557425
     20          6           0       -3.311354   -1.552436   -0.195612
     21          8           0       -3.895764   -2.818898    0.139251
     22          1           0       -4.810295   -2.776128   -0.265141
     23          6           0       -2.382533    2.534373   -0.141302
     24          8           0       -1.271668    3.297958    0.350800
     25          1           0       -1.391641    4.284574    0.240302
     26          6           0       -2.642230    1.174915    0.488457
     27          8           0       -3.880000    0.843155   -0.157799
     28          6           0       -4.355057   -0.487575    0.095938
     29          8           0       -5.396495   -0.630044   -0.880616
     30          1           0       -6.231259   -0.795638   -0.436377
     31          1           0       -3.147751   -1.554152   -1.253029
     32          1           0       -4.741332   -0.580160    1.089477
     33          1           0       -2.113710   -1.220510    1.516765
     34          1           0       -1.437514    0.258125   -0.984089
     35          1           0       -2.750377    1.241614    1.550886
     36          1           0       -3.265314    3.125594   -0.014589
     37          1           0       -2.234763    2.384072   -1.190337
     38          1           0        2.185129   -3.175420    0.099385
     39          1           0        3.247321   -2.587344    1.326317
     40          1           0        2.742634   -1.163979   -1.201041
     41          1           0        5.620642   -0.637407    0.409593
     42          1           0        3.796837   -0.007178    1.336799
     43          1           0        3.281136    1.120684   -1.396256
     44          1           0        1.967678    1.863862    1.154733
     45          1           0        0.650721    0.507696   -1.108277
 ---------------------------------------------------------------------

 SCF Done:  E(RB3LYP) =  -1297.98262801     A.U. after   13 cycles

 The electronic state is 1-A.
 Alpha  occ. eigenvalues --  -19.18730 -19.18515 -19.17983 -19.17925 -19.17549
 Alpha  occ. eigenvalues --  -19.17165 -19.16503 -19.16293 -19.15328 -19.13920
 Alpha  occ. eigenvalues --  -19.12939 -10.30817 -10.30198 -10.25842 -10.25633
 Alpha  occ. eigenvalues --  -10.25569 -10.25294 -10.24995 -10.24686 -10.24682
 Alpha  occ. eigenvalues --  -10.24534 -10.24510 -10.24172  -1.09777  -1.09170
 Alpha  occ. eigenvalues --   -1.05675  -1.04865  -1.03823  -1.03802  -1.02930
 Alpha  occ. eigenvalues --   -1.02564  -1.02016  -1.01069  -1.00125  -0.82222
 Alpha  occ. eigenvalues --   -0.80326  -0.79573  -0.78341  -0.71777  -0.70074
 Alpha  occ. eigenvalues --   -0.67684  -0.64633  -0.63175  -0.62777  -0.61253
 Alpha  occ. eigenvalues --   -0.59937  -0.56696  -0.55922  -0.55351  -0.54863
 Alpha  occ. eigenvalues --   -0.54048  -0.53116  -0.52591  -0.51836  -0.50708
 Alpha  occ. eigenvalues --   -0.50591  -0.50451  -0.49709  -0.48364  -0.46290
 Alpha  occ. eigenvalues --   -0.45971  -0.44935  -0.44693  -0.43949  -0.43433
 Alpha  occ. eigenvalues --   -0.42655  -0.41949  -0.41370  -0.40050  -0.39676
 Alpha  occ. eigenvalues --   -0.38697  -0.38422  -0.37192  -0.36581  -0.36016
 Alpha  occ. eigenvalues --   -0.35877  -0.35043  -0.34398  -0.33669  -0.33098
 Alpha  occ. eigenvalues --   -0.32328  -0.31541  -0.30755  -0.30383  -0.30097
 Alpha  occ. eigenvalues --   -0.28979  -0.28783  -0.28444  -0.27382  -0.26614
 Alpha  occ. eigenvalues --   -0.26195
 Alpha virt. eigenvalues --   -0.02112  -0.01790  -0.01377  -0.00016   0.00284
 Alpha virt. eigenvalues --    0.00921   0.02003   0.02078   0.03262   0.03717
 Alpha virt. eigenvalues --    0.03964   0.04165   0.04869   0.05369   0.05570

 Mulliken atomic charges:
              1
     1  O   -0.546051
     2  C    0.021432
     3  C    0.194370
     4  O   -0.543410
     5  H    0.346336
     6  C   -0.231277
     7  O   -0.580090
     8  H    0.442776
     9  C   -0.255915
    10  O   -0.524297
    11  H    0.343664
    12  C    0.188996
    13  O   -0.303560
    14  C    0.374273
    15  O   -0.266366
    16  C    0.175864
    17  C    0.074845
    18  O   -0.518081
    19  H    0.360594
    20  C    0.073489
    21  O   -0.541583
    22  H    0.335879
    23  C   -0.192781
    24  O   -0.587619
    25  H    0.363032
    26  C   -0.046130
    27  O   -0.221912
    28  C    0.101878
    29  O   -0.531344
    30  H    0.335168
    31  H    0.134691
    32  H    0.136003
    33  H    0.115846
    34  H    0.115851
    35  H    0.130179
    36  H    0.141232
    37  H    0.156299
    38  H    0.151719
    39  H    0.134988
    40  H    0.114298
    41  H    0.339401
    42  H    0.120490
    43  H    0.123056
    44  H    0.126590
    45  H    0.117178
 Sum of Mulliken atomic charges =   0.00000

 Dipole moment (field-independent basis, Debye):
    X=             -2.6639    Y=             -0.6166    Z=              2.6273  Tot=              3.7920
 Quadrupole moment (field-independent basis, Debye-Ang):
   XX=           -112.8038   YY=           -139.3913   ZZ=           -139.1072
   XY=            -17.0911   XZ=              2.0940   YZ=             -1.1208

  Exact polarizability: 234.545   0.934 198.167   1.019  -0.476 144.082
 Approx polarizability: 275.860  -0.047 258.425   1.128   1.193 239.063

 ******    7 imaginary frequencies (negative Signs) ******

                     1                      2                      3
                     A                      A                      A
 Frequencies --  -307.8613              -213.4326              -206.5298
 Red. masses --     1.6930                 1.8927                 1.1796
 Frc consts  --     0.0945                 0.0508                 0.0296
 IR Inten    --     9.6009                 4.7357                91.0299
 Raman Activ --     0.1098                 0.0508                 0.7570

                     4                      5                      6
                     A                      A                      A
 Frequencies --  -136.0619              -101.0649               -61.5741
 Red. masses --     1.2915                 6.9830                 5.9583
 Frc consts  --     0.0141                 0.0420                 0.0133
 IR Inten    --   101.2047                 1.2327                 1.0998
 Raman Activ --     0.7924                 0.0563                 0.0765

                     7                      8                      9
                     A                      A                      A
 Frequencies --   -40.2756                25.3584                56.2144
 Red. masses --     6.1668                 6.7779                 6.3847
 Frc consts  --     0.0059                 0.0026                 0.0119
 IR Inten    --     0.3956                 1.8256                 1.6107
 Raman Activ --     0.0075                 0.0422                 0.0391

                    10                     11                     12
                     A                      A                      A
 Frequencies --    86.3416               101.7101               103.4110
 Red. masses --     5.6297                 5.9848                 5.8495
 Frc consts  --     0.0247                 0.0365                 0.0369
 IR Inten    --     4.0483                 3.1964                 0.5489
 Raman Activ --     0.3835                 0.0866                 0.1647

                    13                     14                     15
                     A                      A                      A
 Frequencies --   146.9305               166.8100               184.6457
 Red. masses --     6.2669                 6.3602                 7.4534
 Frc consts  --     0.0797                 0.1043                 0.1497
 IR Inten    --     8.2741                 1.1584                 0.3580
 Raman Activ --     0.2709                 0.4283                 0.3629

                    16                     17                     18
                     A                      A                      A
 Frequencies --   208.3297               233.8104               242.0927
 Red. masses --     6.8208                 4.7836                 5.1100
 Frc consts  --     0.1744                 0.1541                 0.1765
 IR Inten    --     0.9342                 4.9734                14.9693
 Raman Activ --     3.4164                 0.4701                 0.4890

                    19                     20                     21
                     A                      A                      A
 Frequencies --   273.5485               289.8264               303.8169
 Red. masses --     4.8413                 5.2504                 5.5174
 Frc consts  --     0.2134                 0.2598                 0.3001
 IR Inten    --     3.3513                 2.4406                 1.0273
 Raman Activ --     0.2755                 0.3003                 0.5971

                    22                     23                     24
                     A                      A                      A
 Frequencies --   311.4489               314.9184               332.7799
 Red. masses --     6.0704                 5.2926                 4.9652
 Frc consts  --     0.3469                 0.3093                 0.3240
 IR Inten    --     3.3838                 6.9663                 5.8233
 Raman Activ --     3.5241                 0.8428                 1.7759

                    25                     26                     27
                     A                      A                      A
 Frequencies --   347.4103               363.6609               378.0055
 Red. masses --     6.8739                 4.3745                 4.1678
 Frc consts  --     0.4888                 0.3409                 0.3509
 IR Inten    --     7.4092                 4.4958                 5.1436
 Raman Activ --     4.2954                 0.6627                 1.2927

                    28                     29                     30
                     A                      A                      A
 Frequencies --   407.6397               418.3328               438.5599
 Red. masses --     6.3960                 7.4392                 5.0318
 Frc consts  --     0.6262                 0.7670                 0.5702
 IR Inten    --    14.7804                 6.7687                 1.2284
 Raman Activ --     2.8087                 4.9540                 4.3301

                    31                     32                     33
                     A                      A                      A
 Frequencies --   441.2203               474.4148               488.1940
 Red. masses --     4.9485                 4.7670                 3.8209
 Frc consts  --     0.5676                 0.6321                 0.5365
 IR Inten    --     2.5792                 2.4997                10.9310
 Raman Activ --     1.8208                 1.1989                 2.4042

                    34                     35                     36
                     A                      A                      A
 Frequencies --   512.9094               522.8083               569.5900
 Red. masses --     3.3576                 3.7705                 3.3529
 Frc consts  --     0.5204                 0.6072                 0.6409
 IR Inten    --     5.4260                11.3483                12.7445
 Raman Activ --     4.5685                 1.6865                 0.7593

                    37                     38                     39
                     A                      A                      A
 Frequencies --   581.1641               602.8009               615.1839
 Red. masses --     2.6915                 6.4136                 5.6477
 Frc consts  --     0.5356                 1.3731                 1.2593
 IR Inten    --    55.5682                 9.4289                 1.7662
 Raman Activ --     0.3568                 0.4732                 0.7106

                    40                     41                     42
                     A                      A                      A
 Frequencies --   629.6569               657.4398               674.5044
 Red. masses --     4.3758                 1.1005                 4.8108
 Frc consts  --     1.0221                 0.2803                 1.2895
 IR Inten    --    31.7619               118.4514                14.8495
 Raman Activ --     1.6242                 2.0236                 0.3558

                    43                     44                     45
                     A                      A                      A
 Frequencies --   701.2215               758.1910               765.2807
 Red. masses --     1.0876                 1.0722                 1.1158
 Frc consts  --     0.3151                 0.3631                 0.3850
 IR Inten    --   116.0792                81.0805               183.8112
 Raman Activ --     1.9196                 1.6127                 4.3841

                    46                     47                     48
                     A                      A                      A
 Frequencies --   777.5059               840.2600               855.3757
 Red. masses --     1.1007                 1.8153                 1.4626
 Frc consts  --     0.3920                 0.7551                 0.6305
 IR Inten    --    89.2531                 5.8469                16.0798
 Raman Activ --     1.5353                 0.6376                 0.3894

                    49                     50                     51
                     A                      A                      A
 Frequencies --   893.6037               918.6265               953.5966
 Red. masses --     1.2956                 4.9333                 4.9459
 Frc consts  --     0.6096                 2.4528                 2.6499
 IR Inten    --    74.7368               127.7805                59.2211
 Raman Activ --     0.5523                 2.4539                 0.5276

                    52                     53                     54
                     A                      A                      A
 Frequencies --   969.0363               977.9337               980.5736
 Red. masses --     6.7516                 4.7922                 5.8804
 Frc consts  --     3.7354                 2.7003                 3.3313
 IR Inten    --    38.2676                23.8315               158.9657
 Raman Activ --     1.2821                 2.0514                 1.0244

                    55                     56                     57
                     A                      A                      A
 Frequencies --   986.3970              1009.6536              1022.4909
 Red. masses --     5.4630                 5.9727                 5.4480
 Frc consts  --     3.1317                 3.5873                 3.3559
 IR Inten    --   411.3590                43.5644               118.1124
 Raman Activ --     2.0748                 2.9379                 2.4418

                    58                     59                     60
                     A                      A                      A
 Frequencies --  1026.5004              1055.0674              1059.8179
 Red. masses --     6.4242                 3.9806                 4.0529
 Frc consts  --     3.9883                 2.6107                 2.6821
 IR Inten    --   343.8373                25.8232               213.9604
 Raman Activ --     1.8644                10.5106                 5.2452

                    61                     62                     63
                     A                      A                      A
 Frequencies --  1061.1686              1067.2101              1079.4540
 Red. masses --     4.6709                 4.8929                 4.0844
 Frc consts  --     3.0990                 3.2833                 2.8041
 IR Inten    --    16.4902                15.1166                20.6905
 Raman Activ --    10.2139                 5.4301                10.4089

                    64                     65                     66
                     A                      A                      A
 Frequencies --  1100.8110              1106.7343              1111.4139
 Red. masses --     3.1616                 2.7070                 2.5641
 Frc consts  --     2.2573                 1.9535                 1.8661
 IR Inten    --    11.4751                58.8751                41.5402
 Raman Activ --     9.4743                 4.5052                 3.4144

                    67                     68                     69
                     A                      A                      A
 Frequencies --  1116.1860              1126.4968              1133.9890
 Red. masses --     3.0552                 2.0588                 2.6675
 Frc consts  --     2.2426                 1.5393                 2.0210
 IR Inten    --    10.8675                 4.4303               147.6325
 Raman Activ --     4.8506                 5.8112                 4.2247

                    70                     71                     72
                     A                      A                      A
 Frequencies --  1137.0233              1147.1115              1159.7381
 Red. masses --     2.6102                 2.7258                 1.4640
 Frc consts  --     1.9882                 2.1133                 1.1602
 IR Inten    --    10.8860                16.7973                 4.4043
 Raman Activ --     2.5475                 2.2970                 1.4211

                    73                     74                     75
                     A                      A                      A
 Frequencies --  1163.4739              1166.7445              1188.7782
 Red. masses --     2.5289                 1.8307                 1.6047
 Frc consts  --     2.0170                 1.4683                 1.3361
 IR Inten    --    18.3056                 7.6984                17.4297
 Raman Activ --     2.8473                 4.6166                 1.7484

                    76                     77                     78
                     A                      A                      A
 Frequencies --  1197.4437              1201.2815              1225.7981
 Red. masses --     1.3960                 1.3142                 1.3225
 Frc consts  --     1.1794                 1.1174                 1.1708
 IR Inten    --    11.3674                13.1777                 1.7243
 Raman Activ --     3.0879                 0.2970                 2.8381

                    79                     80                     81
                     A                      A                      A
 Frequencies --  1232.2151              1258.5930              1271.9747
 Red. masses --     1.3734                 1.3539                 1.2308
 Frc consts  --     1.2286                 1.2636                 1.1732
 IR Inten    --     4.0747                 6.3157                 5.8167
 Raman Activ --     1.5007                 0.3901                 2.1032

                    82                     83                     84
                     A                      A                      A
 Frequencies --  1272.7847              1275.1302              1281.6332
 Red. masses --     1.2453                 1.3022                 1.2276
 Frc consts  --     1.1886                 1.2475                 1.1880
 IR Inten    --    20.7941                33.3826                 6.2750
 Raman Activ --     1.2138                 3.0922                 3.3319

                    85                     86                     87
                     A                      A                      A
 Frequencies --  1286.5168              1291.6029              1305.2663
 Red. masses --     1.3104                 1.1578                 1.2822
 Frc consts  --     1.2778                 1.1380                 1.2871
 IR Inten    --     6.7039                 2.1338                49.5887
 Raman Activ --     2.2840                 2.2718                 6.4860

                    88                     89                     90
                     A                      A                      A
 Frequencies --  1319.1433              1328.0452              1334.9115
 Red. masses --     1.2037                 1.2341                 1.1788
 Frc consts  --     1.2341                 1.2824                 1.2377
 IR Inten    --     6.2371                31.4408                24.7190
 Raman Activ --     5.3800                 8.3606                 1.8137

                    91                     92                     93
                     A                      A                      A
 Frequencies --  1342.0894              1344.3772              1352.9920
 Red. masses --     1.2616                 1.2325                 1.1826
 Frc consts  --     1.3389                 1.3125                 1.2755
 IR Inten    --    36.1260                33.1513                24.2278
 Raman Activ --     8.4600                 1.9938                 1.5541

                    94                     95                     96
                     A                      A                      A
 Frequencies --  1354.0959              1363.3373              1373.0918
 Red. masses --     1.1993                 1.6208                 1.5755
 Frc consts  --     1.2956                 1.7750                 1.7501
 IR Inten    --    27.5465                10.6050                 8.0437
 Raman Activ --     2.5450                 5.1888                 6.8246

                    97                     98                     99
                     A                      A                      A
 Frequencies --  1375.6771              1389.5563              1405.4073
 Red. masses --     1.4640                 1.5373                 1.3395
 Frc consts  --     1.6324                 1.7489                 1.5589
 IR Inten    --     1.4069                 6.9106                 5.6124
 Raman Activ --     6.0054                 4.2095                 7.1813

                   100                    101                    102
                     A                      A                      A
 Frequencies --  1444.4526              1445.6622              1467.9802
 Red. masses --     1.3901                 1.3980                 1.3748
 Frc consts  --     1.7088                 1.7214                 1.7456
 IR Inten    --    37.0820                 3.7338                40.6583
 Raman Activ --     0.7431                 1.1561                 1.1330

                   103                    104                    105
                     A                      A                      A
 Frequencies --  1469.6281              1473.5572              1478.3057
 Red. masses --     1.0907                 1.2546                 1.1093
 Frc consts  --     1.3880                 1.6051                 1.4283
 IR Inten    --     6.6916                34.8368                 6.3870
 Raman Activ --     3.3491                 1.5439                 3.8597

                   106                    107                    108
                     A                      A                      A
 Frequencies --  1497.6584              1515.6140              3232.2038
 Red. masses --     1.3452                 1.2615                 1.0693
 Frc consts  --     1.7777                 1.7073                 6.5817
 IR Inten    --    73.8276                57.6463               882.3665
 Raman Activ --     4.0582                 2.0446               137.9496

                   109                    110                    111
                     A                      A                      A
 Frequencies --  3251.8722              3264.1102              3265.2358
 Red. masses --     1.0610                 1.0660                 1.0759
 Frc consts  --     6.6106                 6.6920                 6.7586
 IR Inten    --    21.1673                 4.2636                78.9171
 Raman Activ --   106.9820                94.7168                17.0449

                   112                    113                    114
                     A                      A                      A
 Frequencies --  3266.3821              3268.0637              3272.3983
 Red. masses --     1.0774                 1.0812                 1.0813
 Frc consts  --     6.7727                 6.8034                 6.8224
 IR Inten    --     3.1861                 8.6312                 3.6734
 Raman Activ --    32.8920               200.6433                92.8550

                   115                    116                    117
                     A                      A                      A
 Frequencies --  3277.6986              3283.7078              3284.9349
 Red. masses --     1.0830                 1.0849                 1.0843
 Frc consts  --     6.8552                 6.8923                 6.8937
 IR Inten    --     0.3472                16.1861                 4.3444
 Raman Activ --     2.0300                 8.0828               179.2786

                   118                    119                    120
                     A                      A                      A
 Frequencies --  3292.1246              3298.5869              3299.7079
 Red. masses --     1.0865                 1.0880                 1.0874
 Frc consts  --     6.9380                 6.9749                 6.9757
 IR Inten    --     8.8773                42.2815               101.6047
 Raman Activ --    17.1684                12.6521                35.8167

                   121                    122                    123
                     A                      A                      A
 Frequencies --  3308.3895              3320.4956              3321.7092
 Red. masses --     1.1033                 1.0715                 1.1015
 Frc consts  --     7.1152                 6.9609                 7.1607
 IR Inten    --    47.5938               439.2791                74.8526
 Raman Activ --    33.9460               144.1312                28.4426

                   124                    125                    126
                     A                      A                      A
 Frequencies --  3352.0868              3361.7594              3372.5481
 Red. masses --     1.0648                 1.0644                 1.0682
 Frc consts  --     7.0495                 7.0876                 7.1584
 IR Inten    --    40.6339                40.2036                64.1411
 Raman Activ --   100.6586                90.3176               166.1867

                   127                    128                    129
                     A                      A                      A
 Frequencies --  3374.5577              3889.6063              3890.9412
 Red. masses --     1.0682                 1.0674                 1.0675
 Frc consts  --     7.1668                 9.5149                 9.5217
 IR Inten    --    59.3785                73.9036                70.2966
 Raman Activ --   171.1592               118.1329                99.7076

 - Thermochemistry -
 -------------------
 Temperature   298.150 Kelvin.  Pressure   1.00000 Atm.
 Atom     1 has atomic number  8 and mass  15.99491

 Molecular mass:   342.11621 amu.
 Principal axes and moments of inertia in atomic units:
                           1         2         3
     Eigenvalues --  4449.23433********************
           X            0.99997  -0.00801   0.00048
           Y            0.00801   0.99996  -0.00283
           Z           -0.00046   0.00284   1.00000
 This molecule is an asymmetric top.
 Rotational symmetry number  1.
 Warning -- assumption of classical behavior for rotation
           may cause significant error
 Rotational temperatures (Kelvin)      0.01947     0.00699     0.00528
 Rotational constants (GHZ):           0.40563     0.14560     0.10996
    7 imaginary frequencies ignored.
 Zero-point vibrational energy     974046.7 (Joules/Mol)
                                  232.80276 (Kcal/Mol)
 Warning -- explicit consideration of  32 degrees of freedom as
           vibrations may cause significant error
 Vibrational temperatures:     36.48    80.88   124.23   146.34   148.79
          (Kelvin)            211.40   240.00   265.66   299.74   336.40
                              348.32   393.57   417.00   437.12   448.10
                              453.10   478.80   499.85   523.23   543.86
                              586.50   601.89   630.99   634.82   682.58
                              702.40   737.96   752.20   819.51   836.16
                              867.29   885.11   905.93   945.91   970.46
                             1008.90  1090.87  1101.07  1118.66  1208.95
                             1230.69  1285.69  1321.70  1372.01  1394.23
                             1407.03  1410.82  1419.20  1452.66  1471.13
                             1476.90  1518.00  1524.84  1526.78  1535.48
                             1553.09  1583.82  1592.34  1599.07  1605.94
                             1620.78  1631.56  1635.92  1650.44  1668.60
                             1673.98  1678.68  1710.38  1722.85  1728.37
                             1763.65  1772.88  1810.83  1830.09  1831.25
                             1834.63  1843.98  1851.01  1858.33  1877.98
                             1897.95  1910.76  1920.64  1930.96  1934.26
                             1946.65  1948.24  1961.54  1975.57  1979.29
                             1999.26  2022.07  2078.24  2079.98  2112.09
                             2114.46  2120.12  2126.95  2154.79  2180.63
                             4650.41  4678.71  4696.32  4697.94  4699.59
                             4702.01  4708.25  4715.87  4724.52  4726.28
                             4736.63  4745.92  4747.54  4760.03  4777.45
                             4779.19  4822.90  4836.82  4852.34  4855.23
                             5596.27  5598.19

 Zero-point correction=                           0.370995 (Hartree/Particle)
 Thermal correction to Energy=                    0.389424
 Thermal correction to Enthalpy=                  0.390369
 Thermal correction to Gibbs Free Energy=         0.324812
 Sum of electronic and zero-point Energies=          -1297.611633
 Sum of electronic and thermal Energies=             -1297.593204
 Sum of electronic and thermal Enthalpies=           -1297.592259
 Sum of electronic and thermal Free Energies=        -1297.657816

                     E (Thermal)             CV                S
                      KCal/Mol        Cal/Mol-Kelvin    Cal/Mol-Kelvin
 Total                  244.368             75.983            137.975
 Electronic               0.000              0.000              0.000
 Translational            0.889              2.981             43.384
 Rotational               0.889              2.981             35.158
 Vibrational            242.590             70.022             59.432
 Vibration     1          0.593              1.985              6.163
 Vibration     2          0.596              1.975              4.586
 Vibration     3          0.601              1.959              3.741
 Vibration     4          0.604              1.948              3.421
 Vibration     5          0.605              1.946              3.389
 Vibration     6          0.617              1.906              2.712
 Vibration     7          0.624              1.883              2.471
 Vibration     8          0.631              1.861              2.281
 Vibration     9          0.642              1.828              2.058
 Vibration    10          0.654              1.789              1.850
 Vibration    11          0.658              1.776              1.787
 Vibration    12          0.676              1.722              1.574
 Vibration    13          0.686              1.693              1.475
 Vibration    14          0.695              1.666              1.396
 Vibration    15          0.700              1.652              1.355
 Vibration    16          0.702              1.645              1.336
 Vibration    17          0.715              1.610              1.247
 Vibration    18          0.725              1.581              1.178
 Vibration    19          0.737              1.547              1.106
 Vibration    20          0.748              1.517              1.047
 Vibration    21          0.772              1.454              0.935
 Vibration    22          0.781              1.430              0.898
 Vibration    23          0.799              1.386              0.831
 Vibration    24          0.801              1.380              0.823
 Vibration    25          0.831              1.307              0.725
 Vibration    26          0.844              1.276              0.688
 Vibration    27          0.868              1.221              0.627
 Vibration    28          0.878              1.199              0.603
 Vibration    29          0.926              1.097              0.505
 Vibration    30          0.938              1.072              0.483
 Vibration    31          0.961              1.026              0.445
 Vibration    32          0.975              1.000              0.424

 Normal termination of Gaussian 09 at Tue Mar 29 17:40:50 2016.
