 Gaussian 09, Revision B.01,
 Gaussian 09:  EM64L-G09RevB.01 12-Aug-2010

 -------------------------------------------------
 # freq=raman b3lyp/6-31+g(2d,p) geom=connectivity
 -------------------------------------------------

 -----------------
 350 9940/9940.com
 -----------------
 Symbolic Z-matrix:
 Charge =  0 Multiplicity = 1

                         Standard orientation:
 ---------------------------------------------------------------------
 Center     Atomic      Atomic             Coordinates (Angstroms)
 Number     Number       Type             X           Y           Z
 ---------------------------------------------------------------------
      1          8           0       -5.068747   -0.286269    0.404258
      2          6           0       -3.798844   -0.061242   -0.225023
      3          6           0       -3.229311    1.254299    0.280002
      4          8           0       -4.033160    2.415370    0.027665
      5          1           0       -4.981711    2.230789    0.285132
      6          6           0       -1.806167    1.570447   -0.150877
      7          8           0       -1.220968    2.785953    0.337517
      8          1           0       -0.470494    3.146201   -0.217182
      9          6           0       -3.116604   -2.523171   -0.095058
     10          8           0       -4.360852   -3.158493    0.232412
     11          1           0       -4.176273   -4.134702    0.113513
     12          6           0       -2.776721   -1.082504    0.247558
     13          8           0       -1.539959   -0.792699   -0.421903
     14          6           0       -0.918190    0.372169    0.139158
     15          8           0        0.312121    0.427895   -0.598676
     16          6           0        1.524010    0.148080    0.115661
     17          6           0        1.980849   -1.221140   -0.360576
     18          8           0        0.937898   -2.201509   -0.266263
     19          1           0        0.115249   -1.732181   -0.589015
     20          6           0        3.319636   -1.644293    0.221293
     21          8           0        3.851720   -2.842440   -0.363204
     22          1           0        4.704337   -3.154335    0.056458
     23          6           0        2.466981    2.615170    0.106000
     24          8           0        1.454174    3.404183   -0.535918
     25          1           0        1.676375    4.379280   -0.536731
     26          6           0        2.613348    1.143404   -0.247924
     27          8           0        3.867584    0.864757    0.392850
     28          6           0        4.268436   -0.470144    0.050571
     29          8           0        5.479212   -0.620747    0.807535
     30          1           0       -5.734627   -0.448802   -0.267893
     31          1           0       -2.349640   -3.123773    0.347597
     32          1           0       -3.007068   -2.611139   -1.155795
     33          1           0       -2.640986   -0.989207    1.304806
     34          1           0       -3.885275   -0.062539   -1.291526
     35          1           0       -3.192426    1.155262    1.344770
     36          1           0       -1.836710    1.668207   -1.215964
     37          1           0       -0.742347    0.254627    1.188044
     38          1           0        3.407953    3.084356   -0.092336
     39          1           0        2.293048    2.672268    1.160223
     40          1           0        2.764672    1.078574   -1.305184
     41          1           0        1.350188    0.143335    1.171437
     42          1           0        2.159410   -1.106393   -1.409313
     43          1           0        3.187605   -1.816796    1.269010
     44          1           0        6.216874   -0.754773    0.207959
     45          1           0        4.545126   -0.452707   -0.982889
 ---------------------------------------------------------------------

 SCF Done:  E(RB3LYP) =  -1297.98195573     A.U. after   13 cycles

 The electronic state is 1-A.
 Alpha  occ. eigenvalues --  -19.18548 -19.18186 -19.18169 -19.17736 -19.17287
 Alpha  occ. eigenvalues --  -19.16928 -19.16777 -19.16241 -19.14976 -19.14041
 Alpha  occ. eigenvalues --  -19.13964 -10.30498 -10.30151 -10.25941 -10.25777
 Alpha  occ. eigenvalues --  -10.25689 -10.25483 -10.25300 -10.24714 -10.24419
 Alpha  occ. eigenvalues --  -10.24271 -10.24244 -10.23835  -1.10348  -1.09120
 Alpha  occ. eigenvalues --   -1.05307  -1.04349  -1.04006  -1.03402  -1.02747
 Alpha  occ. eigenvalues --   -1.02397  -1.01878  -1.00675  -0.99958  -0.82391
 Alpha  occ. eigenvalues --   -0.80565  -0.79535  -0.78359  -0.71955  -0.70056
 Alpha  occ. eigenvalues --   -0.66951  -0.64890  -0.63177  -0.62142  -0.61542
 Alpha  occ. eigenvalues --   -0.60546  -0.56236  -0.55692  -0.54896  -0.54637
 Alpha  occ. eigenvalues --   -0.53851  -0.53425  -0.53111  -0.51878  -0.51349
 Alpha  occ. eigenvalues --   -0.50476  -0.49892  -0.49230  -0.48624  -0.46306
 Alpha  occ. eigenvalues --   -0.45702  -0.45068  -0.44378  -0.43707  -0.43187
 Alpha  occ. eigenvalues --   -0.42254  -0.41851  -0.41547  -0.40385  -0.39388
 Alpha  occ. eigenvalues --   -0.38774  -0.37514  -0.36615  -0.36303  -0.36055
 Alpha  occ. eigenvalues --   -0.35562  -0.34860  -0.34434  -0.33976  -0.33345
 Alpha  occ. eigenvalues --   -0.32513  -0.31334  -0.30811  -0.30319  -0.30016
 Alpha  occ. eigenvalues --   -0.29186  -0.28507  -0.28409  -0.27430  -0.26674
 Alpha  occ. eigenvalues --   -0.26617
 Alpha virt. eigenvalues --   -0.01849  -0.01739  -0.01723  -0.00196   0.00284
 Alpha virt. eigenvalues --    0.00836   0.02139   0.02162   0.03105   0.03207
 Alpha virt. eigenvalues --    0.03684   0.04392   0.04823   0.05294   0.05645

 Mulliken atomic charges:
              1
     1  O   -0.539840
     2  C    0.050441
     3  C    0.304387
     4  O   -0.567146
     5  H    0.340478
     6  C   -0.286343
     7  O   -0.551478
     8  H    0.386723
     9  C   -0.306519
    10  O   -0.516446
    11  H    0.336721
    12  C    0.200985
    13  O   -0.245061
    14  C    0.179306
    15  O   -0.245682
    16  C    0.395162
    17  C    0.158742
    18  O   -0.574693
    19  H    0.385749
    20  C    0.061121
    21  O   -0.538321
    22  H    0.339700
    23  C   -0.309383
    24  O   -0.581978
    25  H    0.353795
    26  C   -0.065576
    27  O   -0.218345
    28  C    0.129141
    29  O   -0.536328
    30  H    0.338402
    31  H    0.149017
    32  H    0.142802
    33  H    0.114881
    34  H    0.124787
    35  H    0.111962
    36  H    0.124812
    37  H    0.125768
    38  H    0.146818
    39  H    0.156045
    40  H    0.119182
    41  H    0.111800
    42  H    0.114423
    43  H    0.129068
    44  H    0.332484
    45  H    0.118437
 Sum of Mulliken atomic charges =   0.00000

 Dipole moment (field-independent basis, Debye):
    X=              2.0259    Y=             -0.0678    Z=             -1.6468  Tot=              2.6116
 Quadrupole moment (field-independent basis, Debye-Ang):
   XX=           -118.1060   YY=           -134.2496   ZZ=           -140.2242
   XY=             11.1712   XZ=              1.0553   YZ=             -3.4738

  Exact polarizability: 233.037  -1.037 199.900   1.200   0.062 143.506
 Approx polarizability: 273.564   0.886 259.257   1.355   0.152 239.831

 ******    6 imaginary frequencies (negative Signs) ******

                     1                      2                      3
                     A                      A                      A
 Frequencies --  -314.7893              -262.1496              -254.3512
 Red. masses --     1.6772                 1.7585                 1.1507
 Frc consts  --     0.0979                 0.0712                 0.0439
 IR Inten    --     7.8178                 4.7469                94.4236
 Raman Activ --     0.0950                 0.0656                 0.8289

                     4                      5                      6
                     A                      A                      A
 Frequencies --  -228.6486               -63.3237               -57.2790
 Red. masses --     1.1976                 6.3852                 6.6150
 Frc consts  --     0.0369                 0.0151                 0.0128
 IR Inten    --   105.0238                 0.0506                 1.2925
 Raman Activ --     0.8186                 0.0152                 0.0723

                     7                      8                      9
                     A                      A                      A
 Frequencies --    43.3552                60.7366                72.0723
 Red. masses --     7.0009                 6.2976                 6.3721
 Frc consts  --     0.0078                 0.0137                 0.0195
 IR Inten    --     0.2030                 0.7249                 1.7483
 Raman Activ --     0.1177                 0.0703                 0.1242

                    10                     11                     12
                     A                      A                      A
 Frequencies --    90.4950               103.3723               108.4602
 Red. masses --     6.4454                 6.8689                 6.0075
 Frc consts  --     0.0311                 0.0432                 0.0416
 IR Inten    --     1.4594                 0.3318                 4.0961
 Raman Activ --     0.0576                 0.0312                 0.1070

                    13                     14                     15
                     A                      A                      A
 Frequencies --   145.4943               171.2751               177.1927
 Red. masses --     6.4912                 7.5046                 6.4512
 Frc consts  --     0.0810                 0.1297                 0.1193
 IR Inten    --     4.7374                 0.0622                 0.6204
 Raman Activ --     0.3912                 0.4920                 1.2950

                    16                     17                     18
                     A                      A                      A
 Frequencies --   196.0409               238.7742               270.6837
 Red. masses --     5.6406                 6.3443                 4.9945
 Frc consts  --     0.1277                 0.2131                 0.2156
 IR Inten    --     1.6994                 2.2838                 3.6941
 Raman Activ --     0.4475                 1.0065                 0.2885

                    19                     20                     21
                     A                      A                      A
 Frequencies --   280.5077               288.8441               297.5658
 Red. masses --     5.4062                 5.3350                 5.0183
 Frc consts  --     0.2506                 0.2622                 0.2618
 IR Inten    --     1.5848                 3.2028                13.4749
 Raman Activ --     0.1557                 1.0413                 0.0599

                    22                     23                     24
                     A                      A                      A
 Frequencies --   315.0784               319.6494               321.2801
 Red. masses --     5.0913                 5.0005                 5.3121
 Frc consts  --     0.2978                 0.3010                 0.3231
 IR Inten    --     1.9141                 3.5941                 3.8934
 Raman Activ --     0.8603                 1.5423                 2.2496

                    25                     26                     27
                     A                      A                      A
 Frequencies --   332.1030               353.3256               376.7164
 Red. masses --     6.4978                 5.3347                 8.1423
 Frc consts  --     0.4222                 0.3924                 0.6808
 IR Inten    --     8.3439                 4.6802                 1.1656
 Raman Activ --     5.9734                 0.5688                 3.4394

                    28                     29                     30
                     A                      A                      A
 Frequencies --   396.0109               420.6246               426.3704
 Red. masses --     5.3830                 5.6410                 4.6885
 Frc consts  --     0.4974                 0.5880                 0.5022
 IR Inten    --     9.3920                 7.7486                 4.3624
 Raman Activ --     2.4734                 0.3491                 6.8193

                    31                     32                     33
                     A                      A                      A
 Frequencies --   438.1280               474.8143               484.2441
 Red. masses --     4.6011                 3.9641                 4.5686
 Frc consts  --     0.5204                 0.5266                 0.6312
 IR Inten    --     7.4877                16.3356                 8.3596
 Raman Activ --     2.3721                 2.4700                 1.9723

                    34                     35                     36
                     A                      A                      A
 Frequencies --   502.3068               518.4226               562.6689
 Red. masses --     4.2524                 3.2463                 4.0760
 Frc consts  --     0.6322                 0.5141                 0.7603
 IR Inten    --     1.9056                21.3065                 8.8731
 Raman Activ --     3.2160                 2.9009                 2.0338

                    37                     38                     39
                     A                      A                      A
 Frequencies --   580.2287               588.3875               616.4724
 Red. masses --     2.8637                 5.9457                 4.3077
 Frc consts  --     0.5680                 1.2128                 0.9645
 IR Inten    --    51.8270                17.9882                 1.2332
 Raman Activ --     0.7064                 0.4511                 0.2361

                    40                     41                     42
                     A                      A                      A
 Frequencies --   627.2158               669.3036               691.1195
 Red. masses --     5.3193                 1.0829                 4.6598
 Frc consts  --     1.2329                 0.2858                 1.3114
 IR Inten    --    46.7354               109.9996                26.2730
 Raman Activ --     1.9720                 2.2317                 0.8506

                    43                     44                     45
                     A                      A                      A
 Frequencies --   697.5538               705.6347               723.8048
 Red. masses --     1.0772                 1.0762                 1.0761
 Frc consts  --     0.3088                 0.3157                 0.3322
 IR Inten    --    86.1535               127.7445                95.1714
 Raman Activ --     2.0632                 2.3316                 1.6075

                    46                     47                     48
                     A                      A                      A
 Frequencies --   746.7300               819.0649               848.8337
 Red. masses --     1.0596                 1.0926                 1.7876
 Frc consts  --     0.3481                 0.4319                 0.7588
 IR Inten    --   105.4528               111.4273                 4.6739
 Raman Activ --     1.8787                 3.3697                 1.5519

                    49                     50                     51
                     A                      A                      A
 Frequencies --   853.4777               927.4146               956.9999
 Red. masses --     1.7658                 5.9494                 6.6080
 Frc consts  --     0.7578                 3.0149                 3.5657
 IR Inten    --     0.3485                99.1382                70.2602
 Raman Activ --     0.5075                 2.4822                 1.0897

                    52                     53                     54
                     A                      A                      A
 Frequencies --   966.7994               978.3010               981.0592
 Red. masses --     4.8980                 5.4941                 4.9597
 Frc consts  --     2.6974                 3.0981                 2.8125
 IR Inten    --    50.9411                97.7808                25.3456
 Raman Activ --     1.0547                 1.4574                 1.0325

                    55                     56                     57
                     A                      A                      A
 Frequencies --   997.7620              1008.9767              1022.3626
 Red. masses --     5.9189                 6.3075                 5.7132
 Frc consts  --     3.4717                 3.7833                 3.5184
 IR Inten    --   503.8636                38.1073                98.8040
 Raman Activ --     3.0455                 1.3382                 2.9227

                    58                     59                     60
                     A                      A                      A
 Frequencies --  1033.0767              1056.4422              1059.7135
 Red. masses --     6.2321                 6.4775                 4.8247
 Frc consts  --     3.9188                 4.2594                 3.1923
 IR Inten    --   243.9254               128.6950                16.4995
 Raman Activ --     2.3549                 1.8188                 2.9083

                    61                     62                     63
                     A                      A                      A
 Frequencies --  1067.3049              1070.7631              1077.9344
 Red. masses --     5.3802                 5.4180                 2.8462
 Frc consts  --     3.6110                 3.6599                 1.9485
 IR Inten    --     2.2857               121.0060                53.3830
 Raman Activ --     7.7598                 4.0520                25.3889

                    64                     65                     66
                     A                      A                      A
 Frequencies --  1100.6577              1110.2276              1114.7877
 Red. masses --     3.1594                 2.6787                 2.5061
 Frc consts  --     2.2550                 1.9454                 1.8350
 IR Inten    --    39.7324                50.5825                 8.1046
 Raman Activ --    10.8166                 1.5982                10.1134

                    67                     68                     69
                     A                      A                      A
 Frequencies --  1120.1544              1125.1284              1130.1548
 Red. masses --     2.5087                 2.3921                 2.6589
 Frc consts  --     1.8546                 1.7841                 2.0009
 IR Inten    --    19.8974               104.2468                65.3772
 Raman Activ --     3.5759                 5.5411                 1.9576

                    70                     71                     72
                     A                      A                      A
 Frequencies --  1138.8855              1155.8506              1164.5951
 Red. masses --     1.9374                 2.1694                 2.6571
 Frc consts  --     1.4806                 1.7076                 2.1233
 IR Inten    --    32.9022                23.4885                 4.0876
 Raman Activ --     4.9979                 1.8933                 8.8178

                    73                     74                     75
                     A                      A                      A
 Frequencies --  1172.9665              1181.1223              1183.8742
 Red. masses --     2.0768                 1.8064                 1.7771
 Frc consts  --     1.6835                 1.4848                 1.4675
 IR Inten    --     6.9355                10.6426                31.2017
 Raman Activ --     1.2131                 1.3334                 1.8877

                    76                     77                     78
                     A                      A                      A
 Frequencies --  1201.4090              1225.6613              1232.0185
 Red. masses --     1.3098                 1.5232                 1.3715
 Frc consts  --     1.1139                 1.3482                 1.2265
 IR Inten    --    11.6670                 4.3402                 7.1702
 Raman Activ --     0.7947                 2.6784                 0.7815

                    79                     80                     81
                     A                      A                      A
 Frequencies --  1243.7304              1250.9817              1263.4714
 Red. masses --     1.1926                 1.2402                 1.2100
 Frc consts  --     1.0869                 1.1435                 1.1381
 IR Inten    --     2.5782                16.9309                22.7570
 Raman Activ --     2.1608                 2.9778                 0.5728

                    82                     83                     84
                     A                      A                      A
 Frequencies --  1270.1559              1288.3412              1293.0833
 Red. masses --     1.1785                 1.2115                 1.3329
 Frc consts  --     1.1202                 1.1848                 1.3131
 IR Inten    --    17.0585                 6.1187                19.2020
 Raman Activ --     1.0069                 4.6712                 0.7317

                    85                     86                     87
                     A                      A                      A
 Frequencies --  1301.0178              1306.6312              1315.8211
 Red. masses --     1.3154                 1.3558                 1.3352
 Frc consts  --     1.3118                 1.3638                 1.3620
 IR Inten    --    31.8941                 7.1992                22.6966
 Raman Activ --     1.9839                 1.0020                 4.2017

                    88                     89                     90
                     A                      A                      A
 Frequencies --  1321.9205              1334.7201              1336.5849
 Red. masses --     1.2255                 1.1842                 1.2065
 Frc consts  --     1.2617                 1.2430                 1.2699
 IR Inten    --     4.5242                20.8446                50.0760
 Raman Activ --    12.2409                13.8450                 3.7564

                    91                     92                     93
                     A                      A                      A
 Frequencies --  1346.4722              1357.0597              1363.8555
 Red. masses --     1.2112                 1.2362                 1.2284
 Frc consts  --     1.2937                 1.3414                 1.3462
 IR Inten    --    27.4223                31.1378                15.6330
 Raman Activ --     1.0186                 3.4180                 4.0613

                    94                     95                     96
                     A                      A                      A
 Frequencies --  1364.6014              1366.1839              1367.6381
 Red. masses --     1.2027                 1.3387                 1.4750
 Frc consts  --     1.3195                 1.4721                 1.6254
 IR Inten    --    28.6916                 1.0422                12.6003
 Raman Activ --     5.6764                 6.5596                 5.2720

                    97                     98                     99
                     A                      A                      A
 Frequencies --  1390.4951              1395.2962              1398.0127
 Red. masses --     1.2570                 1.4336                 1.4622
 Frc consts  --     1.4319                 1.6444                 1.6837
 IR Inten    --     2.1130                16.3020                 9.2571
 Raman Activ --     2.9567                 2.1220                 2.0023

                   100                    101                    102
                     A                      A                      A
 Frequencies --  1401.3596              1415.5316              1441.2824
 Red. masses --     1.5801                 1.3231                 1.4837
 Frc consts  --     1.8282                 1.5620                 1.8159
 IR Inten    --    20.4042                23.9873                32.0783
 Raman Activ --     5.3115                 2.2023                 1.9846

                   103                    104                    105
                     A                      A                      A
 Frequencies --  1458.6355              1469.4709              1471.6222
 Red. masses --     1.3630                 1.0886                 1.0778
 Frc consts  --     1.7086                 1.3849                 1.3753
 IR Inten    --    14.7128                 4.7010                 6.3366
 Raman Activ --     1.7396                 3.8984                 5.0754

                   106                    107                    108
                     A                      A                      A
 Frequencies --  1494.4697              1498.7980              3253.6505
 Red. masses --     1.3403                 1.3330                 1.0584
 Frc consts  --     1.7637                 1.7643                 6.6015
 IR Inten    --    62.5311                 8.9486                32.9920
 Raman Activ --     2.0445                 1.4681                67.6716

                   109                    110                    111
                     A                      A                      A
 Frequencies --  3257.0395              3257.6875              3262.4829
 Red. masses --     1.0800                 1.0806                 1.0611
 Frc consts  --     6.7505                 6.7567                 6.6545
 IR Inten    --     5.8143                15.5813                38.9505
 Raman Activ --    26.4874                57.0396               102.4432

                   112                    113                    114
                     A                      A                      A
 Frequencies --  3265.1122              3273.2239              3277.0523
 Red. masses --     1.0816                 1.0806                 1.0851
 Frc consts  --     6.7936                 6.8210                 6.8655
 IR Inten    --    14.9264                16.0437                 6.1277
 Raman Activ --    97.1353               108.3854               106.5686

                   115                    116                    117
                     A                      A                      A
 Frequencies --  3278.1994              3286.4546              3293.0832
 Red. masses --     1.0835                 1.0856                 1.0867
 Frc consts  --     6.8601                 6.9084                 6.9430
 IR Inten    --    10.1492                22.5153                 2.8984
 Raman Activ --    47.2982                 6.9347                19.4804

                   118                    119                    120
                     A                      A                      A
 Frequencies --  3298.4428              3300.1260              3306.9728
 Red. masses --     1.0878                 1.0929                 1.0928
 Frc consts  --     6.9729                 7.0128                 7.0412
 IR Inten    --    38.3677                41.4223                74.8256
 Raman Activ --    30.0986                17.3663                22.6374

                   121                    122                    123
                     A                      A                      A
 Frequencies --  3313.6188              3317.8674              3322.7384
 Red. masses --     1.0721                 1.1014                 1.0720
 Frc consts  --     6.9358                 7.1436                 6.9735
 IR Inten    --   195.1906                73.6424               676.9074
 Raman Activ --   276.8060                45.8383                66.7475

                   124                    125                    126
                     A                      A                      A
 Frequencies --  3360.6677              3369.4990              3369.7643
 Red. masses --     1.0669                 1.0658                 1.0671
 Frc consts  --     7.0997                 7.1294                 7.1396
 IR Inten    --    43.7426                40.6309                76.6192
 Raman Activ --   138.0335               116.7539               118.1771

                   127                    128                    129
                     A                      A                      A
 Frequencies --  3370.1056              3889.4675              3891.2123
 Red. masses --     1.0678                 1.0675                 1.0675
 Frc consts  --     7.1457                 9.5152                 9.5236
 IR Inten    --    22.5653                76.3710                75.2779
 Raman Activ --   225.9016               100.3263               103.2709

 - Thermochemistry -
 -------------------
 Temperature   298.150 Kelvin.  Pressure   1.00000 Atm.
 Atom     1 has atomic number  8 and mass  15.99491

 Molecular mass:   342.11621 amu.
 Principal axes and moments of inertia in atomic units:
                           1         2         3
     Eigenvalues --  4511.78857********************
           X            0.99998   0.00690  -0.00045
           Y           -0.00690   0.99998  -0.00021
           Z            0.00045   0.00021   1.00000
 This molecule is an asymmetric top.
 Rotational symmetry number  1.
 Warning -- assumption of classical behavior for rotation
           may cause significant error
 Rotational temperatures (Kelvin)      0.01920     0.00694     0.00523
 Rotational constants (GHZ):           0.40001     0.14461     0.10898
    6 imaginary frequencies ignored.
 Zero-point vibrational energy     974110.5 (Joules/Mol)
                                  232.81799 (Kcal/Mol)
 Warning -- explicit consideration of  33 degrees of freedom as
           vibrations may cause significant error
 Vibrational temperatures:     62.38    87.39   103.70   130.20   148.73
          (Kelvin)            156.05   209.33   246.43   254.94   282.06
                              343.54   389.45   403.59   415.58   428.13
                              453.33   459.90   462.25   477.82   508.36
                              542.01   569.77   605.18   613.45   630.37
                              683.15   696.72   722.71   745.89   809.55
                              834.82   846.56   886.97   902.42   962.98
                              994.37  1003.62  1015.25  1041.39  1074.38
                             1178.45  1221.28  1227.96  1334.34  1376.91
                             1391.01  1407.56  1411.52  1435.56  1451.69
                             1470.95  1486.37  1519.98  1524.69  1535.61
                             1540.59  1550.91  1583.60  1597.37  1603.93
                             1611.65  1618.81  1626.04  1638.60  1663.01
                             1675.59  1687.64  1699.37  1703.33  1728.56
                             1763.45  1772.60  1789.45  1799.88  1817.85
                             1827.47  1853.63  1860.46  1871.87  1879.95
                             1893.17  1901.95  1920.36  1923.05  1937.27
                             1952.50  1962.28  1963.35  1965.63  1967.72
                             2000.61  2007.52  2011.43  2016.24  2036.63
                             2073.68  2098.65  2114.24  2117.33  2150.21
                             2156.43  4681.27  4686.15  4687.08  4693.98
                             4697.76  4709.43  4714.94  4716.59  4728.47
                             4738.01  4745.72  4748.14  4757.99  4767.55
                             4773.67  4780.67  4835.25  4847.95  4848.33
                             4848.82  5596.07  5598.58

 Zero-point correction=                           0.371019 (Hartree/Particle)
 Thermal correction to Energy=                    0.390268
 Thermal correction to Enthalpy=                  0.391212
 Thermal correction to Gibbs Free Energy=         0.324218
 Sum of electronic and zero-point Energies=          -1297.610937
 Sum of electronic and thermal Energies=             -1297.591688
 Sum of electronic and thermal Enthalpies=           -1297.590743
 Sum of electronic and thermal Free Energies=        -1297.657738

                     E (Thermal)             CV                S
                      KCal/Mol        Cal/Mol-Kelvin    Cal/Mol-Kelvin
 Total                  244.897             78.283            141.002
 Electronic               0.000              0.000              0.000
 Translational            0.889              2.981             43.384
 Rotational               0.889              2.981             35.188
 Vibrational            243.120             72.322             62.430
 Vibration     1          0.595              1.980              5.100
 Vibration     2          0.597              1.973              4.433
 Vibration     3          0.598              1.967              4.096
 Vibration     4          0.602              1.956              3.649
 Vibration     5          0.605              1.947              3.390
 Vibration     6          0.606              1.942              3.296
 Vibration     7          0.617              1.908              2.730
 Vibration     8          0.626              1.878              2.421
 Vibration     9          0.628              1.870              2.358
 Vibration    10          0.636              1.845              2.170
 Vibration    11          0.657              1.781              1.812
 Vibration    12          0.674              1.727              1.592
 Vibration    13          0.680              1.710              1.531
 Vibration    14          0.685              1.694              1.481
 Vibration    15          0.691              1.678              1.431
 Vibration    16          0.702              1.645              1.336
 Vibration    17          0.706              1.636              1.312
 Vibration    18          0.707              1.633              1.304
 Vibration    19          0.714              1.611              1.250
 Vibration    20          0.730              1.568              1.151
 Vibration    21          0.747              1.520              1.052
 Vibration    22          0.763              1.479              0.977
 Vibration    23          0.783              1.425              0.890
 Vibration    24          0.788              1.413              0.871
 Vibration    25          0.798              1.387              0.833
 Vibration    26          0.832              1.306              0.724
 Vibration    27          0.840              1.285              0.699
 Vibration    28          0.858              1.245              0.652
 Vibration    29          0.873              1.209              0.614
 Vibration    30          0.918              1.112              0.519
 Vibration    31          0.937              1.074              0.485
 Vibration    32          0.946              1.057              0.470
 Vibration    33          0.976              0.997              0.422

 Normal termination of Gaussian 09 at Fri Mar 25 22:20:58 2016.
