 Gaussian 09, Revision B.01,
 Gaussian 09:  EM64L-G09RevB.01 12-Aug-2010

 -------------------------------------------------
 # freq=raman b3lyp/6-31+g(2d,p) geom=connectivity
 -------------------------------------------------

 -----------------
 550 5402/5402.com
 -----------------
 Symbolic Z-matrix:
 Charge =  0 Multiplicity = 1

                         Standard orientation:
 ---------------------------------------------------------------------
 Center     Atomic      Atomic             Coordinates (Angstroms)
 Number     Number       Type             X           Y           Z
 ---------------------------------------------------------------------
      1          8           0        4.957614   -0.554161   -0.886611
      2          6           0        3.970899   -0.019893    0.007265
      3          6           0        3.276706    1.224665   -0.520044
      4          8           0        4.274582    2.236771   -0.320310
      5          1           0        5.071753    1.746433   -0.672329
      6          6           0        1.932495    1.730133   -0.024169
      7          8           0        1.188048    2.528012   -0.956318
      8          1           0        1.758074    3.349348   -0.982357
      9          6           0        3.059202   -2.465125    0.559432
     10          8           0        2.152054   -3.511174    0.183456
     11          1           0        2.804373   -4.269739    0.176135
     12          6           0        2.830744   -0.990301    0.272817
     13          8           0        1.811916   -0.441645    1.122889
     14          6           0        1.135645    0.461522    0.235813
     15          8           0       -0.179497    0.493597    0.809398
     16          6           0       -1.333290    0.061655    0.074034
     17          6           0       -1.955136   -1.305302    0.307626
     18          8           0       -0.961994   -2.320955    0.101786
     19          1           0       -0.230361   -2.016725    0.712567
     20          6           0       -3.156754   -1.441707   -0.613327
     21          8           0       -3.520627   -2.826271   -0.513579
     22          1           0       -2.801375   -3.343390   -0.976595
     23          6           0       -1.946777    2.555865    0.282777
     24          8           0       -2.740956    3.695793    0.646492
     25          1           0       -2.716488    3.725835    1.645608
     26          6           0       -2.371580    1.106568    0.447142
     27          8           0       -3.561203    0.862190   -0.316895
     28          6           0       -4.137213   -0.425301   -0.051084
     29          8           0       -5.394624   -0.436991   -0.742831
     30          1           0       -6.068226   -0.035443   -0.189098
     31          1           0       -4.277362   -0.569622    0.999834
     32          1           0       -2.888304   -1.192364   -1.618644
     33          1           0       -2.293575   -1.358953    1.321273
     34          1           0       -1.118564    0.155836   -0.969960
     35          1           0       -2.615344    0.960587    1.478727
     36          1           0       -1.714088    2.678351   -0.754408
     37          1           0       -1.026431    2.655279    0.819415
     38          1           0        5.823704   -0.500971   -0.475931
     39          1           0        3.185252   -2.546653    1.618849
     40          1           0        4.000275   -2.712754    0.114504
     41          1           0        2.347130   -1.024195   -0.681053
     42          1           0        4.443909    0.218000    0.937087
     43          1           0        3.174450    1.089594   -1.576547
     44          1           0        2.063216    2.269074    0.890902
     45          1           0        1.045835   -0.035513   -0.707474
 ---------------------------------------------------------------------

 SCF Done:  E(RB3LYP) =  -1297.93368278     A.U. after   13 cycles

 The electronic state is 1-A.
 Alpha  occ. eigenvalues --  -19.20487 -19.18718 -19.18629 -19.17790 -19.17187
 Alpha  occ. eigenvalues --  -19.17002 -19.15668 -19.15664 -19.15596 -19.15325
 Alpha  occ. eigenvalues --  -19.14825 -10.30824 -10.29313 -10.27777 -10.27130
 Alpha  occ. eigenvalues --  -10.26434 -10.25745 -10.24850 -10.24549 -10.24283
 Alpha  occ. eigenvalues --  -10.23991 -10.23850 -10.21964  -1.10272  -1.08336
 Alpha  occ. eigenvalues --   -1.07190  -1.05976  -1.04536  -1.04225  -1.03713
 Alpha  occ. eigenvalues --   -1.02960  -1.01599  -1.00772  -1.00454  -0.82316
 Alpha  occ. eigenvalues --   -0.81747  -0.79125  -0.77833  -0.72360  -0.69764
 Alpha  occ. eigenvalues --   -0.67678  -0.64726  -0.63097  -0.62145  -0.61147
 Alpha  occ. eigenvalues --   -0.60919  -0.57864  -0.56735  -0.54656  -0.53785
 Alpha  occ. eigenvalues --   -0.53456  -0.53260  -0.52860  -0.52384  -0.50449
 Alpha  occ. eigenvalues --   -0.50203  -0.49689  -0.49070  -0.48430  -0.47641
 Alpha  occ. eigenvalues --   -0.46024  -0.45090  -0.44641  -0.43958  -0.43770
 Alpha  occ. eigenvalues --   -0.42961  -0.42538  -0.41435  -0.40764  -0.39509
 Alpha  occ. eigenvalues --   -0.38762  -0.38340  -0.37602  -0.36914  -0.36659
 Alpha  occ. eigenvalues --   -0.35973  -0.35077  -0.34717  -0.33652  -0.33228
 Alpha  occ. eigenvalues --   -0.32463  -0.31525  -0.31431  -0.30815  -0.30645
 Alpha  occ. eigenvalues --   -0.29491  -0.28913  -0.28495  -0.27883  -0.26875
 Alpha  occ. eigenvalues --   -0.25860
 Alpha virt. eigenvalues --   -0.03882  -0.01787  -0.01011  -0.00688   0.00480
 Alpha virt. eigenvalues --    0.01035   0.01185   0.01657   0.02313   0.02832
 Alpha virt. eigenvalues --    0.03544   0.04113   0.04547   0.04950   0.05632

 Mulliken atomic charges:
              1
     1  O   -0.532549
     2  C   -0.515167
     3  C    0.531105
     4  O   -0.561288
     5  H    0.331024
     6  C   -0.068555
     7  O   -0.513940
     8  H    0.350996
     9  C   -0.462278
    10  O   -0.483105
    11  H    0.341142
    12  C    0.703855
    13  O   -0.267783
    14  C    0.061269
    15  O   -0.311639
    16  C    0.201127
    17  C    0.043701
    18  O   -0.543196
    19  H    0.355600
    20  C   -0.065529
    21  O   -0.507920
    22  H    0.348097
    23  C   -0.153815
    24  O   -0.486437
    25  H    0.313057
    26  C   -0.090954
    27  O   -0.267374
    28  C    0.278016
    29  O   -0.514460
    30  H    0.323079
    31  H    0.121928
    32  H    0.131879
    33  H    0.116116
    34  H    0.112128
    35  H    0.098059
    36  H    0.157685
    37  H    0.147952
    38  H    0.340483
    39  H    0.145374
    40  H    0.141857
    41  H    0.107096
    42  H    0.137021
    43  H    0.150067
    44  H    0.144414
    45  H    0.111864
 Sum of Mulliken atomic charges =   0.00000

 Dipole moment (field-independent basis, Debye):
    X=              8.1111    Y=             -0.2965    Z=              2.5480  Tot=              8.5071
 Quadrupole moment (field-independent basis, Debye-Ang):
   XX=           -118.4262   YY=           -146.6225   ZZ=           -137.1463
   XY=             -9.7825   XZ=            -10.8945   YZ=              3.7789

  Exact polarizability: 223.261   0.157 199.595   0.430   1.489 146.320
 Approx polarizability: 268.732  -0.839 261.032   2.077   4.193 243.829

 ******    7 imaginary frequencies (negative Signs) ******

                     1                      2                      3
                     A                      A                      A
 Frequencies --  -340.3467              -255.5371              -221.7535
 Red. masses --     1.5737                 1.5777                 1.0739
 Frc consts  --     0.1074                 0.0607                 0.0311
 IR Inten    --     1.5887                 4.7900               104.2805
 Raman Activ --     0.0771                 0.1470                 1.3808

                     4                      5                      6
                     A                      A                      A
 Frequencies --  -111.1429               -92.3018               -53.3628
 Red. masses --     4.1482                 1.9817                 6.6332
 Frc consts  --     0.0302                 0.0099                 0.0111
 IR Inten    --    15.8828                67.6673                 0.2942
 Raman Activ --     0.1002                 0.2337                 0.0448

                     7                      8                      9
                     A                      A                      A
 Frequencies --   -19.3070                24.4388                50.8177
 Red. masses --     6.9484                 4.7197                 6.1885
 Frc consts  --     0.0015                 0.0017                 0.0094
 IR Inten    --     0.2145                 9.7339                 0.6006
 Raman Activ --     0.1473                 0.2487                 0.1348

                    10                     11                     12
                     A                      A                      A
 Frequencies --    77.9370                95.4493               115.9414
 Red. masses --     6.3129                 6.0704                 7.2416
 Frc consts  --     0.0226                 0.0326                 0.0574
 IR Inten    --     0.3451                 6.9873                 0.4592
 Raman Activ --     0.0483                 0.2214                 0.3306

                    13                     14                     15
                     A                      A                      A
 Frequencies --   129.3315               158.2503               171.4453
 Red. masses --     6.0157                 5.6070                 5.4661
 Frc consts  --     0.0593                 0.0827                 0.0947
 IR Inten    --     0.5555                 0.7379                 1.0610
 Raman Activ --     0.5036                 0.1804                 0.5077

                    16                     17                     18
                     A                      A                      A
 Frequencies --   190.6002               212.9314               248.4814
 Red. masses --     5.1521                 6.6779                 4.8745
 Frc consts  --     0.1103                 0.1784                 0.1773
 IR Inten    --     2.9529                 0.8125                 2.0207
 Raman Activ --     0.1627                 2.4798                 1.0053

                    19                     20                     21
                     A                      A                      A
 Frequencies --   263.5337               275.3476               288.4591
 Red. masses --     3.8084                 6.0280                 6.8385
 Frc consts  --     0.1558                 0.2693                 0.3353
 IR Inten    --    15.4877                 0.3824                 1.4125
 Raman Activ --     0.6295                 0.3171                 0.3813

                    22                     23                     24
                     A                      A                      A
 Frequencies --   300.9952               316.3362               321.5361
 Red. masses --     6.9209                 5.2183                 5.4798
 Frc consts  --     0.3694                 0.3077                 0.3338
 IR Inten    --     3.5963                 1.7077                 0.9832
 Raman Activ --     2.5949                 3.8717                 2.0307

                    25                     26                     27
                     A                      A                      A
 Frequencies --   339.3277               356.4225               384.0826
 Red. masses --     4.3721                 4.6587                 4.2520
 Frc consts  --     0.2966                 0.3487                 0.3696
 IR Inten    --     2.2955                 4.8195                 1.1715
 Raman Activ --     0.7898                 2.5329                 1.1243

                    28                     29                     30
                     A                      A                      A
 Frequencies --   417.0925               426.7159               432.2912
 Red. masses --     5.5924                 4.7185                 6.5484
 Frc consts  --     0.5732                 0.5062                 0.7210
 IR Inten    --     0.1079                 2.8627                 7.3259
 Raman Activ --     1.0662                 3.8203                 3.4358

                    31                     32                     33
                     A                      A                      A
 Frequencies --   456.2095               468.0569               490.3085
 Red. masses --     4.6156                 3.8607                 6.2065
 Frc consts  --     0.5660                 0.4983                 0.8791
 IR Inten    --    14.0613                 0.9375                 4.0194
 Raman Activ --     6.8715                 0.3289                 2.0573

                    34                     35                     36
                     A                      A                      A
 Frequencies --   534.6714               541.2117               550.2996
 Red. masses --     3.6095                 5.1090                 3.5872
 Frc consts  --     0.6080                 0.8817                 0.6400
 IR Inten    --    25.3917                26.0674                46.8780
 Raman Activ --     4.1803                 2.0073                 2.2825

                    37                     38                     39
                     A                      A                      A
 Frequencies --   584.1261               600.5780               604.4063
 Red. masses --     3.9517                 3.0723                 3.4068
 Frc consts  --     0.7944                 0.6529                 0.7333
 IR Inten    --     0.9198                31.7741                19.7173
 Raman Activ --     0.8178                 0.0623                 0.7307

                    40                     41                     42
                     A                      A                      A
 Frequencies --   624.4951               677.4757               692.4875
 Red. masses --     3.3747                 4.6362                 1.1423
 Frc consts  --     0.7754                 1.2537                 0.3227
 IR Inten    --    16.6821                23.6665               117.5019
 Raman Activ --     0.9597                 0.4463                 1.0573

                    43                     44                     45
                     A                      A                      A
 Frequencies --   713.8826               744.7156               752.3844
 Red. masses --     1.1202                 1.1038                 1.1179
 Frc consts  --     0.3364                 0.3607                 0.3728
 IR Inten    --    90.6628               113.0986                94.1125
 Raman Activ --     1.2157                 0.5701                 1.8147

                    46                     47                     48
                     A                      A                      A
 Frequencies --   799.2121               802.6258               830.7442
 Red. masses --     1.0968                 1.0905                 2.7895
 Frc consts  --     0.4127                 0.4139                 1.1343
 IR Inten    --   130.5875                53.9081                12.7394
 Raman Activ --     1.1813                 2.3576                 1.4969

                    49                     50                     51
                     A                      A                      A
 Frequencies --   838.5593               944.2941               949.3941
 Red. masses --     2.9580                 6.5955                 5.3586
 Frc consts  --     1.2255                 3.4651                 2.8457
 IR Inten    --     4.1179               288.6623                 7.2496
 Raman Activ --     2.4511                 3.2746                 1.7577

                    52                     53                     54
                     A                      A                      A
 Frequencies --   973.8163               992.4417               996.3320
 Red. masses --     4.0981                 6.0345                 6.6220
 Frc consts  --     2.2897                 3.5019                 3.8730
 IR Inten    --    88.4236                26.5320               246.1893
 Raman Activ --     1.3700                 3.2324                 2.7935

                    55                     56                     57
                     A                      A                      A
 Frequencies --   997.1238              1003.1639              1009.1360
 Red. masses --     7.1538                 5.1099                 6.7746
 Frc consts  --     4.1907                 3.0297                 4.0648
 IR Inten    --   187.5239                78.0875               242.7656
 Raman Activ --     1.0107                 1.1844                 0.9130

                    58                     59                     60
                     A                      A                      A
 Frequencies --  1030.8143              1039.0451              1057.4574
 Red. masses --     2.6777                 3.2526                 5.8744
 Frc consts  --     1.6764                 2.0690                 3.8703
 IR Inten    --   136.8553                84.8673               100.1965
 Raman Activ --     4.8051                 3.1156                 0.8117

                    61                     62                     63
                     A                      A                      A
 Frequencies --  1068.6143              1077.5463              1084.6740
 Red. masses --     5.4835                 4.6733                 2.8495
 Frc consts  --     3.6893                 3.1970                 1.9753
 IR Inten    --    48.0750                34.5195                 0.4744
 Raman Activ --    13.7752                 5.2959                 5.7532

                    64                     65                     66
                     A                      A                      A
 Frequencies --  1087.6427              1093.7883              1106.7830
 Red. masses --     4.3295                 3.4401                 4.2854
 Frc consts  --     3.0176                 2.4248                 3.0929
 IR Inten    --   191.5306                10.8959                 5.9088
 Raman Activ --     8.4373                 2.7102                18.7361

                    67                     68                     69
                     A                      A                      A
 Frequencies --  1124.3762              1132.3657              1136.4433
 Red. masses --     2.6386                 2.2161                 1.5821
 Frc consts  --     1.9654                 1.6742                 1.2038
 IR Inten    --    35.9767                 0.3816                28.0031
 Raman Activ --     1.8053                 3.4061                 1.0384

                    70                     71                     72
                     A                      A                      A
 Frequencies --  1144.0098              1150.8214              1161.5057
 Red. masses --     2.4590                 3.2301                 2.4030
 Frc consts  --     1.8961                 2.5205                 1.9100
 IR Inten    --    27.9635                37.3305                12.8837
 Raman Activ --     0.7671                 4.7812                 3.7663

                    73                     74                     75
                     A                      A                      A
 Frequencies --  1168.9489              1190.7987              1200.3030
 Red. masses --     3.7786                 1.9040                 1.5328
 Frc consts  --     3.0421                 1.5908                 1.3011
 IR Inten    --    46.6816                12.6812                 0.6433
 Raman Activ --     0.5874                 1.0522                 3.1420

                    76                     77                     78
                     A                      A                      A
 Frequencies --  1207.6953              1227.3813              1240.7372
 Red. masses --     1.5655                 1.4004                 1.2353
 Frc consts  --     1.3453                 1.2430                 1.1205
 IR Inten    --    11.7957                 8.0220                10.8529
 Raman Activ --     1.6610                 0.5445                 1.3866

                    79                     80                     81
                     A                      A                      A
 Frequencies --  1245.4814              1253.3946              1271.9470
 Red. masses --     1.5130                 1.3678                 1.2264
 Frc consts  --     1.3829                 1.2660                 1.1690
 IR Inten    --     6.4689                14.4115                 9.4193
 Raman Activ --     1.4247                 2.7582                 1.1614

                    82                     83                     84
                     A                      A                      A
 Frequencies --  1280.2260              1294.9284              1304.5247
 Red. masses --     1.3655                 1.3030                 1.3001
 Frc consts  --     1.3186                 1.2873                 1.3036
 IR Inten    --    38.4291                 5.5598                22.0373
 Raman Activ --     2.0776                 3.2857                 3.3674

                    85                     86                     87
                     A                      A                      A
 Frequencies --  1310.8003              1321.0397              1330.3074
 Red. masses --     1.2560                 1.5668                 1.2442
 Frc consts  --     1.2715                 1.6110                 1.2973
 IR Inten    --     5.9046                11.5354                22.0989
 Raman Activ --     3.9827                 5.0113                 4.9706

                    88                     89                     90
                     A                      A                      A
 Frequencies --  1332.8907              1335.7656              1355.5504
 Red. masses --     1.2013                 1.2344                 1.2147
 Frc consts  --     1.2575                 1.2977                 1.3150
 IR Inten    --    16.4913                 9.4630                20.4600
 Raman Activ --     2.4726                 3.8469                 5.0882

                    91                     92                     93
                     A                      A                      A
 Frequencies --  1357.4667              1372.5142              1378.0919
 Red. masses --     1.2090                 1.2052                 1.1864
 Frc consts  --     1.3126                 1.3376                 1.3275
 IR Inten    --    12.2153                27.9638                 6.7278
 Raman Activ --     3.7482                 1.6696                 3.6731

                    94                     95                     96
                     A                      A                      A
 Frequencies --  1392.2762              1396.7739              1401.6707
 Red. masses --     1.3417                 1.3046                 1.2787
 Frc consts  --     1.5323                 1.4996                 1.4801
 IR Inten    --     8.3484                 1.6743                 5.7880
 Raman Activ --     3.3028                 5.3618                 0.6665

                    97                     98                     99
                     A                      A                      A
 Frequencies --  1406.7678              1425.3740              1446.0444
 Red. masses --     1.2059                 1.1833                 1.0838
 Frc consts  --     1.4061                 1.4164                 1.3353
 IR Inten    --    24.2087                 6.8753                11.0536
 Raman Activ --     0.5625                11.5863                 5.5084

                   100                    101                    102
                     A                      A                      A
 Frequencies --  1450.3107              1464.9181              1479.8014
 Red. masses --     1.0888                 1.3900                 1.1678
 Frc consts  --     1.3494                 1.7575                 1.5067
 IR Inten    --     9.6456                17.4396                77.2878
 Raman Activ --     5.8195                 2.5866                 2.7863

                   103                    104                    105
                     A                      A                      A
 Frequencies --  1482.7804              1485.4658              1508.5284
 Red. masses --     1.3107                 1.3864                 1.2427
 Frc consts  --     1.6979                 1.8025                 1.6662
 IR Inten    --    39.2606                49.8131                16.3177
 Raman Activ --     2.8069                 3.2847                 1.7534

                   106                    107                    108
                     A                      A                      A
 Frequencies --  1515.7070              1518.0847              3228.1562
 Red. masses --     1.1438                 1.2640                 1.0804
 Frc consts  --     1.5482                 1.7162                 6.6336
 IR Inten    --    28.9765                65.0519                 1.1825
 Raman Activ --     4.3482                 1.9542                50.5094

                   109                    110                    111
                     A                      A                      A
 Frequencies --  3253.3097              3257.7501              3261.1330
 Red. masses --     1.0617                 1.0809                 1.0798
 Frc consts  --     6.6205                 6.7587                 6.7659
 IR Inten    --    39.2710                21.7284                 7.5291
 Raman Activ --    92.6673                57.0537                34.6902

                   112                    113                    114
                     A                      A                      A
 Frequencies --  3269.8789              3271.5850              3275.1173
 Red. masses --     1.0832                 1.0598                 1.0822
 Frc consts  --     6.8238                 6.6832                 6.8391
 IR Inten    --     7.1033                25.8277                 0.9418
 Raman Activ --    39.9916                69.3157               117.7263

                   115                    116                    117
                     A                      A                      A
 Frequencies --  3285.1441              3287.3273              3288.3075
 Red. masses --     1.0847                 1.0852                 1.0861
 Frc consts  --     6.8968                 6.9096                 6.9192
 IR Inten    --     9.3823                17.0358                16.3473
 Raman Activ --   160.2684                25.2427                 8.3323

                   118                    119                    120
                     A                      A                      A
 Frequencies --  3297.7011              3301.0064              3303.5987
 Red. masses --     1.1009                 1.0875                 1.0869
 Frc consts  --     7.0537                 6.9816                 6.9890
 IR Inten    --    18.8094                42.2400                73.6790
 Raman Activ --    42.7419                34.8306                 2.6428

                   121                    122                    123
                     A                      A                      A
 Frequencies --  3326.4330              3351.1843              3358.2080
 Red. masses --     1.1001                 1.0647                 1.0661
 Frc consts  --     7.1721                 7.0448                 7.0841
 IR Inten    --    32.7208                34.0481                91.8109
 Raman Activ --    38.6044                81.9211                94.5905

                   124                    125                    126
                     A                      A                      A
 Frequencies --  3366.3417              3367.8541              3377.5116
 Red. masses --     1.0666                 1.0705                 1.0654
 Frc consts  --     7.1218                 7.1537                 7.1607
 IR Inten    --    47.2216                10.2751                49.5637
 Raman Activ --   119.4485                64.8438                93.4029

                   127                    128                    129
                     A                      A                      A
 Frequencies --  3382.5699              3887.2700              3889.2091
 Red. masses --     1.0660                 1.0678                 1.0670
 Frc consts  --     7.1866                 9.5065                 9.5094
 IR Inten    --    51.6261                90.5783                59.2224
 Raman Activ --    70.6100                96.7648               133.2521

 - Thermochemistry -
 -------------------
 Temperature   298.150 Kelvin.  Pressure   1.00000 Atm.
 Atom     1 has atomic number  8 and mass  15.99491

 Molecular mass:   342.11621 amu.
 Principal axes and moments of inertia in atomic units:
                           1         2         3
     Eigenvalues --  4806.35156********************
           X            0.99997  -0.00691  -0.00288
           Y            0.00691   0.99998   0.00073
           Z            0.00288  -0.00075   1.00000
 This molecule is an asymmetric top.
 Rotational symmetry number  1.
 Warning -- assumption of classical behavior for rotation
           may cause significant error
 Rotational temperatures (Kelvin)      0.01802     0.00738     0.00553
 Rotational constants (GHZ):           0.37549     0.15377     0.11520
    7 imaginary frequencies ignored.
 Zero-point vibrational energy     977993.2 (Joules/Mol)
                                  233.74599 (Kcal/Mol)
 Warning -- explicit consideration of  32 degrees of freedom as
           vibrations may cause significant error
 Vibrational temperatures:     35.16    73.12   112.13   137.33   166.81
          (Kelvin)            186.08   227.69   246.67   274.23   306.36
                              357.51   379.17   396.16   415.03   433.06
                              455.14   462.62   488.22   512.81   552.61
                              600.10   613.95   621.97   656.38   673.43
                              705.44   769.27   778.68   791.76   840.43
                              864.10   869.60   898.51   974.74   996.33
                             1027.12  1071.48  1082.51  1149.89  1154.80
                             1195.25  1206.50  1358.63  1365.96  1401.10
                             1427.90  1433.50  1434.64  1443.33  1451.92
                             1483.11  1494.95  1521.44  1537.50  1550.35
                             1560.60  1564.87  1573.72  1592.41  1617.72
                             1629.22  1635.09  1645.97  1655.77  1671.15
                             1681.85  1713.29  1726.97  1737.60  1765.93
                             1785.14  1791.97  1803.35  1830.05  1841.96
                             1863.11  1876.92  1885.95  1900.68  1914.01
                             1917.73  1921.87  1950.33  1953.09  1974.74
                             1982.76  2003.17  2009.64  2016.69  2024.02
                             2050.79  2080.53  2086.67  2107.69  2129.10
                             2133.39  2137.25  2170.43  2180.76  2184.18
                             4644.59  4680.78  4687.17  4692.04  4704.62
                             4707.08  4712.16  4726.58  4729.72  4731.14
                             4744.65  4749.41  4753.14  4785.99  4821.60
                             4831.71  4843.41  4845.58  4859.48  4866.76
                             5592.91  5595.70

 Zero-point correction=                           0.372498 (Hartree/Particle)
 Thermal correction to Energy=                    0.391098
 Thermal correction to Enthalpy=                  0.392042
 Thermal correction to Gibbs Free Energy=         0.325847
 Sum of electronic and zero-point Energies=          -1297.561185
 Sum of electronic and thermal Energies=             -1297.542585
 Sum of electronic and thermal Enthalpies=           -1297.541641
 Sum of electronic and thermal Free Energies=        -1297.607836

                     E (Thermal)             CV                S
                      KCal/Mol        Cal/Mol-Kelvin    Cal/Mol-Kelvin
 Total                  245.417             75.888            139.319
 Electronic               0.000              0.000              0.000
 Translational            0.889              2.981             43.384
 Rotational               0.889              2.981             35.134
 Vibrational            243.640             69.926             60.800
 Vibration     1          0.593              1.985              6.236
 Vibration     2          0.595              1.977              4.785
 Vibration     3          0.599              1.964              3.942
 Vibration     4          0.603              1.952              3.545
 Vibration     5          0.608              1.936              3.167
 Vibration     6          0.612              1.924              2.956
 Vibration     7          0.621              1.893              2.571
 Vibration     8          0.626              1.878              2.420
 Vibration     9          0.634              1.853              2.222
 Vibration    10          0.644              1.821              2.018
 Vibration    11          0.662              1.765              1.741
 Vibration    12          0.670              1.740              1.638
 Vibration    13          0.677              1.719              1.562
 Vibration    14          0.685              1.695              1.483
 Vibration    15          0.693              1.672              1.411
 Vibration    16          0.703              1.642              1.329
 Vibration    17          0.707              1.632              1.302
 Vibration    18          0.719              1.597              1.215
 Vibration    19          0.732              1.562              1.138
 Vibration    20          0.753              1.504              1.023
 Vibration    21          0.780              1.433              0.902
 Vibration    22          0.788              1.412              0.869
 Vibration    23          0.793              1.400              0.851
 Vibration    24          0.814              1.347              0.777
 Vibration    25          0.825              1.321              0.743
 Vibration    26          0.846              1.272              0.683
 Vibration    27          0.890              1.173              0.577
 Vibration    28          0.896              1.159              0.563
 Vibration    29          0.906              1.139              0.544
 Vibration    30          0.941              1.066              0.478
 Vibration    31          0.959              1.031              0.449
 Vibration    32          0.963              1.022              0.442

 Normal termination of Gaussian 09 at Sun Apr  3 01:11:23 2016.
