 Gaussian 09, Revision B.01,
 Gaussian 09:  EM64L-G09RevB.01 12-Aug-2010

 ------------------------------------------------
 # freq=raman b3lyp/6-31+g(d,p) geom=connectivity
 ------------------------------------------------

 ------------
 550 7000.com
 ------------
 Symbolic Z-matrix:
 Charge =  0 Multiplicity = 1

                         Standard orientation:
 ---------------------------------------------------------------------
 Center     Atomic      Atomic             Coordinates (Angstroms)
 Number     Number       Type             X           Y           Z
 ---------------------------------------------------------------------
      1          8           0        5.045867    0.266675    0.361637
      2          6           0        3.792252   -0.067644   -0.251141
      3          6           0        3.215587   -1.369558    0.280569
      4          8           0        4.082609   -2.429877   -0.145814
      5          1           0        4.986679   -2.007135   -0.096713
      6          6           0        1.743552   -1.600175   -0.023728
      7          8           0        0.968705   -2.483921    0.798163
      8          1           0        1.391574   -3.377486    0.648884
      9          6           0        3.523708    2.449692   -0.239796
     10          8           0        2.558120    3.511735   -0.255999
     11          1           0        3.040172    4.307503   -0.620286
     12          6           0        2.949680    1.113230    0.200873
     13          8           0        1.722352    0.830841   -0.487331
     14          6           0        0.973468   -0.290705    0.003908
     15          8           0       -0.125118   -0.348072   -0.917332
     16          6           0       -1.343557   -0.372923   -0.158626
     17          6           0       -1.767939    0.641096    0.891276
     18          8           0       -2.044897    0.007214    2.148534
     19          1           0       -2.432475    0.629176    2.829592
     20          6           0       -2.812164    1.648615    0.440042
     21          8           0       -2.182414    2.541760   -0.490221
     22          1           0       -1.227665    2.684996   -0.228618
     23          6           0       -2.561632   -2.332489   -1.107131
     24          8           0       -2.745988   -3.092067    0.096720
     25          1           0       -1.990270   -2.977824    0.741974
     26          6           0       -2.555176   -0.819886   -0.960128
     27          8           0       -3.825115   -0.399425   -0.442575
     28          6           0       -3.998492    1.013889   -0.266451
     29          8           0       -5.256303    1.405084    0.304068
     30          1           0        5.751736    0.173551   -0.282317
     31          1           0       -5.944479    1.337850   -0.361885
     32          1           0       -3.158658    2.203953    1.286471
     33          1           0       -3.995841    1.425059   -1.254293
     34          1           0       -2.457987   -0.403245   -1.940874
     35          1           0       -0.891123    1.227489    1.070821
     36          1           0       -1.163808   -1.228152    0.458766
     37          1           0       -1.629836   -2.626020   -1.543590
     38          1           0       -3.345253   -2.595066   -1.786756
     39          1           0        3.927703    2.340091   -1.224517
     40          1           0        4.315801    2.718148    0.427601
     41          1           0        2.803240    1.091074    1.260573
     42          1           0        3.879960   -0.089856   -1.317309
     43          1           0        3.295842   -1.322730    1.346527
     44          1           0        1.690622   -1.978020   -1.023394
     45          1           0        0.615800   -0.091791    0.992547
 ---------------------------------------------------------------------

 SCF Done:  E(RB3LYP) =  -1297.90247604     A.U. after   14 cycles

 The electronic state is 1-A.
 Alpha  occ. eigenvalues --  -19.20006 -19.19297 -19.18621 -19.18561 -19.17582
 Alpha  occ. eigenvalues --  -19.17548 -19.17370 -19.17217 -19.16801 -19.16079
 Alpha  occ. eigenvalues --  -19.14724 -10.30879 -10.29174 -10.27085 -10.26435
 Alpha  occ. eigenvalues --  -10.26371 -10.26204 -10.25587 -10.25170 -10.24897
 Alpha  occ. eigenvalues --  -10.24515 -10.24240 -10.22599  -1.09484  -1.07710
 Alpha  occ. eigenvalues --   -1.06668  -1.05446  -1.04101  -1.03981  -1.03434
 Alpha  occ. eigenvalues --   -1.02649  -1.02255  -1.01598  -0.99915  -0.81598
 Alpha  occ. eigenvalues --   -0.81124  -0.78540  -0.77644  -0.72097  -0.71050
 Alpha  occ. eigenvalues --   -0.67829  -0.65437  -0.63529  -0.63267  -0.61733
 Alpha  occ. eigenvalues --   -0.57834  -0.56326  -0.55942  -0.55505  -0.55120
 Alpha  occ. eigenvalues --   -0.54468  -0.53491  -0.52638  -0.52087  -0.50692
 Alpha  occ. eigenvalues --   -0.50118  -0.49104  -0.48158  -0.47825  -0.46756
 Alpha  occ. eigenvalues --   -0.45781  -0.45298  -0.44374  -0.43999  -0.43866
 Alpha  occ. eigenvalues --   -0.43202  -0.42308  -0.40958  -0.40322  -0.39427
 Alpha  occ. eigenvalues --   -0.38891  -0.38251  -0.37892  -0.36975  -0.36339
 Alpha  occ. eigenvalues --   -0.35877  -0.35376  -0.34719  -0.33425  -0.33250
 Alpha  occ. eigenvalues --   -0.32020  -0.31454  -0.30980  -0.30432  -0.29657
 Alpha  occ. eigenvalues --   -0.29314  -0.28842  -0.27898  -0.27278  -0.26509
 Alpha  occ. eigenvalues --   -0.25681
 Alpha virt. eigenvalues --   -0.03683  -0.02126  -0.01012  -0.00720   0.00174
 Alpha virt. eigenvalues --    0.00981   0.01302   0.02021   0.02548   0.03022
 Alpha virt. eigenvalues --    0.04001   0.04347   0.04859   0.05642   0.06003

 Mulliken atomic charges:
              1
     1  O   -0.545404
     2  C   -0.329865
     3  C    0.361664
     4  O   -0.504724
     5  H    0.340347
     6  C   -0.024126
     7  O   -0.503736
     8  H    0.370853
     9  C   -0.102437
    10  O   -0.525546
    11  H    0.347969
    12  C    0.215915
    13  O   -0.312922
    14  C    0.140405
    15  O   -0.206182
    16  C   -1.114929
    17  C    0.341847
    18  O   -0.498368
    19  H    0.364897
    20  C    0.073586
    21  O   -0.409686
    22  H    0.347947
    23  C   -0.192976
    24  O   -0.458942
    25  H    0.352215
    26  C    0.536786
    27  O   -0.307407
    28  C    0.129255
    29  O   -0.491806
    30  H    0.361711
    31  H    0.358659
    32  H    0.128478
    33  H    0.125692
    34  H    0.132279
    35  H    0.082018
    36  H    0.124959
    37  H    0.138584
    38  H    0.141884
    39  H    0.119855
    40  H    0.154321
    41  H    0.131933
    42  H    0.164194
    43  H    0.148887
    44  H    0.158768
    45  H    0.133143
 Sum of Mulliken atomic charges =   0.00000

 Dipole moment (field-independent basis, Debye):
    X=              7.2793    Y=              2.5631    Z=             -1.1261  Tot=              7.7991
 Quadrupole moment (field-independent basis, Debye-Ang):
   XX=           -118.8275   YY=           -141.8084   ZZ=           -135.1595
   XY=             -0.6332   XZ=             -0.9748   YZ=              4.0055

  Exact polarizability: 215.203  -1.222 186.948  -2.268   1.079 151.496
 Approx polarizability: 258.811   1.252 244.488  -5.966  -0.690 238.312

 ******    8 imaginary frequencies (negative Signs) ******

                     1                      2                      3
                     A                      A                      A
 Frequencies --  -236.0669              -176.2873              -171.5472
 Red. masses --     1.8713                 1.3264                 1.1441
 Frc consts  --     0.0614                 0.0243                 0.0198
 IR Inten    --     3.7033                83.2457               133.7664
 Raman Activ --     0.1404                 1.2057                 1.0437

                     4                      5                      6
                     A                      A                      A
 Frequencies --  -107.2888               -92.3961               -62.7674
 Red. masses --     2.1943                 4.5779                 5.5983
 Frc consts  --     0.0149                 0.0230                 0.0130
 IR Inten    --     2.2069                 3.8495                12.0666
 Raman Activ --     0.1083                 0.0445                 0.1968

                     7                      8                      9
                     A                      A                      A
 Frequencies --   -56.6574               -47.0996                13.4090
 Red. masses --     5.6628                 6.3385                 6.4346
 Frc consts  --     0.0107                 0.0083                 0.0007
 IR Inten    --     1.6977                 2.3529                 0.1028
 Raman Activ --     0.0616                 0.2533                 0.1491

                    10                     11                     12
                     A                      A                      A
 Frequencies --    19.7707                48.7443                85.5216
 Red. masses --     5.9220                 5.9270                 5.3957
 Frc consts  --     0.0014                 0.0083                 0.0233
 IR Inten    --     0.7689                 0.5340                 2.5916
 Raman Activ --     0.0973                 0.0638                 0.1466

                    13                     14                     15
                     A                      A                      A
 Frequencies --   116.2852               134.6660               157.8177
 Red. masses --     6.0875                 6.1343                 6.0759
 Frc consts  --     0.0485                 0.0655                 0.0892
 IR Inten    --     1.4104                 0.5098                 0.5237
 Raman Activ --     0.2747                 0.4965                 0.2207

                    16                     17                     18
                     A                      A                      A
 Frequencies --   169.5066               201.8516               225.6468
 Red. masses --     5.4934                 6.8465                 5.0792
 Frc consts  --     0.0930                 0.1644                 0.1524
 IR Inten    --     1.9790                 1.4890                 1.4991
 Raman Activ --     0.4834                 0.4090                 0.4348

                    19                     20                     21
                     A                      A                      A
 Frequencies --   239.7044               274.1461               292.7202
 Red. masses --     6.4691                 5.7938                 3.8790
 Frc consts  --     0.2190                 0.2566                 0.1958
 IR Inten    --     6.1385                 5.4328                 6.2467
 Raman Activ --     2.4251                 0.5104                 0.3868

                    22                     23                     24
                     A                      A                      A
 Frequencies --   306.5636               322.6903               346.5189
 Red. masses --     5.4356                 5.7025                 5.8287
 Frc consts  --     0.3010                 0.3499                 0.4124
 IR Inten    --     0.6075                 8.0058                 2.9285
 Raman Activ --     0.9024                 1.5010                 1.5188

                    25                     26                     27
                     A                      A                      A
 Frequencies --   354.4686               359.7253               413.8710
 Red. masses --     5.6923                 5.4643                 5.6439
 Frc consts  --     0.4214                 0.4166                 0.5696
 IR Inten    --     4.4595                 4.2995                 6.7061
 Raman Activ --     3.9816                 0.9089                 3.4663

                    28                     29                     30
                     A                      A                      A
 Frequencies --   416.8643               438.9747               461.0617
 Red. masses --     5.1567                 3.6471                 5.1406
 Frc consts  --     0.5280                 0.4141                 0.6439
 IR Inten    --    13.3764                 6.5192                10.7741
 Raman Activ --     1.1683                 0.4151                 0.8723

                    31                     32                     33
                     A                      A                      A
 Frequencies --   472.5607               495.7037               499.3665
 Red. masses --     4.8440                 4.7206                 5.3149
 Frc consts  --     0.6373                 0.6834                 0.7809
 IR Inten    --     6.3705                33.3276                 8.6590
 Raman Activ --     2.3975                 3.9810                 1.7852

                    34                     35                     36
                     A                      A                      A
 Frequencies --   531.4726               545.8651               553.1597
 Red. masses --     4.7770                 4.6845                 5.2254
 Frc consts  --     0.7950                 0.8224                 0.9420
 IR Inten    --    17.5133                19.0371                12.2403
 Raman Activ --     1.4073                 3.2329                 7.5377

                    37                     38                     39
                     A                      A                      A
 Frequencies --   594.1380               619.2859               641.2488
 Red. masses --     3.4952                 4.5580                 1.0862
 Frc consts  --     0.7269                 1.0299                 0.2632
 IR Inten    --     4.3666                 0.2874                98.8905
 Raman Activ --     0.4841                 0.7314                 1.5394

                    40                     41                     42
                     A                      A                      A
 Frequencies --   645.0740               670.9902               682.9618
 Red. masses --     3.8263                 1.0663                 2.3783
 Frc consts  --     0.9381                 0.2829                 0.6536
 IR Inten    --    38.0897               125.9017                48.5501
 Raman Activ --     0.9340                 1.5494                 1.8471

                    43                     44                     45
                     A                      A                      A
 Frequencies --   692.6439               696.5524               715.9902
 Red. masses --     1.1487                 1.2641                 1.1126
 Frc consts  --     0.3247                 0.3614                 0.3360
 IR Inten    --    48.8472               114.7263                90.0560
 Raman Activ --     0.4929                 2.7722                 1.3927

                    46                     47                     48
                     A                      A                      A
 Frequencies --   751.0238               766.4299               847.8958
 Red. masses --     1.1108                 4.6166                 2.7914
 Frc consts  --     0.3691                 1.5978                 1.1824
 IR Inten    --   125.8915                25.0611                11.8947
 Raman Activ --     1.0428                 1.6315                 0.4631

                    49                     50                     51
                     A                      A                      A
 Frequencies --   854.6670               867.8257               919.3644
 Red. masses --     2.6946                 2.4862                 3.1973
 Frc consts  --     1.1597                 1.1032                 1.5922
 IR Inten    --    14.0039                 6.0791                44.1798
 Raman Activ --     4.1617                 7.2059                 5.8283

                    52                     53                     54
                     A                      A                      A
 Frequencies --   972.8611               981.2941               986.9289
 Red. masses --     3.7634                 3.7590                 4.4966
 Frc consts  --     2.0986                 2.1326                 2.5805
 IR Inten    --   281.2879                94.8285                57.9672
 Raman Activ --     2.6314                 2.5931                 0.8676

                    55                     56                     57
                     A                      A                      A
 Frequencies --  1004.8914              1012.1125              1034.0031
 Red. masses --     4.6307                 4.3479                 5.8633
 Frc consts  --     2.7551                 2.6241                 3.6935
 IR Inten    --   108.3777                47.6531               128.5863
 Raman Activ --     2.2667                 4.8346                 2.6462

                    58                     59                     60
                     A                      A                      A
 Frequencies --  1038.3708              1039.9736              1049.4505
 Red. masses --     4.4086                 5.4289                 2.1122
 Frc consts  --     2.8006                 3.4595                 1.3706
 IR Inten    --    90.4644               234.2304                37.2928
 Raman Activ --     1.1842                 2.9356                 7.9039

                    61                     62                     63
                     A                      A                      A
 Frequencies --  1066.0710              1075.6572              1083.3274
 Red. masses --     4.1921                 5.5278                 3.8980
 Frc consts  --     2.8071                 3.7683                 2.6953
 IR Inten    --   246.5167                11.8166                87.9723
 Raman Activ --     1.6980                 9.4121                 2.7030

                    64                     65                     66
                     A                      A                      A
 Frequencies --  1087.4600              1097.0254              1102.3746
 Red. masses --     3.4425                 2.7317                 2.8087
 Frc consts  --     2.3986                 1.9369                 2.0110
 IR Inten    --    11.8275                91.6378                98.7787
 Raman Activ --     5.7364                 2.8741                 2.0606

                    67                     68                     69
                     A                      A                      A
 Frequencies --  1111.1570              1115.7631              1127.1805
 Red. masses --     3.2265                 2.4238                 2.8635
 Frc consts  --     2.3471                 1.7778                 2.1436
 IR Inten    --    11.1918                 7.7723                 7.4325
 Raman Activ --     4.2445                 5.6305                 2.8203

                    70                     71                     72
                     A                      A                      A
 Frequencies --  1132.9345              1149.9922              1156.7826
 Red. masses --     2.5484                 2.3035                 2.5001
 Frc consts  --     1.9272                 1.7948                 1.9711
 IR Inten    --    25.1948                32.4773                41.5331
 Raman Activ --     3.4305                 5.2189                 2.8154

                    73                     74                     75
                     A                      A                      A
 Frequencies --  1164.8858              1198.1612              1201.9893
 Red. masses --     1.5602                 1.3986                 1.3459
 Frc consts  --     1.2474                 1.1829                 1.1456
 IR Inten    --    14.6973                 6.7911                 2.5771
 Raman Activ --     1.0152                 1.7242                 2.4522

                    76                     77                     78
                     A                      A                      A
 Frequencies --  1223.9011              1227.3804              1237.0556
 Red. masses --     1.4567                 1.2499                 1.6052
 Frc consts  --     1.2857                 1.1094                 1.4473
 IR Inten    --    12.7932                43.6930                 9.2867
 Raman Activ --     1.5828                 1.8886                 1.1815

                    79                     80                     81
                     A                      A                      A
 Frequencies --  1254.1308              1263.6316              1274.5824
 Red. masses --     1.2215                 1.4650                 1.3090
 Frc consts  --     1.1320                 1.3783                 1.2530
 IR Inten    --     3.0329                45.3422                20.9697
 Raman Activ --     3.9907                 3.4280                 3.5817

                    82                     83                     84
                     A                      A                      A
 Frequencies --  1277.4557              1280.3429              1282.9163
 Red. masses --     1.2581                 1.2562                 1.2050
 Frc consts  --     1.2096                 1.2133                 1.1685
 IR Inten    --    34.1008                 8.2138                45.5120
 Raman Activ --     1.4271                 1.4993                 2.7362

                    85                     86                     87
                     A                      A                      A
 Frequencies --  1298.1043              1307.0948              1314.8521
 Red. masses --     1.3223                 1.2476                 1.3737
 Frc consts  --     1.3128                 1.2558                 1.3992
 IR Inten    --     4.3303                 6.8222                 6.6222
 Raman Activ --     7.8672                 3.5116                 1.7224

                    88                     89                     90
                     A                      A                      A
 Frequencies --  1319.0936              1334.6706              1338.0290
 Red. masses --     1.3157                 1.3686                 1.3598
 Frc consts  --     1.3489                 1.4364                 1.4343
 IR Inten    --    10.0284                26.5158                 4.5556
 Raman Activ --     2.3038                 4.7157                 1.7008

                    91                     92                     93
                     A                      A                      A
 Frequencies --  1344.5731              1355.2113              1368.9972
 Red. masses --     1.2758                 1.3110                 1.3244
 Frc consts  --     1.3589                 1.4186                 1.4624
 IR Inten    --     4.4281                59.5674                13.7400
 Raman Activ --     1.7497                 9.6120                 2.0555

                    94                     95                     96
                     A                      A                      A
 Frequencies --  1370.3789              1377.2518              1382.7566
 Red. masses --     1.5617                 1.3284                 1.2457
 Frc consts  --     1.7279                 1.4845                 1.4033
 IR Inten    --     6.8798                17.9180                 8.8131
 Raman Activ --     4.4753                 2.6315                 4.8792

                    97                     98                     99
                     A                      A                      A
 Frequencies --  1399.4186              1406.7423              1419.3311
 Red. masses --     1.3923                 1.2739                 1.3926
 Frc consts  --     1.6065                 1.4853                 1.6529
 IR Inten    --   102.4730                 7.2516                15.3115
 Raman Activ --     3.0170                 2.3674                 1.9816

                   100                    101                    102
                     A                      A                      A
 Frequencies --  1440.5384              1451.8234              1455.2131
 Red. masses --     1.3848                 1.3780                 1.1023
 Frc consts  --     1.6931                 1.7113                 1.3753
 IR Inten    --    19.7383                28.1631                10.7288
 Raman Activ --     2.4405                 5.1220                 7.8321

                   103                    104                    105
                     A                      A                      A
 Frequencies --  1465.4133              1474.5721              1475.3245
 Red. masses --     1.3468                 1.3533                 1.1639
 Frc consts  --     1.7041                 1.7337                 1.4926
 IR Inten    --     5.7182                35.9847                12.6278
 Raman Activ --     2.9522                 2.7589                 5.3415

                   106                    107                    108
                     A                      A                      A
 Frequencies --  1478.1681              1478.8556              3255.2947
 Red. masses --     1.4526                 1.2717                 1.0822
 Frc consts  --     1.8700                 1.6386                 6.7567
 IR Inten    --    35.0003                45.0338                55.0974
 Raman Activ --     1.6335                 3.5705                75.6040

                   109                    110                    111
                     A                      A                      A
 Frequencies --  3259.3888              3269.0217              3275.9505
 Red. masses --     1.0805                 1.0574                 1.0840
 Frc consts  --     6.7631                 6.6574                 6.8544
 IR Inten    --     8.4571                41.9922                40.1968
 Raman Activ --    43.0813                89.2488                72.3625

                   112                    113                    114
                     A                      A                      A
 Frequencies --  3278.0307              3282.4234              3289.8189
 Red. masses --     1.0683                 1.0824                 1.0752
 Frc consts  --     6.7637                 6.8708                 6.8565
 IR Inten    --     5.0102                 4.5137                61.6922
 Raman Activ --    64.8687                81.0349               149.1215

                   115                    116                    117
                     A                      A                      A
 Frequencies --  3293.7695              3297.2322              3299.0603
 Red. masses --     1.0857                 1.0849                 1.0859
 Frc consts  --     6.9399                 6.9494                 6.9636
 IR Inten    --    38.4671                 0.6893                 6.3108
 Raman Activ --    90.7671                85.7077                61.0427

                   118                    119                    120
                     A                      A                      A
 Frequencies --  3308.1689              3318.0243              3330.4180
 Red. masses --     1.0861                 1.0899                 1.1047
 Frc consts  --     7.0031                 7.0696                 7.2192
 IR Inten    --    20.9095                18.0155                50.7128
 Raman Activ --    47.1953                15.1674                53.2784

                   121                    122                    123
                     A                      A                      A
 Frequencies --  3342.7267              3383.1509              3384.4949
 Red. masses --     1.1052                 1.0666                 1.0686
 Frc consts  --     7.2762                 7.1930                 7.2119
 IR Inten    --    31.7152                34.3117                17.6574
 Raman Activ --    99.1366                68.4736                38.2715

                   124                    125                    126
                     A                      A                      A
 Frequencies --  3385.9792              3388.3829              3400.4411
 Red. masses --     1.0672                 1.0653                 1.0663
 Frc consts  --     7.2090                 7.2059                 7.2644
 IR Inten    --    40.3881                34.9223                72.1548
 Raman Activ --   136.7647                87.9565                31.8912

                   127                    128                    129
                     A                      A                      A
 Frequencies --  3400.5490              3909.3146              3917.4420
 Red. masses --     1.0663                 1.0676                 1.0672
 Frc consts  --     7.2646                 9.6133                 9.6496
 IR Inten    --     4.5968                45.7523                70.6665
 Raman Activ --   242.6211               120.7859               129.6677

 - Thermochemistry -
 -------------------
 Temperature   298.150 Kelvin.  Pressure   1.00000 Atm.
 Atom     1 has atomic number  8 and mass  15.99491

 Molecular mass:   342.11621 amu.
 Principal axes and moments of inertia in atomic units:
                           1         2         3
     Eigenvalues --  4446.28089********************
           X            0.99999   0.00483   0.00085
           Y           -0.00484   0.99997   0.00565
           Z           -0.00082  -0.00566   0.99998
 This molecule is an asymmetric top.
 Rotational symmetry number  1.
 Warning -- assumption of classical behavior for rotation
           may cause significant error
 Rotational temperatures (Kelvin)      0.01948     0.00734     0.00581
 Rotational constants (GHZ):           0.40590     0.15286     0.12103
    8 imaginary frequencies ignored.
 Zero-point vibrational energy     975568.3 (Joules/Mol)
                                  233.16643 (Kcal/Mol)
 Warning -- explicit consideration of  30 degrees of freedom as
           vibrations may cause significant error
 Vibrational temperatures:     19.29    28.45    70.13   123.05   167.31
          (Kelvin)            193.75   227.06   243.88   290.42   324.66
                              344.88   394.43   421.16   441.08   464.28
                              498.56   510.00   517.56   595.47   599.77
                              631.59   663.36   679.91   713.21   718.48
                              764.67   785.38   795.87   854.83   891.01
                              922.61   928.12   965.40   982.63   996.56
                             1002.18  1030.15  1080.55  1102.72  1219.93
                             1229.67  1248.61  1322.76  1399.73  1411.86
                             1419.97  1445.81  1456.20  1487.70  1493.98
                             1496.29  1509.92  1533.84  1547.63  1558.66
                             1564.61  1578.37  1586.07  1598.71  1605.33
                             1621.76  1630.04  1654.58  1664.35  1676.01
                             1723.88  1729.39  1760.92  1765.92  1779.84
                             1804.41  1818.08  1833.84  1837.97  1842.13
                             1845.83  1867.68  1880.62  1891.78  1897.88
                             1920.29  1925.12  1934.54  1949.84  1969.68
                             1971.67  1981.56  1989.48  2013.45  2023.99
                             2042.10  2072.61  2088.85  2093.72  2108.40
                             2121.58  2122.66  2126.75  2127.74  4683.64
                             4689.53  4703.39  4713.36  4716.35  4722.67
                             4733.31  4738.99  4743.98  4746.61  4759.71
                             4773.89  4791.72  4809.43  4867.59  4869.53
                             4871.66  4875.12  4892.47  4892.63  5624.62
                             5636.32

 Zero-point correction=                           0.371574 (Hartree/Particle)
 Thermal correction to Energy=                    0.389724
 Thermal correction to Enthalpy=                  0.390668
 Thermal correction to Gibbs Free Energy=         0.323662
 Sum of electronic and zero-point Energies=          -1297.530902
 Sum of electronic and thermal Energies=             -1297.512752
 Sum of electronic and thermal Enthalpies=           -1297.511808
 Sum of electronic and thermal Free Energies=        -1297.578814

                     E (Thermal)             CV                S
                      KCal/Mol        Cal/Mol-Kelvin    Cal/Mol-Kelvin
 Total                  244.556             74.209            141.028
 Electronic               0.000              0.000              0.000
 Translational            0.889              2.981             43.384
 Rotational               0.889              2.981             35.014
 Vibrational            242.778             68.248             62.629
 Vibration     1          0.593              1.987              7.428
 Vibration     2          0.593              1.986              6.657
 Vibration     3          0.595              1.978              4.868
 Vibration     4          0.601              1.959              3.760
 Vibration     5          0.608              1.936              3.161
 Vibration     6          0.613              1.919              2.878
 Vibration     7          0.621              1.894              2.576
 Vibration     8          0.625              1.880              2.441
 Vibration     9          0.639              1.837              2.116
 Vibration    10          0.650              1.802              1.913
 Vibration    11          0.657              1.780              1.805
 Vibration    12          0.676              1.721              1.570
 Vibration    13          0.688              1.687              1.458
 Vibration    14          0.697              1.661              1.381
 Vibration    15          0.708              1.630              1.296
 Vibration    16          0.725              1.582              1.182
 Vibration    17          0.730              1.566              1.146
 Vibration    18          0.734              1.555              1.123
 Vibration    19          0.777              1.440              0.913
 Vibration    20          0.780              1.434              0.903
 Vibration    21          0.799              1.385              0.830
 Vibration    22          0.819              1.336              0.763
 Vibration    23          0.829              1.311              0.730
 Vibration    24          0.851              1.260              0.669
 Vibration    25          0.855              1.251              0.660
 Vibration    26          0.886              1.180              0.584
 Vibration    27          0.901              1.149              0.553
 Vibration    28          0.909              1.133              0.538
 Vibration    29          0.952              1.044              0.460
 Vibration    30          0.979              0.991              0.418

 Normal termination of Gaussian 09 at Thu Jan 21 19:02:35 2016.
