 Gaussian 09, Revision B.01,
 Gaussian 09:  EM64L-G09RevB.01 12-Aug-2010

 ------------------------------------------------
 # freq=raman b3lyp/6-31+g(d,p) geom=connectivity
 ------------------------------------------------

 ------------
 550 5000.com
 ------------
 Symbolic Z-matrix:
 Charge =  0 Multiplicity = 1

                         Standard orientation:
 ---------------------------------------------------------------------
 Center     Atomic      Atomic             Coordinates (Angstroms)
 Number     Number       Type             X           Y           Z
 ---------------------------------------------------------------------
      1          8           0       -5.102284    0.190345   -0.834206
      2          6           0       -3.934902   -0.026673   -0.028429
      3          6           0       -3.128240   -1.207452   -0.543208
      4          8           0       -4.050823   -2.275086   -0.804529
      5          1           0       -5.004390   -2.013129   -0.657691
      6          6           0       -1.839172   -1.506208    0.206851
      7          8           0       -1.176758   -2.707769   -0.212758
      8          1           0       -1.766757   -3.463655    0.072713
      9          6           0       -3.252333    2.487595    0.236593
     10          8           0       -2.337811    3.585500    0.371219
     11          1           0       -2.869851    4.419031    0.517157
     12          6           0       -2.876890    1.059557   -0.126473
     13          8           0       -1.811144    0.864086    0.815565
     14          6           0       -1.037199   -0.217120    0.274580
     15          8           0        0.172054   -0.283931    1.044668
     16          6           0        1.429929   -0.172116    0.363653
     17          6           0        1.991946    1.237508    0.445765
     18          8           0        1.156946    2.384620    0.229572
     19          1           0        0.262464    2.135858    0.602959
     20          6           0        3.164764    1.265634   -0.520017
     21          8           0        3.690913    2.534491   -0.934112
     22          1           0        2.946787    3.163634   -1.159430
     23          6           0        2.135253   -2.588582    0.930331
     24          8           0        1.770027   -3.166229   -0.330843
     25          1           0        0.858812   -2.832231   -0.572186
     26          6           0        2.509420   -1.116475    0.868560
     27          8           0        3.662688   -1.013046    0.021678
     28          6           0        4.264675    0.274072   -0.174860
     29          8           0        5.373400    0.236237   -1.084587
     30          1           0       -5.871313   -0.170711   -0.387180
     31          1           0       -3.771201    2.424223    1.170220
     32          1           0       -3.971093    2.794807   -0.494095
     33          1           0       -2.469126    1.051959   -1.115700
     34          1           0       -4.211110   -0.184386    0.993205
     35          1           0       -2.795359   -0.902462   -1.513296
     36          1           0       -2.138840   -1.699438    1.215692
     37          1           0       -0.767880    0.046175   -0.726940
     38          1           0        6.094510   -0.259469   -0.689775
     39          1           0        4.660796    0.575425    0.772333
     40          1           0        2.745204    0.870115   -1.421368
     41          1           0        2.398292    1.343704    1.429892
     42          1           0        1.259606   -0.395635   -0.668785
     43          1           0        2.788946   -0.803719    1.852912
     44          1           0        1.311235   -2.699547    1.603816
     45          1           0        2.969088   -3.132745    1.322130
 ---------------------------------------------------------------------

 SCF Done:  E(RB3LYP) =  -1297.89924412     A.U. after   14 cycles

 The electronic state is 1-A.
 Alpha  occ. eigenvalues --  -19.21619 -19.21131 -19.20510 -19.19567 -19.19085
 Alpha  occ. eigenvalues --  -19.17802 -19.17114 -19.16751 -19.16562 -19.15156
 Alpha  occ. eigenvalues --  -19.14482 -10.33045 -10.29567 -10.29158 -10.28168
 Alpha  occ. eigenvalues --  -10.28043 -10.27346 -10.26130 -10.25345 -10.25263
 Alpha  occ. eigenvalues --  -10.24717 -10.23991 -10.23017  -1.11403  -1.08939
 Alpha  occ. eigenvalues --   -1.06951  -1.06490  -1.05459  -1.04116  -1.03340
 Alpha  occ. eigenvalues --   -1.02966  -1.01602  -1.00256  -0.99950  -0.84320
 Alpha  occ. eigenvalues --   -0.82985  -0.79917  -0.78195  -0.72903  -0.70299
 Alpha  occ. eigenvalues --   -0.68307  -0.65375  -0.64675  -0.63541  -0.61692
 Alpha  occ. eigenvalues --   -0.60526  -0.58593  -0.57039  -0.55702  -0.54416
 Alpha  occ. eigenvalues --   -0.54272  -0.53851  -0.53595  -0.52754  -0.51992
 Alpha  occ. eigenvalues --   -0.50561  -0.50378  -0.49542  -0.48718  -0.47588
 Alpha  occ. eigenvalues --   -0.47276  -0.45378  -0.44746  -0.44594  -0.44296
 Alpha  occ. eigenvalues --   -0.43515  -0.43151  -0.41052  -0.40462  -0.40205
 Alpha  occ. eigenvalues --   -0.39514  -0.38572  -0.37460  -0.37340  -0.36395
 Alpha  occ. eigenvalues --   -0.35930  -0.34980  -0.34872  -0.34198  -0.33766
 Alpha  occ. eigenvalues --   -0.32894  -0.32324  -0.31146  -0.30875  -0.30386
 Alpha  occ. eigenvalues --   -0.29911  -0.29249  -0.28749  -0.27149  -0.26468
 Alpha  occ. eigenvalues --   -0.26253
 Alpha virt. eigenvalues --   -0.05202  -0.02311  -0.01741  -0.00762   0.00518
 Alpha virt. eigenvalues --    0.00802   0.01460   0.02019   0.02453   0.03267
 Alpha virt. eigenvalues --    0.03516   0.04342   0.04592   0.04974   0.05579

 Mulliken atomic charges:
              1
     1  O   -0.498285
     2  C   -0.342253
     3  C   -0.021051
     4  O   -0.509341
     5  H    0.323786
     6  C    0.089875
     7  O   -0.523648
     8  H    0.388978
     9  C   -0.219400
    10  O   -0.540908
    11  H    0.362174
    12  C    0.658095
    13  O   -0.328837
    14  C    0.153318
    15  O   -0.363711
    16  C   -0.253781
    17  C    0.029167
    18  O   -0.517833
    19  H    0.389097
    20  C   -0.086877
    21  O   -0.490593
    22  H    0.367950
    23  C   -0.239280
    24  O   -0.487619
    25  H    0.386170
    26  C    0.234949
    27  O   -0.331222
    28  C    0.331439
    29  O   -0.485360
    30  H    0.354055
    31  H    0.125517
    32  H    0.136662
    33  H    0.129724
    34  H    0.152562
    35  H    0.134012
    36  H    0.140373
    37  H    0.111419
    38  H    0.352665
    39  H    0.105908
    40  H    0.127344
    41  H    0.123496
    42  H    0.128502
    43  H    0.122074
    44  H    0.138173
    45  H    0.142515
 Sum of Mulliken atomic charges =   0.00000

 Dipole moment (field-independent basis, Debye):
    X=             -9.0671    Y=             -0.0297    Z=              3.9573  Tot=              9.8931
 Quadrupole moment (field-independent basis, Debye-Ang):
   XX=           -113.5575   YY=           -146.4992   ZZ=           -143.1991
   XY=             -7.4819   XZ=              5.5912   YZ=             -7.5322

  Exact polarizability: 223.024   0.984 192.248   0.015  -1.971 145.826
 Approx polarizability: 266.385   0.785 250.357  -1.444  -0.656 234.864

 ******    7 imaginary frequencies (negative Signs) ******

                     1                      2                      3
                     A                      A                      A
 Frequencies --  -337.1720              -299.3763              -284.3928
 Red. masses --     1.6415                 1.2364                 1.0921
 Frc consts  --     0.1099                 0.0653                 0.0520
 IR Inten    --     3.5559               107.4052               136.3708
 Raman Activ --     0.0687                 0.8643                 1.5090

                     4                      5                      6
                     A                      A                      A
 Frequencies --   -85.0700               -79.0458               -63.1486
 Red. masses --     5.0896                 2.4508                 6.3195
 Frc consts  --     0.0217                 0.0090                 0.0148
 IR Inten    --     2.2324                 1.1342                 1.7147
 Raman Activ --     0.1620                 0.1100                 0.0206

                     7                      8                      9
                     A                      A                      A
 Frequencies --   -30.8627                54.7758                60.3765
 Red. masses --     6.4211                 5.7355                 4.6155
 Frc consts  --     0.0036                 0.0101                 0.0099
 IR Inten    --     0.7973                 2.5729                 0.5675
 Raman Activ --     0.1665                 0.0345                 0.2192

                    10                     11                     12
                     A                      A                      A
 Frequencies --    73.0151               102.5696               116.2681
 Red. masses --     6.5027                 6.0213                 6.6189
 Frc consts  --     0.0204                 0.0373                 0.0527
 IR Inten    --     1.6016                 3.1585                 1.0028
 Raman Activ --     0.1004                 0.2046                 0.3731

                    13                     14                     15
                     A                      A                      A
 Frequencies --   120.3921               149.4850               164.9333
 Red. masses --     6.4443                 5.8121                 5.5921
 Frc consts  --     0.0550                 0.0765                 0.0896
 IR Inten    --     0.2037                 0.9094                 0.4243
 Raman Activ --     0.0840                 0.6526                 0.1422

                    16                     17                     18
                     A                      A                      A
 Frequencies --   197.7519               238.6112               254.9517
 Red. masses --     6.1579                 4.8237                 5.1787
 Frc consts  --     0.1419                 0.1618                 0.1983
 IR Inten    --     7.1700                 0.9528                 1.8066
 Raman Activ --     0.2536                 2.4331                 1.0084

                    19                     20                     21
                     A                      A                      A
 Frequencies --   260.0939               272.3204               279.3763
 Red. masses --     5.5365                 5.9758                 4.8286
 Frc consts  --     0.2207                 0.2611                 0.2221
 IR Inten    --     2.1412                 4.1462                11.8014
 Raman Activ --     1.1272                 1.1981                 0.4185

                    22                     23                     24
                     A                      A                      A
 Frequencies --   287.8796               294.9936               321.0057
 Red. masses --     5.6173                 5.8907                 5.8068
 Frc consts  --     0.2743                 0.3020                 0.3525
 IR Inten    --     4.6582                 5.0390                 6.3576
 Raman Activ --     0.4824                 1.8559                 0.8943

                    25                     26                     27
                     A                      A                      A
 Frequencies --   329.8487               352.8731               394.2204
 Red. masses --     7.3469                 4.0792                 4.1235
 Frc consts  --     0.4710                 0.2993                 0.3776
 IR Inten    --     2.0867                 1.8038                15.0139
 Raman Activ --     2.6763                 4.4407                 1.0962

                    28                     29                     30
                     A                      A                      A
 Frequencies --   401.5602               404.2373               414.4385
 Red. masses --     6.7116                 6.3380                 5.5432
 Frc consts  --     0.6376                 0.6102                 0.5610
 IR Inten    --    15.9774                 1.5754                 8.9430
 Raman Activ --     2.4107                 2.9064                 2.3924

                    31                     32                     33
                     A                      A                      A
 Frequencies --   468.3900               474.2783               491.2153
 Red. masses --     4.4384                 5.1371                 2.4076
 Frc consts  --     0.5737                 0.6808                 0.3423
 IR Inten    --     2.1077                 5.7186                27.8226
 Raman Activ --     1.5435                 2.4071                 4.7504

                    34                     35                     36
                     A                      A                      A
 Frequencies --   496.4630               517.3805               546.5244
 Red. masses --     4.4489                 4.0997                 1.8875
 Frc consts  --     0.6461                 0.6466                 0.3322
 IR Inten    --    23.5510                 7.2637                36.6208
 Raman Activ --     5.2616                 4.3492                 1.8569

                    37                     38                     39
                     A                      A                      A
 Frequencies --   555.8504               560.7252               587.2356
 Red. masses --     3.5786                 3.0899                 2.9398
 Frc consts  --     0.6514                 0.5724                 0.5973
 IR Inten    --     2.9528                57.3838                 5.2641
 Raman Activ --     2.5932                 1.9556                 0.1219

                    40                     41                     42
                     A                      A                      A
 Frequencies --   633.6185               647.1014               656.0735
 Red. masses --     3.1575                 1.0612                 5.3109
 Frc consts  --     0.7469                 0.2618                 1.3469
 IR Inten    --    31.8709               117.1612                17.3939
 Raman Activ --     1.2706                 2.1299                 0.0892

                    43                     44                     45
                     A                      A                      A
 Frequencies --   682.8530               692.2223               704.1399
 Red. masses --     1.1105                 1.1513                 2.8965
 Frc consts  --     0.3051                 0.3250                 0.8462
 IR Inten    --   115.3765                97.4810                13.5853
 Raman Activ --     1.8804                 1.6038                 0.1551

                    46                     47                     48
                     A                      A                      A
 Frequencies --   766.6521               771.9981               855.7973
 Red. masses --     1.0803                 1.0737                 2.5113
 Frc consts  --     0.3741                 0.3770                 1.0836
 IR Inten    --   134.0959                92.4006                 4.0199
 Raman Activ --     2.6796                 0.8365                 2.1035

                    49                     50                     51
                     A                      A                      A
 Frequencies --   871.8518               889.5929               949.5825
 Red. masses --     2.6723                 2.9154                 5.3775
 Frc consts  --     1.1968                 1.3594                 2.8569
 IR Inten    --     2.6897                21.0454                52.4974
 Raman Activ --     1.0677                 1.8898                 0.8824

                    52                     53                     54
                     A                      A                      A
 Frequencies --   966.6134               977.4653               992.5307
 Red. masses --     5.6529                 5.0790                 4.0473
 Frc consts  --     3.1119                 2.8591                 2.3491
 IR Inten    --   225.6809                59.4525                64.1335
 Raman Activ --     1.2512                 2.7712                 0.9381

                    55                     56                     57
                     A                      A                      A
 Frequencies --  1002.5441              1022.7922              1025.7094
 Red. masses --     4.1478                 4.9028                 3.2725
 Frc consts  --     2.4563                 3.0218                 2.0285
 IR Inten    --     4.5085               155.2151               375.5654
 Raman Activ --     3.1263                 0.5718                 1.0759

                    58                     59                     60
                     A                      A                      A
 Frequencies --  1035.2634              1038.8512              1057.8879
 Red. masses --     4.5323                 4.0007                 3.6720
 Frc consts  --     2.8620                 2.5439                 2.4212
 IR Inten    --    60.5333               202.2388                90.1497
 Raman Activ --     3.9565                 2.6077                 1.0513

                    61                     62                     63
                     A                      A                      A
 Frequencies --  1058.7988              1071.7416              1078.5936
 Red. masses --     2.9174                 4.4016                 3.8958
 Frc consts  --     1.9270                 2.9788                 2.6703
 IR Inten    --   126.7324               126.8720                12.5637
 Raman Activ --     2.0418                 2.1809                 9.3033

                    64                     65                     66
                     A                      A                      A
 Frequencies --  1097.9284              1101.1551              1114.7485
 Red. masses --     3.4780                 3.0625                 2.8416
 Frc consts  --     2.4702                 2.1879                 2.0805
 IR Inten    --   187.5386                13.7079                15.9736
 Raman Activ --     7.2698                 4.9362                 7.0312

                    67                     68                     69
                     A                      A                      A
 Frequencies --  1127.1865              1140.1735              1156.7960
 Red. masses --     2.9705                 2.9784                 2.7532
 Frc consts  --     2.2237                 2.2813                 2.1707
 IR Inten    --    39.2056                13.1599                25.7456
 Raman Activ --     7.0500                 2.1978                 4.9375

                    70                     71                     72
                     A                      A                      A
 Frequencies --  1162.7020              1169.1568              1169.8429
 Red. masses --     1.9953                 1.6805                 2.5709
 Frc consts  --     1.5892                 1.3534                 2.0729
 IR Inten    --    54.2582                13.1972                55.2787
 Raman Activ --     3.1714                 2.3958                 1.6035

                    73                     74                     75
                     A                      A                      A
 Frequencies --  1178.2669              1184.3924              1192.7429
 Red. masses --     1.9982                 3.3148                 3.4171
 Frc consts  --     1.6345                 2.7397                 2.8642
 IR Inten    --    12.9495                36.1325               102.4148
 Raman Activ --     0.5531                 6.6890                 2.0637

                    76                     77                     78
                     A                      A                      A
 Frequencies --  1220.7681              1224.9530              1245.1624
 Red. masses --     1.5932                 1.4339                 1.3779
 Frc consts  --     1.3989                 1.2677                 1.2587
 IR Inten    --     2.4920                 7.5233                 2.9788
 Raman Activ --     2.2248                 3.7746                 4.3913

                    79                     80                     81
                     A                      A                      A
 Frequencies --  1258.5473              1264.6398              1275.5456
 Red. masses --     1.3343                 1.3234                 1.2649
 Frc consts  --     1.2452                 1.2471                 1.2125
 IR Inten    --     2.4485                 8.8330                 4.8772
 Raman Activ --     1.5454                 4.9953                 4.3847

                    82                     83                     84
                     A                      A                      A
 Frequencies --  1292.5739              1293.9985              1314.0767
 Red. masses --     1.1871                 1.2688                 1.2613
 Frc consts  --     1.1686                 1.2518                 1.2833
 IR Inten    --     0.5758                33.0391                16.7474
 Raman Activ --     4.0681                 2.9842                 5.1295

                    85                     86                     87
                     A                      A                      A
 Frequencies --  1322.1815              1332.0603              1335.4476
 Red. masses --     1.1373                 1.2704                 1.3451
 Frc consts  --     1.1714                 1.3281                 1.4134
 IR Inten    --    23.5226                10.6354                 0.7661
 Raman Activ --     2.9327                 4.1098                 3.5203

                    88                     89                     90
                     A                      A                      A
 Frequencies --  1344.6352              1347.6993              1354.8076
 Red. masses --     1.2515                 1.3263                 1.1697
 Frc consts  --     1.3332                 1.4193                 1.2649
 IR Inten    --    63.1525                 2.9871                 1.9027
 Raman Activ --     2.6344                 1.9566                 2.3767

                    91                     92                     93
                     A                      A                      A
 Frequencies --  1362.2287              1369.9277              1375.2577
 Red. masses --     1.2278                 1.6251                 1.2002
 Frc consts  --     1.3424                 1.7969                 1.3374
 IR Inten    --     4.8748                 2.9777                45.3566
 Raman Activ --     6.2580                 5.1747                 3.1940

                    94                     95                     96
                     A                      A                      A
 Frequencies --  1382.2627              1389.3127              1397.7068
 Red. masses --     1.2252                 1.2230                 1.4973
 Frc consts  --     1.3792                 1.3908                 1.7234
 IR Inten    --    20.1137                10.0261                 2.3126
 Raman Activ --     2.6880                 1.7462                10.5466

                    97                     98                     99
                     A                      A                      A
 Frequencies --  1408.9696              1415.2595              1421.2144
 Red. masses --     1.1924                 1.4254                 1.1132
 Frc consts  --     1.3946                 1.6822                 1.3247
 IR Inten    --    29.4616                34.4850                13.6038
 Raman Activ --     7.5938                 1.4141                 1.0250

                   100                    101                    102
                     A                      A                      A
 Frequencies --  1431.6768              1436.4622              1448.8913
 Red. masses --     1.3042                 1.3226                 1.1083
 Frc consts  --     1.5751                 1.6079                 1.3708
 IR Inten    --     3.6745                 7.4981                 5.8585
 Raman Activ --     3.0517                 6.4762                 4.9251

                   103                    104                    105
                     A                      A                      A
 Frequencies --  1452.0571              1461.8755              1464.1386
 Red. masses --     1.5834                 1.2632                 1.2478
 Frc consts  --     1.9671                 1.5905                 1.5761
 IR Inten    --    54.3490                 6.5505                14.6754
 Raman Activ --     2.5372                 4.7639                 3.7693

                   106                    107                    108
                     A                      A                      A
 Frequencies --  1467.9827              1468.5969              3257.4302
 Red. masses --     1.1701                 1.2399                 1.0794
 Frc consts  --     1.4857                 1.5756                 6.7478
 IR Inten    --     1.7015                75.9925                 3.9642
 Raman Activ --     3.3836                 3.6369               112.8027

                   109                    110                    111
                     A                      A                      A
 Frequencies --  3262.6186              3264.5333              3266.1933
 Red. masses --     1.0653                 1.0754                 1.0825
 Frc consts  --     6.6810                 6.7528                 6.8038
 IR Inten    --    45.7343                11.9471                11.2996
 Raman Activ --    35.9193               136.0357                 7.5182

                   112                    113                    114
                     A                      A                      A
 Frequencies --  3272.6706              3277.9544              3280.4451
 Red. masses --     1.0832                 1.0783                 1.0754
 Frc consts  --     6.8357                 6.8263                 6.8186
 IR Inten    --     2.4063                48.6210                25.8378
 Raman Activ --     8.3744                41.5634                61.7209

                   115                    116                    117
                     A                      A                      A
 Frequencies --  3283.4790              3289.4891              3293.4770
 Red. masses --     1.0844                 1.0744                 1.0850
 Frc consts  --     6.8883                 6.8500                 6.9344
 IR Inten    --     7.0402                34.6718                14.3826
 Raman Activ --    58.5343               158.6488               136.7098

                   118                    119                    120
                     A                      A                      A
 Frequencies --  3302.2608              3306.9846              3315.4182
 Red. masses --     1.0853                 1.0958                 1.0928
 Frc consts  --     6.9729                 7.0609                 7.0772
 IR Inten    --   109.0889                 4.1377                94.8466
 Raman Activ --     8.3510                41.1663                29.5460

                   121                    122                    123
                     A                      A                      A
 Frequencies --  3345.3163              3377.8477              3380.0199
 Red. masses --     1.1054                 1.0674                 1.0678
 Frc consts  --     7.2887                 7.1757                 7.1878
 IR Inten    --    52.3727                21.0273               282.9720
 Raman Activ --   107.4981                21.2580               202.5668

                   124                    125                    126
                     A                      A                      A
 Frequencies --  3389.0755              3396.0783              3396.4119
 Red. masses --     1.0664                 1.0674                 1.0665
 Frc consts  --     7.2168                 7.2536                 7.2482
 IR Inten    --    31.1586                58.5903                56.5898
 Raman Activ --    94.3224               141.5092                93.4233

                   127                    128                    129
                     A                      A                      A
 Frequencies --  3398.9659              3911.4824              3918.7775
 Red. masses --     1.0666                 1.0679                 1.0670
 Frc consts  --     7.2601                 9.6267                 9.6546
 IR Inten    --    74.0529                68.3753                70.2139
 Raman Activ --    84.6768               106.5500               131.5876

 - Thermochemistry -
 -------------------
 Temperature   298.150 Kelvin.  Pressure   1.00000 Atm.
 Atom     1 has atomic number  8 and mass  15.99491

 Molecular mass:   342.11621 amu.
 Principal axes and moments of inertia in atomic units:
                           1         2         3
     Eigenvalues --  4648.27241********************
           X            0.99998  -0.00629   0.00256
           Y            0.00630   0.99996  -0.00625
           Z           -0.00252   0.00627   0.99998
 This molecule is an asymmetric top.
 Rotational symmetry number  1.
 Warning -- assumption of classical behavior for rotation
           may cause significant error
 Rotational temperatures (Kelvin)      0.01863     0.00731     0.00560
 Rotational constants (GHZ):           0.38826     0.15235     0.11676
    7 imaginary frequencies ignored.
 Zero-point vibrational energy     976495.2 (Joules/Mol)
                                  233.38796 (Kcal/Mol)
 Warning -- explicit consideration of  32 degrees of freedom as
           vibrations may cause significant error
 Vibrational temperatures:     78.81    86.87   105.05   147.57   167.28
          (Kelvin)            173.22   215.08   237.30   284.52   343.31
                              366.82   374.22   391.81   401.96   414.19
                              424.43   461.86   474.58   507.71   567.19
                              577.75   581.61   596.28   673.91   682.38
                              706.75   714.30   744.39   786.33   799.74
                              806.76   844.90   911.63   931.03   943.94
                              982.47   995.95  1013.10  1103.04  1110.73
                             1231.30  1254.40  1279.92  1366.24  1390.74
                             1406.35  1428.03  1442.44  1471.57  1475.77
                             1489.51  1494.67  1522.06  1523.37  1542.00
                             1551.85  1579.67  1584.31  1603.87  1621.77
                             1640.45  1664.37  1672.87  1682.15  1683.14
                             1695.26  1704.07  1716.09  1756.41  1762.43
                             1791.51  1810.77  1819.53  1835.22  1859.72
                             1861.77  1890.66  1902.32  1916.54  1921.41
                             1934.63  1939.04  1949.26  1959.94  1971.02
                             1978.69  1988.77  1998.91  2010.99  2027.19
                             2036.24  2044.81  2059.86  2066.75  2084.63
                             2089.18  2103.31  2106.57  2112.10  2112.98
                             4686.71  4694.17  4696.93  4699.32  4708.64
                             4716.24  4719.82  4724.19  4732.84  4738.57
                             4751.21  4758.01  4770.14  4813.16  4859.96
                             4863.09  4876.12  4886.19  4886.67  4890.35
                             5627.74  5638.24

 Zero-point correction=                           0.371927 (Hartree/Particle)
 Thermal correction to Energy=                    0.390707
 Thermal correction to Enthalpy=                  0.391652
 Thermal correction to Gibbs Free Energy=         0.325925
 Sum of electronic and zero-point Energies=          -1297.527317
 Sum of electronic and thermal Energies=             -1297.508537
 Sum of electronic and thermal Enthalpies=           -1297.507593
 Sum of electronic and thermal Free Energies=        -1297.573319

                     E (Thermal)             CV                S
                      KCal/Mol        Cal/Mol-Kelvin    Cal/Mol-Kelvin
 Total                  245.173             76.758            138.334
 Electronic               0.000              0.000              0.000
 Translational            0.889              2.981             43.384
 Rotational               0.889              2.981             35.097
 Vibrational            243.395             70.796             59.852
 Vibration     1          0.596              1.976              4.637
 Vibration     2          0.597              1.973              4.445
 Vibration     3          0.599              1.967              4.070
 Vibration     4          0.605              1.947              3.405
 Vibration     5          0.608              1.936              3.161
 Vibration     6          0.609              1.932              3.094
 Vibration     7          0.618              1.903              2.679
 Vibration     8          0.623              1.886              2.492
 Vibration     9          0.637              1.843              2.154
 Vibration    10          0.657              1.781              1.813
 Vibration    11          0.665              1.754              1.696
 Vibration    12          0.668              1.746              1.661
 Vibration    13          0.675              1.724              1.581
 Vibration    14          0.680              1.712              1.537
 Vibration    15          0.685              1.696              1.486
 Vibration    16          0.689              1.683              1.445
 Vibration    17          0.706              1.633              1.305
 Vibration    18          0.713              1.616              1.261
 Vibration    19          0.729              1.569              1.153
 Vibration    20          0.761              1.483              0.984
 Vibration    21          0.767              1.467              0.957
 Vibration    22          0.769              1.461              0.947
 Vibration    23          0.778              1.439              0.911
 Vibration    24          0.826              1.320              0.742
 Vibration    25          0.831              1.307              0.726
 Vibration    26          0.847              1.270              0.680
 Vibration    27          0.852              1.258              0.667
 Vibration    28          0.872              1.211              0.616
 Vibration    29          0.902              1.147              0.551
 Vibration    30          0.911              1.127              0.532
 Vibration    31          0.916              1.116              0.522
 Vibration    32          0.944              1.059              0.472

 Normal termination of Gaussian 09 at Thu Jan 21 18:27:36 2016.
