 Gaussian 09, Revision B.01,
 Gaussian 09:  EM64L-G09RevB.01 12-Aug-2010

 ------------------------------------------------
 # freq=raman b3lyp/6-31+g(d,p) geom=connectivity
 ------------------------------------------------

 ------------
 500 9000.com
 ------------
 Symbolic Z-matrix:
 Charge =  0 Multiplicity = 1

                         Standard orientation:
 ---------------------------------------------------------------------
 Center     Atomic      Atomic             Coordinates (Angstroms)
 Number     Number       Type             X           Y           Z
 ---------------------------------------------------------------------
      1          8           0       -5.004485    0.418589   -0.630299
      2          6           0       -3.764423    0.096763    0.017458
      3          6           0       -3.174316   -1.205938   -0.498589
      4          8           0       -4.082178   -2.300670   -0.306736
      5          1           0       -5.025898   -1.969985   -0.340489
      6          6           0       -1.848557   -1.505550    0.181829
      7          8           0       -1.259469   -2.624958   -0.495948
      8          1           0       -1.871508   -3.415227   -0.500542
      9          6           0       -3.211293    2.558727    0.191681
     10          8           0       -2.145484    3.500001    0.383876
     11          1           0       -2.389626    4.459444    0.522990
     12          6           0       -2.700845    1.168508   -0.152829
     13          8           0       -1.661695    0.828491    0.777085
     14          6           0       -0.943433   -0.285265    0.225966
     15          8           0        0.226942   -0.468153    1.036355
     16          6           0        1.384789   -0.361709    0.195054
     17          6           0        1.771162    1.106472    0.118140
     18          8           0        0.880748    2.092864   -0.424591
     19          1           0        0.066675    2.308917    0.114577
     20          6           0        3.131440    1.305310   -0.531187
     21          8           0        3.695803    2.597595   -0.264745
     22          1           0        3.214800    3.170111   -0.927847
     23          6           0        1.996132   -2.591890    0.830072
     24          8           0        1.640659   -3.146764   -0.444782
     25          1           0        0.697070   -2.885132   -0.645320
     26          6           0        2.551688   -1.181619    0.719787
     27          8           0        3.742626   -0.949717   -0.045968
     28          6           0        4.201506    0.405467    0.064637
     29          8           0        5.342220    0.248851   -0.792533
     30          1           0        6.075966   -0.108065   -0.286739
     31          1           0        2.733751   -3.218834    1.285878
     32          1           0        1.126230   -2.572521    1.452804
     33          1           0        2.753398   -0.845975    1.715556
     34          1           0        1.133066   -0.706037   -0.786258
     35          1           0        1.904522    1.398501    1.138843
     36          1           0        3.063048    1.145054   -1.586905
     37          1           0        4.467086    0.668825    1.067138
     38          1           0       -5.723691    0.346370    0.001465
     39          1           0       -3.789553    2.502344    1.090200
     40          1           0       -3.838820    2.903915   -0.603276
     41          1           0       -2.319207    1.153119   -1.152337
     42          1           0       -3.957295   -0.016742    1.063793
     43          1           0       -2.995441   -1.099485   -1.548147
     44          1           0       -2.053193   -1.800063    1.189939
     45          1           0       -0.639976   -0.043228   -0.771146
 ---------------------------------------------------------------------

 SCF Done:  E(RB3LYP) =  -1297.94429856     A.U. after   14 cycles

 The electronic state is 1-A.
 Alpha  occ. eigenvalues --  -19.20523 -19.19823 -19.19369 -19.19208 -19.18832
 Alpha  occ. eigenvalues --  -19.18062 -19.15876 -19.15866 -19.15677 -19.15523
 Alpha  occ. eigenvalues --  -19.13638 -10.31686 -10.29078 -10.27700 -10.27312
 Alpha  occ. eigenvalues --  -10.27035 -10.26804 -10.26026 -10.24455 -10.23942
 Alpha  occ. eigenvalues --  -10.23903 -10.23824 -10.22165  -1.10493  -1.07842
 Alpha  occ. eigenvalues --   -1.07156  -1.05994  -1.04970  -1.03813  -1.03236
 Alpha  occ. eigenvalues --   -1.02646  -1.00616  -1.00054  -0.98984  -0.82817
 Alpha  occ. eigenvalues --   -0.81668  -0.78808  -0.77091  -0.72668  -0.69563
 Alpha  occ. eigenvalues --   -0.67624  -0.65358  -0.63902  -0.63199  -0.61159
 Alpha  occ. eigenvalues --   -0.59694  -0.57630  -0.56518  -0.55690  -0.54778
 Alpha  occ. eigenvalues --   -0.54122  -0.53124  -0.52716  -0.52175  -0.51500
 Alpha  occ. eigenvalues --   -0.50596  -0.49768  -0.48391  -0.47640  -0.46599
 Alpha  occ. eigenvalues --   -0.45945  -0.45534  -0.45454  -0.44361  -0.43459
 Alpha  occ. eigenvalues --   -0.42698  -0.42419  -0.41041  -0.39687  -0.38977
 Alpha  occ. eigenvalues --   -0.38420  -0.37872  -0.37648  -0.37303  -0.36253
 Alpha  occ. eigenvalues --   -0.35550  -0.34780  -0.34045  -0.33797  -0.33613
 Alpha  occ. eigenvalues --   -0.31946  -0.31602  -0.31442  -0.30613  -0.30124
 Alpha  occ. eigenvalues --   -0.29340  -0.29124  -0.28376  -0.27070  -0.26577
 Alpha  occ. eigenvalues --   -0.25648
 Alpha virt. eigenvalues --   -0.04245  -0.02237  -0.00707   0.00108   0.00812
 Alpha virt. eigenvalues --    0.01323   0.01643   0.02438   0.02829   0.03527
 Alpha virt. eigenvalues --    0.04151   0.04502   0.04808   0.05371   0.06048

 Mulliken atomic charges:
              1
     1  O   -0.530184
     2  C   -0.459616
     3  C    0.003438
     4  O   -0.550401
     5  H    0.358811
     6  C    0.469125
     7  O   -0.590167
     8  H    0.402900
     9  C   -0.079161
    10  O   -0.604575
    11  H    0.387919
    12  C    0.512875
    13  O   -0.370302
    14  C   -0.126232
    15  O   -0.347429
    16  C   -0.008078
    17  C   -0.244137
    18  O   -0.563924
    19  H    0.413716
    20  C   -0.057054
    21  O   -0.456865
    22  H    0.356236
    23  C   -0.285684
    24  O   -0.503314
    25  H    0.399138
    26  C    0.361941
    27  O   -0.335124
    28  C    0.263855
    29  O   -0.499522
    30  H    0.350134
    31  H    0.131682
    32  H    0.151510
    33  H    0.115637
    34  H    0.141439
    35  H    0.137925
    36  H    0.152521
    37  H    0.130587
    38  H    0.365852
    39  H    0.124572
    40  H    0.151903
    41  H    0.139832
    42  H    0.151408
    43  H    0.153905
    44  H    0.155433
    45  H    0.127477
 Sum of Mulliken atomic charges =   0.00000

 Dipole moment (field-independent basis, Debye):
    X=             -8.4642    Y=              2.2271    Z=              2.8385  Tot=              9.2011
 Quadrupole moment (field-independent basis, Debye-Ang):
   XX=           -116.9761   YY=           -139.4994   ZZ=           -140.3986
   XY=             -6.0054   XZ=              5.1364   YZ=             -5.2016

  Exact polarizability: 221.886   0.494 191.072   1.227  -1.401 142.590
 Approx polarizability: 261.853  -1.009 247.105   0.761   1.050 234.218

 ******    6 imaginary frequencies (negative Signs) ******

                     1                      2                      3
                     A                      A                      A
 Frequencies --  -373.3384              -237.9080              -211.7249
 Red. masses --     1.0671                 1.9311                 1.3302
 Frc consts  --     0.0876                 0.0644                 0.0351
 IR Inten    --   126.3789                 9.5765               113.1044
 Raman Activ --     2.3598                 0.1511                 0.7868

                     4                      5                      6
                     A                      A                      A
 Frequencies --   -69.3205               -57.0254               -32.1492
 Red. masses --     6.3110                 6.2179                 5.3799
 Frc consts  --     0.0179                 0.0119                 0.0033
 IR Inten    --     0.6374                 0.1303                 1.6566
 Raman Activ --     0.1576                 0.0247                 0.0194

                     7                      8                      9
                     A                      A                      A
 Frequencies --    19.7252                45.3470                71.0274
 Red. masses --     5.2555                 6.4912                 6.1430
 Frc consts  --     0.0012                 0.0079                 0.0183
 IR Inten    --     1.0835                 0.5495                 0.9366
 Raman Activ --     0.0312                 0.0477                 0.0262

                    10                     11                     12
                     A                      A                      A
 Frequencies --    85.6648               100.4943               116.3032
 Red. masses --     6.2305                 4.2617                 4.8778
 Frc consts  --     0.0269                 0.0254                 0.0389
 IR Inten    --     1.1973                 1.2999                 1.6007
 Raman Activ --     0.1253                 0.3390                 0.1300

                    13                     14                     15
                     A                      A                      A
 Frequencies --   127.5649               163.3068               202.5033
 Red. masses --     6.2591                 5.5894                 3.5792
 Frc consts  --     0.0600                 0.0878                 0.0865
 IR Inten    --     1.5371                 0.3609                 1.0017
 Raman Activ --     0.1826                 0.5899                 0.4837

                    16                     17                     18
                     A                      A                      A
 Frequencies --   209.6296               235.1715               261.8735
 Red. masses --     5.5363                 4.9958                 5.0457
 Frc consts  --     0.1433                 0.1628                 0.2039
 IR Inten    --     4.4707                 2.4804                 3.0532
 Raman Activ --     0.1624                 2.5126                 0.6212

                    19                     20                     21
                     A                      A                      A
 Frequencies --   272.2772               277.8695               285.9547
 Red. masses --     5.1329                 4.3213                 4.9714
 Frc consts  --     0.2242                 0.1966                 0.2395
 IR Inten    --     4.3788                 4.7002                 9.3417
 Raman Activ --     0.3826                 0.5609                 0.4182

                    22                     23                     24
                     A                      A                      A
 Frequencies --   295.4433               299.6111               327.1729
 Red. masses --     5.0149                 5.9349                 5.8449
 Frc consts  --     0.2579                 0.3139                 0.3686
 IR Inten    --     2.8363                 3.7371                 2.2387
 Raman Activ --     1.0537                 0.7391                 0.5608

                    25                     26                     27
                     A                      A                      A
 Frequencies --   351.5217               374.3864               391.3398
 Red. masses --     5.0895                 5.8937                 3.8803
 Frc consts  --     0.3705                 0.4867                 0.3501
 IR Inten    --     2.7400                 1.1333                 8.8719
 Raman Activ --     3.5456                 0.7856                 3.3603

                    28                     29                     30
                     A                      A                      A
 Frequencies --   410.3657               420.1050               444.9179
 Red. masses --     6.3146                 6.1146                 5.7668
 Frc consts  --     0.6265                 0.6358                 0.6726
 IR Inten    --     7.2441                 2.8210                 9.1412
 Raman Activ --     4.3265                 2.4673                 1.2998

                    31                     32                     33
                     A                      A                      A
 Frequencies --   486.7992               491.0765               508.3002
 Red. masses --     3.8675                 4.8053                 4.1773
 Frc consts  --     0.5400                 0.6828                 0.6359
 IR Inten    --    20.5456                 8.1207                 1.8205
 Raman Activ --     4.7319                 5.6750                 2.3874

                    34                     35                     36
                     A                      A                      A
 Frequencies --   540.4901               561.1743               573.0199
 Red. masses --     4.0776                 3.1189                 3.6106
 Frc consts  --     0.7018                 0.5787                 0.6985
 IR Inten    --    27.7065                52.2219                24.1974
 Raman Activ --     1.2958                 0.8421                 0.3873

                    37                     38                     39
                     A                      A                      A
 Frequencies --   585.2897               603.6889               611.2858
 Red. masses --     5.3826                 1.5594                 1.8061
 Frc consts  --     1.0864                 0.3348                 0.3976
 IR Inten    --    11.9554                69.5252                47.8771
 Raman Activ --     3.4541                 1.9170                 1.0997

                    40                     41                     42
                     A                      A                      A
 Frequencies --   642.6162               659.0534               672.6916
 Red. masses --     2.8307                 4.4888                 1.1299
 Frc consts  --     0.6887                 1.1487                 0.3013
 IR Inten    --    25.8145                24.2117               138.9607
 Raman Activ --     1.3548                 0.4046                 2.2071

                    43                     44                     45
                     A                      A                      A
 Frequencies --   690.9796               704.5022               721.6473
 Red. masses --     1.0788                 1.2894                 2.7569
 Frc consts  --     0.3035                 0.3771                 0.8459
 IR Inten    --    53.7918                97.9153                37.4826
 Raman Activ --     1.0681                 1.0777                 0.5639

                    46                     47                     48
                     A                      A                      A
 Frequencies --   768.4216               800.5111               856.1887
 Red. masses --     1.0965                 1.1274                 2.3879
 Frc consts  --     0.3815                 0.4256                 1.0313
 IR Inten    --    95.1942               103.0168                 5.8794
 Raman Activ --     3.1464                 1.0330                 6.2400

                    49                     50                     51
                     A                      A                      A
 Frequencies --   863.4677               912.2918               950.6527
 Red. masses --     2.3975                 2.5572                 6.6496
 Frc consts  --     1.0532                 1.2539                 3.5407
 IR Inten    --     0.7982                25.6799               284.9036
 Raman Activ --     3.8627                 1.1858                 3.3962

                    52                     53                     54
                     A                      A                      A
 Frequencies --   976.5915               987.7803              1004.0562
 Red. masses --     5.7205                 4.3308                 4.1197
 Frc consts  --     3.2145                 2.4896                 2.4470
 IR Inten    --   147.0562                31.1929                84.1196
 Raman Activ --     0.5346                 1.9358                 3.2545

                    55                     56                     57
                     A                      A                      A
 Frequencies --  1010.3879              1027.8514              1028.4328
 Red. masses --     3.4241                 3.8219                 3.5921
 Frc consts  --     2.0595                 2.3790                 2.2384
 IR Inten    --     9.7453               269.5449                57.8472
 Raman Activ --     7.1887                 1.1148                 5.0279

                    58                     59                     60
                     A                      A                      A
 Frequencies --  1038.8106              1053.8952              1060.9095
 Red. masses --     5.0337                 5.7630                 3.1951
 Frc consts  --     3.2005                 3.7714                 2.1188
 IR Inten    --   111.6398               258.4702                10.7453
 Raman Activ --     1.6424                 1.9735                11.8877

                    61                     62                     63
                     A                      A                      A
 Frequencies --  1063.6059              1070.5872              1084.9772
 Red. masses --     2.7593                 4.8052                 3.2423
 Frc consts  --     1.8391                 3.2449                 2.2487
 IR Inten    --    13.8352               122.7849                61.2468
 Raman Activ --     2.6230                 2.4759                 6.7085

                    64                     65                     66
                     A                      A                      A
 Frequencies --  1089.8474              1091.2989              1114.5842
 Red. masses --     2.4763                 4.0183                 2.6729
 Frc consts  --     1.7330                 2.8196                 1.9564
 IR Inten    --   129.2434                15.9889                26.5531
 Raman Activ --     1.7160                 3.1129                 6.8182

                    67                     68                     69
                     A                      A                      A
 Frequencies --  1117.8864              1130.1693              1138.3370
 Red. masses --     2.5944                 1.8602                 3.0439
 Frc consts  --     1.9102                 1.3999                 2.3239
 IR Inten    --    59.7937                 1.0953                35.8006
 Raman Activ --     3.5739                 6.7366                 2.3328

                    70                     71                     72
                     A                      A                      A
 Frequencies --  1144.4706              1149.4662              1157.8988
 Red. masses --     2.2719                 2.5044                 2.0035
 Frc consts  --     1.7533                 1.9496                 1.5827
 IR Inten    --    16.0948                93.6235                10.7052
 Raman Activ --     2.4162                 3.5514                 1.6299

                    73                     74                     75
                     A                      A                      A
 Frequencies --  1160.1044              1167.1383              1181.4876
 Red. masses --     2.0852                 1.7189                 2.0027
 Frc consts  --     1.6534                 1.3795                 1.6471
 IR Inten    --    14.5485                 8.9154                10.0386
 Raman Activ --     2.5844                 4.7881                 4.8192

                    76                     77                     78
                     A                      A                      A
 Frequencies --  1210.2042              1215.0501              1215.5900
 Red. masses --     1.3453                 1.3747                 1.3832
 Frc consts  --     1.1609                 1.1958                 1.2042
 IR Inten    --    17.3411                11.5285                 3.6705
 Raman Activ --     3.0991                 4.2427                 2.0974

                    79                     80                     81
                     A                      A                      A
 Frequencies --  1233.0261              1235.9704              1245.4464
 Red. masses --     1.2384                 1.2198                 1.3131
 Frc consts  --     1.1093                 1.0979                 1.2001
 IR Inten    --    18.7296                 8.2235                 8.5475
 Raman Activ --     3.4870                 3.0344                 3.8890

                    82                     83                     84
                     A                      A                      A
 Frequencies --  1254.0723              1266.5042              1271.7237
 Red. masses --     1.3013                 1.4529                 1.2462
 Frc consts  --     1.2058                 1.3731                 1.1875
 IR Inten    --    10.1706                26.5451                 9.2758
 Raman Activ --     1.7230                 3.7569                 2.3417

                    85                     86                     87
                     A                      A                      A
 Frequencies --  1282.7286              1299.5809              1302.2076
 Red. masses --     1.2944                 1.2502                 1.2426
 Frc consts  --     1.2548                 1.2441                 1.2415
 IR Inten    --    27.2505                24.3725                31.2579
 Raman Activ --     2.1031                 3.3510                 1.9891

                    88                     89                     90
                     A                      A                      A
 Frequencies --  1313.6827              1331.5048              1336.0886
 Red. masses --     1.2377                 1.2824                 1.3004
 Frc consts  --     1.2585                 1.3395                 1.3677
 IR Inten    --     5.5956                23.0840                36.5547
 Raman Activ --     4.7268                 4.3396                 3.4247

                    91                     92                     93
                     A                      A                      A
 Frequencies --  1342.2352              1351.0945              1353.2725
 Red. masses --     1.4449                 1.4529                 1.3441
 Frc consts  --     1.5337                 1.5626                 1.4502
 IR Inten    --     4.0244                12.7853                46.6970
 Raman Activ --     1.9929                 2.4692                 6.6674

                    94                     95                     96
                     A                      A                      A
 Frequencies --  1359.7933              1364.0479              1378.1819
 Red. masses --     1.4302                 1.5744                 1.3120
 Frc consts  --     1.5581                 1.7259                 1.4683
 IR Inten    --     6.4503                21.8219                14.2577
 Raman Activ --     3.5586                 2.7668                 1.8003

                    97                     98                     99
                     A                      A                      A
 Frequencies --  1380.2202              1392.0008              1404.2018
 Red. masses --     1.5574                 1.3676                 1.5053
 Frc consts  --     1.7480                 1.5613                 1.7487
 IR Inten    --    30.0344                 2.1883                10.9546
 Raman Activ --     4.2085                 7.0145                 2.4583

                   100                    101                    102
                     A                      A                      A
 Frequencies --  1406.9204              1416.8404              1424.7979
 Red. masses --     1.3083                 1.5331                 1.4732
 Frc consts  --     1.5258                 1.8132                 1.7621
 IR Inten    --     4.8324                 5.8723                61.9725
 Raman Activ --     6.0216                 0.6028                 4.2042

                   103                    104                    105
                     A                      A                      A
 Frequencies --  1450.2807              1457.6757              1471.5150
 Red. masses --     1.2432                 1.1225                 1.0825
 Frc consts  --     1.5407                 1.4052                 1.3811
 IR Inten    --     3.9829                 7.9471                 1.8737
 Raman Activ --     8.8266                 3.1316                 6.0757

                   106                    107                    108
                     A                      A                      A
 Frequencies --  1477.0858              1478.8731              3272.0824
 Red. masses --     1.1321                 1.4059                 1.0575
 Frc consts  --     1.4553                 1.8116                 6.6705
 IR Inten    --    68.5763                31.6042                46.8494
 Raman Activ --     3.5088                 3.4283                93.7966

                   109                    110                    111
                     A                      A                      A
 Frequencies --  3273.4724              3276.6273              3285.0023
 Red. masses --     1.0767                 1.0810                 1.0760
 Frc consts  --     6.7974                 6.8378                 6.8412
 IR Inten    --     6.9010                 4.1813                14.5084
 Raman Activ --    28.1667                60.3604                33.9271

                   112                    113                    114
                     A                      A                      A
 Frequencies --  3288.2953              3292.2300              3294.3745
 Red. masses --     1.0745                 1.0838                 1.0846
 Frc consts  --     6.8452                 6.9214                 6.9350
 IR Inten    --    58.3398                 2.5255                 2.6075
 Raman Activ --   196.8840                58.5739               132.5790

                   115                    116                    117
                     A                      A                      A
 Frequencies --  3301.8343              3305.1768              3309.1611
 Red. masses --     1.0853                 1.0856                 1.0866
 Frc consts  --     6.9715                 6.9872                 7.0105
 IR Inten    --     5.7116                 4.6647                 0.6493
 Raman Activ --    27.6555                 5.5695               113.2385

                   118                    119                    120
                     A                      A                      A
 Frequencies --  3315.5739              3319.0263              3334.1161
 Red. masses --     1.0871                 1.0866                 1.1068
 Frc consts  --     7.0407                 7.0524                 7.2491
 IR Inten    --    36.0986                80.3420                38.3531
 Raman Activ --     5.9568                11.3988                53.8281

                   121                    122                    123
                     A                      A                      A
 Frequencies --  3342.0843              3363.1990              3378.1450
 Red. masses --     1.1037                 1.0729                 1.0689
 Frc consts  --     7.2634                 7.1500                 7.1866
 IR Inten    --    93.4767               184.1724               244.2235
 Raman Activ --    96.3189                82.2004               169.5678

                   124                    125                    126
                     A                      A                      A
 Frequencies --  3382.1124              3396.5736              3407.7545
 Red. masses --     1.0663                 1.0685                 1.0655
 Frc consts  --     7.1864                 7.2626                 7.2900
 IR Inten    --    38.0099                62.1558                41.3228
 Raman Activ --   108.4598               208.9026                70.1783

                   127                    128                    129
                     A                      A                      A
 Frequencies --  3408.0752              3913.3674              3919.3042
 Red. masses --     1.0667                 1.0679                 1.0672
 Frc consts  --     7.3000                 9.6358                 9.6582
 IR Inten    --    73.9409                68.7327                61.3467
 Raman Activ --   109.6203                95.6103               138.5663

 - Thermochemistry -
 -------------------
 Temperature   298.150 Kelvin.  Pressure   1.00000 Atm.
 Atom     1 has atomic number  8 and mass  15.99491

 Molecular mass:   342.11621 amu.
 Principal axes and moments of inertia in atomic units:
                           1         2         3
     Eigenvalues --  4440.17804********************
           X            0.99998  -0.00542   0.00222
           Y            0.00543   0.99997  -0.00492
           Z           -0.00219   0.00493   0.99999
 This molecule is an asymmetric top.
 Rotational symmetry number  1.
 Warning -- assumption of classical behavior for rotation
           may cause significant error
 Rotational temperatures (Kelvin)      0.01951     0.00765     0.00577
 Rotational constants (GHZ):           0.40646     0.15938     0.12017
    6 imaginary frequencies ignored.
 Zero-point vibrational energy     977015.9 (Joules/Mol)
                                  233.51241 (Kcal/Mol)
 Warning -- explicit consideration of  33 degrees of freedom as
           vibrations may cause significant error
 Vibrational temperatures:     28.38    65.24   102.19   123.25   144.59
          (Kelvin)            167.33   183.54   234.96   291.36   301.61
                              338.36   376.78   391.75   399.79   411.42
                              425.08   431.07   470.73   505.76   538.66
                              563.05   590.42   604.44   640.14   700.39
                              706.55   731.33   777.64   807.40   824.45
                              842.10   868.57   879.50   924.58   948.23
                              967.85   994.16  1013.62  1038.29  1105.59
                             1151.76  1231.86  1242.34  1312.58  1367.78
                             1405.10  1421.19  1444.61  1453.72  1478.85
                             1479.68  1494.61  1516.32  1526.41  1530.29
                             1540.33  1561.04  1568.05  1570.13  1603.64
                             1608.39  1626.06  1637.81  1646.64  1653.82
                             1665.96  1669.13  1679.25  1699.90  1741.21
                             1748.18  1748.96  1774.05  1778.28  1791.92
                             1804.33  1822.21  1829.72  1845.56  1869.80
                             1873.58  1890.09  1915.74  1922.33  1931.17
                             1943.92  1947.05  1956.44  1962.56  1982.89
                             1985.83  2002.78  2020.33  2024.24  2038.51
                             2049.96  2086.63  2097.27  2117.18  2125.19
                             2127.77  4707.79  4709.79  4714.33  4726.38
                             4731.12  4736.78  4739.86  4750.60  4755.41
                             4761.14  4770.37  4775.33  4797.04  4808.51
                             4838.89  4860.39  4866.10  4886.91  4902.99
                             4903.45  5630.46  5639.00

 Zero-point correction=                           0.372126 (Hartree/Particle)
 Thermal correction to Energy=                    0.391324
 Thermal correction to Enthalpy=                  0.392268
 Thermal correction to Gibbs Free Energy=         0.324505
 Sum of electronic and zero-point Energies=          -1297.572173
 Sum of electronic and thermal Energies=             -1297.552975
 Sum of electronic and thermal Enthalpies=           -1297.552031
 Sum of electronic and thermal Free Energies=        -1297.619794

                     E (Thermal)             CV                S
                      KCal/Mol        Cal/Mol-Kelvin    Cal/Mol-Kelvin
 Total                  245.559             77.902            142.620
 Electronic               0.000              0.000              0.000
 Translational            0.889              2.981             43.384
 Rotational               0.889              2.981             34.978
 Vibrational            243.782             71.940             64.257
 Vibration     1          0.593              1.986              6.662
 Vibration     2          0.595              1.979              5.011
 Vibration     3          0.598              1.968              4.125
 Vibration     4          0.601              1.959              3.757
 Vibration     5          0.604              1.949              3.445
 Vibration     6          0.608              1.936              3.161
 Vibration     7          0.611              1.926              2.982
 Vibration     8          0.623              1.887              2.511
 Vibration     9          0.639              1.836              2.110
 Vibration    10          0.642              1.826              2.047
 Vibration    11          0.655              1.787              1.839
 Vibration    12          0.669              1.743              1.649
 Vibration    13          0.675              1.724              1.582
 Vibration    14          0.679              1.714              1.547
 Vibration    15          0.684              1.700              1.498
 Vibration    16          0.690              1.682              1.443
 Vibration    17          0.692              1.674              1.419
 Vibration    18          0.711              1.621              1.274
 Vibration    19          0.728              1.572              1.159
 Vibration    20          0.746              1.525              1.062
 Vibration    21          0.759              1.489              0.995
 Vibration    22          0.775              1.448              0.925
 Vibration    23          0.783              1.427              0.892
 Vibration    24          0.804              1.372              0.811
 Vibration    25          0.843              1.279              0.692
 Vibration    26          0.847              1.270              0.681
 Vibration    27          0.863              1.232              0.638
 Vibration    28          0.896              1.161              0.564
 Vibration    29          0.917              1.115              0.521
 Vibration    30          0.929              1.090              0.498
 Vibration    31          0.942              1.063              0.476
 Vibration    32          0.962              1.024              0.443
 Vibration    33          0.970              1.008              0.431

 Normal termination of Gaussian 09 at Tue Mar  1 16:57:34 2016.
