 Gaussian 09, Revision B.01,
 Gaussian 09:  EM64L-G09RevB.01 12-Aug-2010

 ------------------------------------------------
 # freq=raman b3lyp/6-31+g(d,p) geom=connectivity
 ------------------------------------------------

 -----------------------------
 450K 7000ps Cellobiose Unit 1
 -----------------------------
 Symbolic Z-matrix:
 Charge =  0 Multiplicity = 1

                         Standard orientation:
 ---------------------------------------------------------------------
 Center     Atomic      Atomic             Coordinates (Angstroms)
 Number     Number       Type             X           Y           Z
 ---------------------------------------------------------------------
      1          8           0       -4.938459    0.664165   -0.827457
      2          6           0       -3.904430    0.290677    0.094611
      3          6           0       -3.457013   -1.126073   -0.224562
      4          8           0       -4.229757   -2.165487    0.392445
      5          1           0       -5.202278   -2.181257    0.158533
      6          6           0       -2.115963   -1.606759    0.307510
      7          8           0       -1.660222   -2.783606   -0.376368
      8          1           0       -2.509316   -3.308298   -0.436452
      9          6           0       -3.121542    2.742773    0.190772
     10          8           0       -2.021561    3.657244    0.077942
     11          1           0       -2.401064    4.559423    0.285427
     12          6           0       -2.791943    1.298332   -0.148149
     13          8           0       -1.718208    0.682905    0.577812
     14          6           0       -1.108826   -0.500356    0.039723
     15          8           0        0.173877   -0.644433    0.666655
     16          6           0        1.367537   -0.229586   -0.012681
     17          6           0        2.012975    1.121993    0.245360
     18          8           0        0.932908    1.961320   -0.186484
     19          1           0        0.179147    1.418727    0.183497
     20          6           0        3.405047    1.388533   -0.304182
     21          8           0        3.853840    2.750646   -0.342595
     22          1           0        3.376662    3.342003   -0.992244
     23          6           0        1.939977   -2.592397    0.368368
     24          8           0        1.920059   -3.317554   -0.869016
     25          1           0        1.708263   -4.260106   -0.609036
     26          6           0        2.476737   -1.171204    0.428587
     27          8           0        3.796779   -0.945961   -0.086968
     28          6           0        4.319186    0.334156    0.299203
     29          8           0        5.657738    0.246225   -0.209046
     30          1           0       -5.790812    0.391346   -0.480090
     31          1           0        6.202037   -0.249528    0.407045
     32          1           0       -3.486284    2.777651    1.196081
     33          1           0       -3.901470    3.072304   -0.463462
     34          1           0       -2.542628    1.263393   -1.188111
     35          1           0       -4.258291    0.356434    1.102261
     36          1           0       -3.477309   -1.262285   -1.285663
     37          1           0       -2.183549   -1.795152    1.358624
     38          1           0       -0.978366   -0.385301   -1.016043
     39          1           0        1.217744   -0.341981   -1.066165
     40          1           0        2.084982    1.232394    1.307211
     41          1           0        3.337377    1.117069   -1.336959
     42          1           0        4.332520    0.420295    1.365647
     43          1           0        2.580982   -0.976476    1.475542
     44          1           0        0.933277   -2.562279    0.729684
     45          1           0        2.511985   -3.172610    1.061952
 ---------------------------------------------------------------------

 SCF Done:  E(RB3LYP) =  -1297.88218528     A.U. after   14 cycles

 The electronic state is 1-A.
 Alpha  occ. eigenvalues --  -19.20149 -19.19604 -19.19431 -19.18287 -19.17616
 Alpha  occ. eigenvalues --  -19.17080 -19.16924 -19.16338 -19.15989 -19.14638
 Alpha  occ. eigenvalues --  -19.14058 -10.31559 -10.30039 -10.27350 -10.27107
 Alpha  occ. eigenvalues --  -10.26913 -10.25941 -10.25286 -10.25003 -10.24795
 Alpha  occ. eigenvalues --  -10.23961 -10.23596 -10.21616  -1.09899  -1.07609
 Alpha  occ. eigenvalues --   -1.07281  -1.06069  -1.04477  -1.03128  -1.02781
 Alpha  occ. eigenvalues --   -1.01987  -1.00887  -1.00505  -0.99990  -0.82292
 Alpha  occ. eigenvalues --   -0.81047  -0.79082  -0.78001  -0.72290  -0.69572
 Alpha  occ. eigenvalues --   -0.67917  -0.64678  -0.63622  -0.62189  -0.60447
 Alpha  occ. eigenvalues --   -0.59971  -0.57471  -0.56863  -0.54797  -0.54052
 Alpha  occ. eigenvalues --   -0.53230  -0.52979  -0.52810  -0.51638  -0.50476
 Alpha  occ. eigenvalues --   -0.50341  -0.49764  -0.48999  -0.47372  -0.47009
 Alpha  occ. eigenvalues --   -0.45847  -0.45205  -0.44532  -0.43698  -0.43079
 Alpha  occ. eigenvalues --   -0.42703  -0.42382  -0.40643  -0.40131  -0.39719
 Alpha  occ. eigenvalues --   -0.38447  -0.37333  -0.36729  -0.36010  -0.35309
 Alpha  occ. eigenvalues --   -0.35014  -0.34506  -0.33917  -0.33332  -0.32923
 Alpha  occ. eigenvalues --   -0.32668  -0.31834  -0.30923  -0.29935  -0.29918
 Alpha  occ. eigenvalues --   -0.28969  -0.28589  -0.28018  -0.27488  -0.25932
 Alpha  occ. eigenvalues --   -0.24626
 Alpha virt. eigenvalues --   -0.04205  -0.01567  -0.00565  -0.00252   0.00495
 Alpha virt. eigenvalues --    0.00976   0.01026   0.02347   0.02789   0.03307
 Alpha virt. eigenvalues --    0.03854   0.04599   0.04916   0.05007   0.05602

 Mulliken atomic charges:
              1
     1  O   -0.538671
     2  C   -0.043784
     3  C    0.060664
     4  O   -0.567203
     5  H    0.353143
     6  C   -0.123052
     7  O   -0.487795
     8  H    0.361963
     9  C   -0.215863
    10  O   -0.506631
    11  H    0.356120
    12  C    0.237134
    13  O   -0.370726
    14  C    0.444197
    15  O   -0.328680
    16  C   -0.026224
    17  C    0.034005
    18  O   -0.487523
    19  H    0.377810
    20  C   -0.155954
    21  O   -0.492478
    22  H    0.368811
    23  C   -0.305250
    24  O   -0.499977
    25  H    0.340172
    26  C   -0.076099
    27  O   -0.332633
    28  C    0.447529
    29  O   -0.492202
    30  H    0.351599
    31  H    0.349378
    32  H    0.125717
    33  H    0.156821
    34  H    0.139652
    35  H    0.149250
    36  H    0.170310
    37  H    0.160605
    38  H    0.129290
    39  H    0.160911
    40  H    0.130270
    41  H    0.143274
    42  H    0.114266
    43  H    0.116537
    44  H    0.162047
    45  H    0.109272
 Sum of Mulliken atomic charges =   0.00000

 Dipole moment (field-independent basis, Debye):
    X=             -8.9970    Y=             -1.0559    Z=              2.6920  Tot=              9.4502
 Quadrupole moment (field-independent basis, Debye-Ang):
   XX=           -111.9292   YY=           -130.5114   ZZ=           -140.2810
   XY=             -7.0447   XZ=              9.8492   YZ=             -4.4665

  Exact polarizability: 224.549   4.923 196.584   2.046  -2.020 142.454
 Approx polarizability: 264.236   4.558 251.570   1.252  -3.444 231.293

 ******    8 imaginary frequencies (negative Signs) ******

                     1                      2                      3
                     A                      A                      A
 Frequencies --  -346.5760              -250.9186              -217.8310
 Red. masses --     1.0771                 1.8233                 2.4106
 Frc consts  --     0.0762                 0.0676                 0.0674
 IR Inten    --   125.5855                 3.9363                 5.0525
 Raman Activ --     1.8331                 0.1347                 0.1172

                     4                      5                      6
                     A                      A                      A
 Frequencies --  -170.9617              -109.0053               -86.7326
 Red. masses --     1.1389                 6.4644                 6.2632
 Frc consts  --     0.0196                 0.0453                 0.0278
 IR Inten    --   108.6561                 0.7364                 2.3934
 Raman Activ --     1.1826                 0.0424                 0.0601

                     7                      8                      9
                     A                      A                      A
 Frequencies --   -65.1628               -56.7518                38.5427
 Red. masses --     5.6008                 6.0625                 7.2638
 Frc consts  --     0.0140                 0.0115                 0.0064
 IR Inten    --     3.4214                 0.7830                 0.1827
 Raman Activ --     0.0666                 0.0462                 0.0748

                    10                     11                     12
                     A                      A                      A
 Frequencies --    58.8217                81.7769               104.9405
 Red. masses --     6.0711                 6.6911                 5.7305
 Frc consts  --     0.0124                 0.0264                 0.0372
 IR Inten    --     0.3064                 2.9778                 1.0162
 Raman Activ --     0.0602                 0.0685                 0.1762

                    13                     14                     15
                     A                      A                      A
 Frequencies --   120.1744               150.0906               174.4203
 Red. masses --     5.9775                 6.7742                 5.7100
 Frc consts  --     0.0509                 0.0899                 0.1023
 IR Inten    --     2.1844                 1.2830                 3.0568
 Raman Activ --     0.4879                 1.2876                 0.3683

                    16                     17                     18
                     A                      A                      A
 Frequencies --   212.3158               216.6635               238.6841
 Red. masses --     5.2646                 6.9452                 5.2418
 Frc consts  --     0.1398                 0.1921                 0.1759
 IR Inten    --     0.5984                 0.7197                24.3507
 Raman Activ --     1.3426                 1.2758                 0.2225

                    19                     20                     21
                     A                      A                      A
 Frequencies --   251.0848               260.2250               264.1071
 Red. masses --     5.5547                 4.7706                 4.7674
 Frc consts  --     0.2063                 0.1903                 0.1959
 IR Inten    --     4.3102                 5.1913                 0.8509
 Raman Activ --     0.1454                 0.3520                 0.3327

                    22                     23                     24
                     A                      A                      A
 Frequencies --   284.7929               299.5325               323.3095
 Red. masses --     5.0965                 5.7285                 6.1696
 Frc consts  --     0.2435                 0.3028                 0.3800
 IR Inten    --     3.6134                 3.4364                 1.4224
 Raman Activ --     0.4876                 2.8722                 0.7429

                    25                     26                     27
                     A                      A                      A
 Frequencies --   334.9825               362.7460               383.4323
 Red. masses --     5.6663                 5.1763                 4.8187
 Frc consts  --     0.3746                 0.4013                 0.4174
 IR Inten    --     8.4042                 1.3667                 2.1941
 Raman Activ --     7.7030                 2.2655                 2.1376

                    28                     29                     30
                     A                      A                      A
 Frequencies --   407.7499               426.5721               441.1508
 Red. masses --     5.3749                 4.6823                 5.5791
 Frc consts  --     0.5265                 0.5020                 0.6397
 IR Inten    --    18.1872                 2.0029                 0.7794
 Raman Activ --     1.9960                 1.4875                 3.2133

                    31                     32                     33
                     A                      A                      A
 Frequencies --   476.9153               483.0381               519.4616
 Red. masses --     4.4205                 5.5191                 4.8961
 Frc consts  --     0.5924                 0.7587                 0.7784
 IR Inten    --     9.9788                 0.7449                16.7682
 Raman Activ --     0.3524                 4.2379                 5.1256

                    34                     35                     36
                     A                      A                      A
 Frequencies --   537.2088               554.5700               564.3223
 Red. masses --     3.3404                 3.3134                 3.9486
 Frc consts  --     0.5680                 0.6004                 0.7409
 IR Inten    --    89.4532                14.7338                39.3339
 Raman Activ --     0.7054                 1.7299                 0.7396

                    37                     38                     39
                     A                      A                      A
 Frequencies --   582.4595               597.0814               615.5748
 Red. masses --     5.6266                 3.5272                 1.1200
 Frc consts  --     1.1247                 0.7409                 0.2501
 IR Inten    --     5.7934                 8.3856                84.2642
 Raman Activ --     3.0243                 0.2469                 2.0258

                    40                     41                     42
                     A                      A                      A
 Frequencies --   626.0794               647.0309               679.6030
 Red. masses --     3.7094                 3.6228                 1.1058
 Frc consts  --     0.8567                 0.8936                 0.3009
 IR Inten    --    25.0385                 6.5226               138.0494
 Raman Activ --     0.1988                 0.4148                 1.5272

                    43                     44                     45
                     A                      A                      A
 Frequencies --   688.6297               701.8842               728.8113
 Red. masses --     1.0965                 3.9081                 1.0705
 Frc consts  --     0.3064                 1.1343                 0.3350
 IR Inten    --   113.7934                 9.0121                84.4171
 Raman Activ --     2.5112                 1.0093                 2.0285

                    46                     47                     48
                     A                      A                      A
 Frequencies --   769.4987               834.0821               853.2418
 Red. masses --     1.0902                 2.4969                 1.1367
 Frc consts  --     0.3804                 1.0234                 0.4876
 IR Inten    --   108.7090                 2.5936                66.6833
 Raman Activ --     1.8064                 3.9010                 0.8068

                    49                     50                     51
                     A                      A                      A
 Frequencies --   874.9177               893.0360               938.7935
 Red. masses --     2.8798                 2.3421                 5.1554
 Frc consts  --     1.2988                 1.1005                 2.6770
 IR Inten    --    23.4981                 7.9986               104.9840
 Raman Activ --     3.6949                 1.7190                 1.8565

                    52                     53                     54
                     A                      A                      A
 Frequencies --   953.7169               978.4435               987.9652
 Red. masses --     5.0757                 6.7086                 4.9732
 Frc consts  --     2.7201                 3.7840                 2.8600
 IR Inten    --   244.9946               114.1776                43.4902
 Raman Activ --     3.2408                 1.1253                 0.9831

                    55                     56                     57
                     A                      A                      A
 Frequencies --  1011.5506              1018.7889              1023.3146
 Red. masses --     3.6294                 5.5365                 4.1245
 Frc consts  --     2.1881                 3.3858                 2.5447
 IR Inten    --    10.8779               204.9077               344.3461
 Raman Activ --     3.4749                 2.5090                 2.3211

                    58                     59                     60
                     A                      A                      A
 Frequencies --  1033.2990              1041.0567              1072.7277
 Red. masses --     2.4779                 3.3599                 3.9039
 Frc consts  --     1.5588                 2.1455                 2.6468
 IR Inten    --    25.8327               235.2715                 2.0365
 Raman Activ --     3.5249                 1.2591                17.7272

                    61                     62                     63
                     A                      A                      A
 Frequencies --  1078.1249              1084.3081              1089.0927
 Red. masses --     6.1046                 4.5316                 3.1472
 Frc consts  --     4.1807                 3.1391                 2.1994
 IR Inten    --   188.2443                43.2889                26.5774
 Raman Activ --     1.1819                 9.2724                 1.5550

                    64                     65                     66
                     A                      A                      A
 Frequencies --  1094.1454              1100.9354              1107.7112
 Red. masses --     3.7796                 3.9784                 3.0515
 Frc consts  --     2.6659                 2.8411                 2.2060
 IR Inten    --    29.1425                35.6879                41.9401
 Raman Activ --     2.2228                 4.9622                10.3763

                    67                     68                     69
                     A                      A                      A
 Frequencies --  1113.9142              1131.8110              1136.8929
 Red. masses --     2.5430                 2.1031                 2.4190
 Frc consts  --     1.8591                 1.5873                 1.8422
 IR Inten    --   131.3428                44.0063                42.0965
 Raman Activ --     4.6674                 4.2354                 4.6330

                    70                     71                     72
                     A                      A                      A
 Frequencies --  1150.0166              1160.8890              1169.4997
 Red. masses --     2.2017                 2.5715                 2.8344
 Frc consts  --     1.7156                 2.0418                 2.2841
 IR Inten    --     6.1003                 5.5740                34.4491
 Raman Activ --     1.4297                 4.2946                 3.0436

                    73                     74                     75
                     A                      A                      A
 Frequencies --  1172.3363              1186.3447              1188.4758
 Red. masses --     1.5765                 1.6011                 1.6591
 Frc consts  --     1.2766                 1.3277                 1.3807
 IR Inten    --    13.6459                23.6058                13.0056
 Raman Activ --     1.7050                 1.0941                 1.8923

                    76                     77                     78
                     A                      A                      A
 Frequencies --  1201.7209              1210.3361              1219.8474
 Red. masses --     1.6823                 2.0941                 1.2366
 Frc consts  --     1.4314                 1.8074                 1.0841
 IR Inten    --     7.4096                56.2690                31.9943
 Raman Activ --     4.5497                 1.3138                 3.1415

                    79                     80                     81
                     A                      A                      A
 Frequencies --  1236.9710              1251.9838              1255.3818
 Red. masses --     1.2088                 1.2169                 1.3049
 Frc consts  --     1.0898                 1.1238                 1.2117
 IR Inten    --    11.4123                 3.4333                 2.0833
 Raman Activ --     1.4381                 3.9302                 2.2642

                    82                     83                     84
                     A                      A                      A
 Frequencies --  1270.1936              1278.3296              1290.9259
 Red. masses --     1.3675                 1.2520                 1.3813
 Frc consts  --     1.2999                 1.2054                 1.3562
 IR Inten    --     7.1116                12.5815                17.2496
 Raman Activ --     3.7069                 6.6521                 0.4217

                    85                     86                     87
                     A                      A                      A
 Frequencies --  1300.2349              1301.7660              1311.9622
 Red. masses --     1.2787                 1.2139                 1.2742
 Frc consts  --     1.2736                 1.2119                 1.2922
 IR Inten    --     0.2696                24.2238                28.6479
 Raman Activ --     2.3400                 8.7630                 3.5870

                    88                     89                     90
                     A                      A                      A
 Frequencies --  1318.0447              1321.5810              1334.7658
 Red. masses --     1.1234                 1.1915                 1.2186
 Frc consts  --     1.1498                 1.2262                 1.2791
 IR Inten    --     7.0839                56.7081                24.4905
 Raman Activ --     5.8933                 1.4068                 2.8379

                    91                     92                     93
                     A                      A                      A
 Frequencies --  1343.9131              1355.9504              1366.5187
 Red. masses --     1.2457                 1.5647                 1.3179
 Frc consts  --     1.3256                 1.6950                 1.4500
 IR Inten    --    19.8476                38.2622                 6.1800
 Raman Activ --     3.4871                 4.7375                12.0771

                    94                     95                     96
                     A                      A                      A
 Frequencies --  1369.3275              1375.0961              1380.6445
 Red. masses --     1.3121                 1.2542                 1.4136
 Frc consts  --     1.4496                 1.3973                 1.5876
 IR Inten    --     3.5047                 8.0694                 6.2215
 Raman Activ --     3.3080                 2.0702                 2.8521

                    97                     98                     99
                     A                      A                      A
 Frequencies --  1388.1631              1393.4258              1396.6946
 Red. masses --     1.2478                 1.7609                 1.3097
 Frc consts  --     1.4167                 2.0144                 1.5053
 IR Inten    --    29.5599                32.7288                 8.4521
 Raman Activ --     7.6855                 5.8191                 1.5390

                   100                    101                    102
                     A                      A                      A
 Frequencies --  1400.3921              1435.3473              1462.6591
 Red. masses --     1.3484                 1.4709                 1.4175
 Frc consts  --     1.5580                 1.7854                 1.7867
 IR Inten    --    35.0469                 6.4244                 7.8287
 Raman Activ --     5.8012                 7.1525                 1.2846

                   103                    104                    105
                     A                      A                      A
 Frequencies --  1471.0798              1481.4076              1483.0966
 Red. masses --     1.0756                 1.4636                 1.3177
 Frc consts  --     1.3714                 1.8924                 1.7076
 IR Inten    --     1.9453                56.6129                 8.9405
 Raman Activ --     6.4676                 2.3280                 3.7290

                   106                    107                    108
                     A                      A                      A
 Frequencies --  1498.9057              1548.3843              3256.5863
 Red. masses --     1.1246                 1.2166                 1.0767
 Frc consts  --     1.4886                 1.7185                 6.7277
 IR Inten    --    22.9926                91.4611                25.2003
 Raman Activ --     3.5223                 2.6270                36.5795

                   109                    110                    111
                     A                      A                      A
 Frequencies --  3265.8012              3269.5113              3276.3672
 Red. masses --     1.0759                 1.0584                 1.0752
 Frc consts  --     6.7607                 6.6660                 6.8000
 IR Inten    --     3.2809                40.0455                70.3981
 Raman Activ --    45.7433               106.4827               233.9971

                   112                    113                    114
                     A                      A                      A
 Frequencies --  3278.4980              3290.9799              3295.5444
 Red. masses --     1.0828                 1.0833                 1.0861
 Frc consts  --     6.8572                 6.9129                 6.9497
 IR Inten    --     5.1783                 4.6872                66.8778
 Raman Activ --    24.0906                50.0727                53.0113

                   115                    116                    117
                     A                      A                      A
 Frequencies --  3299.8843              3303.1891              3308.0238
 Red. masses --     1.0855                 1.0850                 1.0856
 Frc consts  --     6.9645                 6.9747                 6.9992
 IR Inten    --     0.7830                 0.8176                52.7847
 Raman Activ --    19.1958               138.7518                16.1932

                   118                    119                    120
                     A                      A                      A
 Frequencies --  3312.1338              3320.6309              3326.5657
 Red. masses --     1.0870                 1.0870                 1.0983
 Frc consts  --     7.0256                 7.0621                 7.1607
 IR Inten    --     4.4925                33.1388                 6.0379
 Raman Activ --     4.7658                20.4562                55.2887

                   121                    122                    123
                     A                      A                      A
 Frequencies --  3329.1553              3352.0802              3376.1834
 Red. masses --     1.1049                 1.0664                 1.0668
 Frc consts  --     7.2148                 7.0601                 7.1646
 IR Inten    --    41.9957               315.0307                13.2626
 Raman Activ --    56.1854               129.7979               228.1858

                   124                    125                    126
                     A                      A                      A
 Frequencies --  3384.1554              3384.2853              3389.5354
 Red. masses --     1.0666                 1.0667                 1.0646
 Frc consts  --     7.1972                 7.1985                 7.2063
 IR Inten    --    44.0016                29.0244                47.1804
 Raman Activ --    82.6937               199.0037                94.3876

                   127                    128                    129
                     A                      A                      A
 Frequencies --  3400.5380              3908.6634              3919.1872
 Red. masses --     1.0682                 1.0672                 1.0673
 Frc consts  --     7.2776                 9.6062                 9.6585
 IR Inten    --    68.5353                32.2140                69.2567
 Raman Activ --   110.1857               136.8307               124.0454

 - Thermochemistry -
 -------------------
 Temperature   298.150 Kelvin.  Pressure   1.00000 Atm.
 Atom     1 has atomic number  8 and mass  15.99491

 Molecular mass:   342.11621 amu.
 Principal axes and moments of inertia in atomic units:
                           1         2         3
     Eigenvalues --  4619.11311********************
           X            0.99997  -0.00655   0.00278
           Y            0.00656   0.99997  -0.00316
           Z           -0.00276   0.00317   0.99999
 This molecule is an asymmetric top.
 Rotational symmetry number  1.
 Warning -- assumption of classical behavior for rotation
           may cause significant error
 Rotational temperatures (Kelvin)      0.01875     0.00721     0.00538
 Rotational constants (GHZ):           0.39071     0.15017     0.11204
    8 imaginary frequencies ignored.
 Zero-point vibrational energy     976094.6 (Joules/Mol)
                                  233.29220 (Kcal/Mol)
 Warning -- explicit consideration of  31 degrees of freedom as
           vibrations may cause significant error
 Vibrational temperatures:     55.45    84.63   117.66   150.99   172.90
          (Kelvin)            215.95   250.95   305.47   311.73   343.41
                              361.25   374.41   379.99   409.75   430.96
                              465.17   481.96   521.91   551.67   586.66
                              613.74   634.72   686.17   694.98   747.39
                              772.92   797.90   811.93   838.03   859.07
                              885.67   900.79   930.93   977.80   990.78
                             1009.85  1048.60  1107.14  1200.06  1227.62
                             1258.81  1284.88  1350.71  1372.18  1407.76
                             1421.46  1455.39  1465.81  1472.32  1486.69
                             1497.85  1543.41  1551.18  1560.08  1566.96
                             1574.23  1584.00  1593.75  1602.67  1628.42
                             1635.73  1654.62  1670.26  1682.65  1686.73
                             1706.88  1709.95  1729.01  1741.40  1755.09
                             1779.72  1801.32  1806.21  1827.52  1839.23
                             1857.35  1870.75  1872.95  1887.62  1896.37
                             1901.46  1920.43  1933.59  1950.91  1966.11
                             1970.15  1978.45  1986.44  1997.25  2004.83
                             2009.53  2014.85  2065.14  2104.44  2116.55
                             2131.41  2133.84  2156.59  2227.78  4685.50
                             4698.75  4704.09  4713.96  4717.02  4734.98
                             4741.55  4747.79  4752.55  4759.50  4765.42
                             4777.64  4786.18  4789.91  4822.89  4857.57
                             4869.04  4869.23  4876.78  4892.61  5623.69
                             5638.83

 Zero-point correction=                           0.371775 (Hartree/Particle)
 Thermal correction to Energy=                    0.389699
 Thermal correction to Enthalpy=                  0.390643
 Thermal correction to Gibbs Free Energy=         0.326408
 Sum of electronic and zero-point Energies=          -1297.510410
 Sum of electronic and thermal Energies=             -1297.492486
 Sum of electronic and thermal Enthalpies=           -1297.491542
 Sum of electronic and thermal Free Energies=        -1297.555777

                     E (Thermal)             CV                S
                      KCal/Mol        Cal/Mol-Kelvin    Cal/Mol-Kelvin
 Total                  244.540             74.274            135.194
 Electronic               0.000              0.000              0.000
 Translational            0.889              2.981             43.384
 Rotational               0.889              2.981             35.146
 Vibrational            242.762             68.312             56.664
 Vibration     1          0.594              1.981              5.333
 Vibration     2          0.596              1.974              4.496
 Vibration     3          0.600              1.962              3.848
 Vibration     4          0.605              1.945              3.360
 Vibration     5          0.609              1.932              3.098
 Vibration     6          0.618              1.903              2.671
 Vibration     7          0.627              1.874              2.387
 Vibration     8          0.643              1.822              2.024
 Vibration     9          0.646              1.816              1.987
 Vibration    10          0.657              1.781              1.813
 Vibration    11          0.663              1.761              1.723
 Vibration    12          0.668              1.745              1.660
 Vibration    13          0.671              1.739              1.634
 Vibration    14          0.683              1.702              1.505
 Vibration    15          0.692              1.675              1.420
 Vibration    16          0.708              1.629              1.293
 Vibration    17          0.716              1.606              1.236
 Vibration    18          0.737              1.549              1.110
 Vibration    19          0.753              1.506              1.026
 Vibration    20          0.772              1.453              0.935
 Vibration    21          0.788              1.412              0.870
 Vibration    22          0.801              1.380              0.823
 Vibration    23          0.833              1.301              0.718
 Vibration    24          0.839              1.288              0.702
 Vibration    25          0.874              1.207              0.611
 Vibration    26          0.892              1.168              0.571
 Vibration    27          0.910              1.130              0.535
 Vibration    28          0.920              1.108              0.515
 Vibration    29          0.939              1.069              0.481
 Vibration    30          0.955              1.038              0.455
 Vibration    31          0.975              0.999              0.424

 Normal termination of Gaussian 09 at Thu Oct 22 14:08:49 2015.
