 Gaussian 09, Revision B.01,
 Gaussian 09:  EM64L-G09RevB.01 12-Aug-2010

 -------------------------------------------------
 # freq=raman b3lyp/6-31+g(2d,p) geom=connectivity
 -------------------------------------------------

 -------------------
 493 10000/10000.com
 -------------------
 Symbolic Z-matrix:
 Charge =  0 Multiplicity = 1

                         Standard orientation:
 ---------------------------------------------------------------------
 Center     Atomic      Atomic             Coordinates (Angstroms)
 Number     Number       Type             X           Y           Z
 ---------------------------------------------------------------------
      1          8           0        5.027762   -0.413881   -0.519083
      2          6           0        3.828256   -0.086537    0.196450
      3          6           0        3.186626    1.163764   -0.382640
      4          8           0        4.224054    2.151728   -0.307185
      5          1           0        5.028621    1.656041   -0.634783
      6          6           0        1.882862    1.624151    0.247718
      7          8           0        1.396223    2.862851   -0.289499
      8          1           0        0.496321    3.075770    0.092774
      9          6           0        3.130300   -2.540020    0.382444
     10          8           0        4.070710   -3.159459   -0.507099
     11          1           0        3.855166   -4.135521   -0.487460
     12          6           0        2.738078   -1.124638   -0.010403
     13          8           0        1.534493   -0.756167    0.678654
     14          6           0        0.935951    0.438841    0.155360
     15          8           0       -0.307925    0.519288    0.866056
     16          6           0       -1.479364    0.182371    0.109408
     17          6           0       -2.100250   -1.166326    0.433379
     18          8           0       -1.040663   -2.115667    0.246452
     19          1           0       -0.193942   -1.754771    0.636640
     20          6           0       -3.359753   -1.463327   -0.364106
     21          8           0       -3.881489   -2.794507   -0.246670
     22          1           0       -4.763003   -2.812453   -0.719411
     23          6           0       -2.368058    2.565810   -0.267257
     24          8           0       -1.194229    3.256097    0.185117
     25          1           0       -1.436778    4.220895    0.292899
     26          6           0       -2.610079    1.178772    0.305006
     27          8           0       -3.902772    0.859366   -0.229028
     28          6           0       -4.380789   -0.447233    0.121214
     29          8           0       -5.595815   -0.553035   -0.634912
     30          1           0       -6.322709   -0.764518   -0.044572
     31          1           0       -4.559815   -0.533140    1.172627
     32          1           0       -3.157091   -1.272242   -1.397215
     33          1           0       -2.363247   -1.167040    1.470554
     34          1           0       -1.212309    0.183061   -0.926730
     35          1           0       -2.731815    1.294710    1.361717
     36          1           0       -3.217776    3.172002   -0.031863
     37          1           0       -2.308017    2.476907   -1.331865
     38          1           0        2.245576   -3.141056    0.412763
     39          1           0        3.557679   -2.513701    1.363033
     40          1           0        2.512476   -1.139120   -1.056249
     41          1           0        5.689159   -0.738244    0.096499
     42          1           0        4.032217    0.043273    1.238778
     43          1           0        2.991881    0.976333   -1.417939
     44          1           0        2.076469    1.791138    1.286723
     45          1           0        0.715469    0.274998   -0.878779
 ---------------------------------------------------------------------

 SCF Done:  E(RB3LYP) =  -1297.98785575     A.U. after   13 cycles

 The electronic state is 1-A.
 Alpha  occ. eigenvalues --  -19.18760 -19.18753 -19.18545 -19.18448 -19.18155
 Alpha  occ. eigenvalues --  -19.17688 -19.16403 -19.16385 -19.14077 -19.13853
 Alpha  occ. eigenvalues --  -19.13629 -10.30937 -10.30575 -10.25955 -10.25761
 Alpha  occ. eigenvalues --  -10.25276 -10.25094 -10.25087 -10.24902 -10.24818
 Alpha  occ. eigenvalues --  -10.24576 -10.24032 -10.23936  -1.10139  -1.09494
 Alpha  occ. eigenvalues --   -1.05941  -1.05530  -1.04303  -1.03694  -1.02935
 Alpha  occ. eigenvalues --   -1.02746  -1.01492  -1.00840  -0.99827  -0.82334
 Alpha  occ. eigenvalues --   -0.80421  -0.80042  -0.78572  -0.71738  -0.70147
 Alpha  occ. eigenvalues --   -0.67490  -0.64822  -0.63152  -0.62166  -0.61763
 Alpha  occ. eigenvalues --   -0.60544  -0.56644  -0.55836  -0.55449  -0.54976
 Alpha  occ. eigenvalues --   -0.54350  -0.53456  -0.53290  -0.51747  -0.51118
 Alpha  occ. eigenvalues --   -0.50566  -0.49830  -0.49068  -0.48681  -0.46897
 Alpha  occ. eigenvalues --   -0.45998  -0.45361  -0.44508  -0.43961  -0.43313
 Alpha  occ. eigenvalues --   -0.42569  -0.42279  -0.41477  -0.40285  -0.39581
 Alpha  occ. eigenvalues --   -0.38984  -0.38232  -0.38037  -0.36582  -0.36315
 Alpha  occ. eigenvalues --   -0.35421  -0.35187  -0.34294  -0.33749  -0.33553
 Alpha  occ. eigenvalues --   -0.33260  -0.31531  -0.30924  -0.30625  -0.30259
 Alpha  occ. eigenvalues --   -0.29327  -0.29010  -0.28433  -0.27046  -0.26553
 Alpha  occ. eigenvalues --   -0.26137
 Alpha virt. eigenvalues --   -0.02046  -0.02015  -0.01697  -0.00187   0.00271
 Alpha virt. eigenvalues --    0.01020   0.01815   0.02168   0.03042   0.03369
 Alpha virt. eigenvalues --    0.04014   0.04128   0.04865   0.05152   0.05612

 Mulliken atomic charges:
              1
     1  O   -0.547161
     2  C   -0.090259
     3  C    0.324029
     4  O   -0.571619
     5  H    0.355716
     6  C   -0.256147
     7  O   -0.555190
     8  H    0.403436
     9  C   -0.295796
    10  O   -0.503589
    11  H    0.339765
    12  C    0.245180
    13  O   -0.297835
    14  C    0.370877
    15  O   -0.224521
    16  C    0.333403
    17  C    0.154311
    18  O   -0.565079
    19  H    0.376234
    20  C    0.047975
    21  O   -0.544251
    22  H    0.344095
    23  C   -0.319104
    24  O   -0.560128
    25  H    0.361025
    26  C   -0.188431
    27  O   -0.229910
    28  C    0.199894
    29  O   -0.554550
    30  H    0.337006
    31  H    0.131224
    32  H    0.127531
    33  H    0.112873
    34  H    0.105513
    35  H    0.114437
    36  H    0.143458
    37  H    0.157843
    38  H    0.145284
    39  H    0.138255
    40  H    0.117068
    41  H    0.344926
    42  H    0.126232
    43  H    0.116733
    44  H    0.120148
    45  H    0.109099
 Sum of Mulliken atomic charges =   0.00000

 Dipole moment (field-independent basis, Debye):
    X=             -3.1144    Y=             -0.5000    Z=              2.5154  Tot=              4.0345
 Quadrupole moment (field-independent basis, Debye-Ang):
   XX=           -117.3287   YY=           -138.4573   ZZ=           -139.0701
   XY=            -19.6740   XZ=              1.5191   YZ=              2.0019

  Exact polarizability: 234.234   1.239 195.397   0.641  -0.050 144.264
 Approx polarizability: 276.648   0.865 255.477   0.946   0.922 239.772

 ******    6 imaginary frequencies (negative Signs) ******

                     1                      2                      3
                     A                      A                      A
 Frequencies --  -256.4758              -233.9617              -185.5495
 Red. masses --     1.6626                 1.8197                 1.2130
 Frc consts  --     0.0644                 0.0587                 0.0246
 IR Inten    --    23.3752                 1.0070                55.5170
 Raman Activ --     0.2421                 0.0473                 0.7281

                     4                      5                      6
                     A                      A                      A
 Frequencies --  -182.0864               -81.5368               -65.8527
 Red. masses --     1.1995                 6.8672                 6.4808
 Frc consts  --     0.0234                 0.0269                 0.0166
 IR Inten    --   123.3892                 1.2287                 0.2983
 Raman Activ --     0.6303                 0.0564                 0.0188

                     7                      8                      9
                     A                      A                      A
 Frequencies --    19.4483                56.7954                66.6680
 Red. masses --     6.4835                 6.1743                 6.8804
 Frc consts  --     0.0014                 0.0117                 0.0180
 IR Inten    --     0.3454                 1.7261                 0.4498
 Raman Activ --     0.0445                 0.0723                 0.2322

                    10                     11                     12
                     A                      A                      A
 Frequencies --    89.8376               113.9086               128.7456
 Red. masses --     6.3799                 5.8951                 5.4238
 Frc consts  --     0.0303                 0.0451                 0.0530
 IR Inten    --     2.5659                 3.9188                 4.5481
 Raman Activ --     0.0413                 0.0853                 0.0465

                    13                     14                     15
                     A                      A                      A
 Frequencies --   153.7361               181.1536               182.3253
 Red. masses --     6.3803                 5.8856                 6.6836
 Frc consts  --     0.0888                 0.1138                 0.1309
 IR Inten    --     0.6866                 6.7723                 0.3294
 Raman Activ --     0.7957                 0.3981                 0.5353

                    16                     17                     18
                     A                      A                      A
 Frequencies --   210.5858               230.9210               273.2824
 Red. masses --     6.8147                 5.9168                 4.1049
 Frc consts  --     0.1781                 0.1859                 0.1806
 IR Inten    --     0.9363                 0.2409                17.3648
 Raman Activ --     2.3127                 0.2806                 0.2552

                    19                     20                     21
                     A                      A                      A
 Frequencies --   283.1716               295.2422               303.9095
 Red. masses --     5.1766                 5.1759                 5.2595
 Frc consts  --     0.2446                 0.2658                 0.2862
 IR Inten    --     3.0828                 1.5225                 1.1617
 Raman Activ --     0.1342                 0.2996                 1.0346

                    22                     23                     24
                     A                      A                      A
 Frequencies --   311.4143               322.1941               331.8549
 Red. masses --     6.0895                 5.1988                 6.1810
 Frc consts  --     0.3479                 0.3180                 0.4011
 IR Inten    --     3.3058                 5.5636                 5.3430
 Raman Activ --     2.3560                 1.1561                 1.5238

                    25                     26                     27
                     A                      A                      A
 Frequencies --   352.4733               362.0275               363.8448
 Red. masses --     6.4643                 6.3263                 5.4062
 Frc consts  --     0.4732                 0.4885                 0.4217
 IR Inten    --    15.8402                 7.1099                 2.4476
 Raman Activ --     3.1425                 0.2917                 3.3796

                    28                     29                     30
                     A                      A                      A
 Frequencies --   405.7269               415.4003               423.7120
 Red. masses --     4.6702                 5.9627                 4.7983
 Frc consts  --     0.4529                 0.6062                 0.5076
 IR Inten    --    14.6576                 2.5728                 4.4046
 Raman Activ --     1.3697                 1.8771                 8.9133

                    31                     32                     33
                     A                      A                      A
 Frequencies --   434.9488               482.2229               501.8706
 Red. masses --     4.4143                 4.9119                 3.9707
 Frc consts  --     0.4920                 0.6730                 0.5892
 IR Inten    --     2.3750                 4.6491                10.8211
 Raman Activ --     0.8657                 1.2124                 1.4551

                    34                     35                     36
                     A                      A                      A
 Frequencies --   512.7837               532.4844               564.9506
 Red. masses --     4.6562                 3.6163                 3.8518
 Frc consts  --     0.7214                 0.6041                 0.7243
 IR Inten    --     6.1026                 8.4969                12.8462
 Raman Activ --     3.7951                 5.0066                 0.5101

                    37                     38                     39
                     A                      A                      A
 Frequencies --   585.6430               587.7547               616.9059
 Red. masses --     5.3357                 2.8306                 4.5319
 Frc consts  --     1.0782                 0.5761                 1.0162
 IR Inten    --     6.1090                57.4640                 8.6172
 Raman Activ --     0.5973                 0.2954                 0.4509

                    40                     41                     42
                     A                      A                      A
 Frequencies --   629.8814               683.6890               692.9218
 Red. masses --     4.8299                 4.3458                 1.1594
 Frc consts  --     1.1290                 1.1968                 0.3280
 IR Inten    --    29.5031                23.9340                87.0766
 Raman Activ --     1.0560                 0.8353                 1.6821

                    43                     44                     45
                     A                      A                      A
 Frequencies --   714.0107               747.2466               757.0999
 Red. masses --     1.0789                 1.0725                 1.0662
 Frc consts  --     0.3241                 0.3528                 0.3601
 IR Inten    --    94.2730               100.1934               134.1792
 Raman Activ --     1.4100                 1.4431                 2.1160

                    46                     47                     48
                     A                      A                      A
 Frequencies --   801.9513               803.4188               857.7326
 Red. masses --     1.0687                 1.0778                 1.7834
 Frc consts  --     0.4049                 0.4099                 0.7730
 IR Inten    --   136.2986                60.9455                 0.4602
 Raman Activ --     2.4165                 1.3350                 1.5717

                    49                     50                     51
                     A                      A                      A
 Frequencies --   862.7075               925.7067               951.3085
 Red. masses --     1.6790                 5.9584                 6.3228
 Frc consts  --     0.7363                 3.0083                 3.3713
 IR Inten    --     0.8613               141.2189                20.5082
 Raman Activ --     0.7006                 3.5006                 0.3795

                    52                     53                     54
                     A                      A                      A
 Frequencies --   968.6670               976.9304               981.2636
 Red. masses --     4.8733                 6.3235                 5.5312
 Frc consts  --     2.6942                 3.5558                 3.1379
 IR Inten    --    33.4490               336.9479               209.7256
 Raman Activ --     1.5365                 0.8855                 1.2554

                    55                     56                     57
                     A                      A                      A
 Frequencies --  1001.3788              1022.4838              1028.2264
 Red. masses --     5.0293                 5.3159                 5.8811
 Frc consts  --     2.9713                 3.2745                 3.6634
 IR Inten    --    50.2110               101.5303               121.0490
 Raman Activ --     0.7271                 4.3582                 1.5556

                    58                     59                     60
                     A                      A                      A
 Frequencies --  1034.0706              1054.4206              1062.1197
 Red. masses --     7.6220                 6.1228                 4.8027
 Frc consts  --     4.8020                 4.0108                 3.1922
 IR Inten    --   258.3629               113.9525                84.4175
 Raman Activ --     2.1059                 2.5197                 6.4871

                    61                     62                     63
                     A                      A                      A
 Frequencies --  1066.4325              1075.3179              1080.4520
 Red. masses --     3.7003                 4.5378                 3.0204
 Frc consts  --     2.4795                 3.0915                 2.0774
 IR Inten    --    16.4729                56.4304                 6.4684
 Raman Activ --     5.4638                 5.2849                15.1381

                    64                     65                     66
                     A                      A                      A
 Frequencies --  1095.3520              1096.1302              1107.7996
 Red. masses --     3.6255                 2.6561                 2.7635
 Frc consts  --     2.5629                 1.8803                 1.9981
 IR Inten    --    47.7244                76.4710               113.8125
 Raman Activ --    17.0751                 5.2771                 3.3562

                    67                     68                     69
                     A                      A                      A
 Frequencies --  1114.0079              1131.3764              1138.3633
 Red. masses --     3.0997                 2.5949                 2.3127
 Frc consts  --     2.2665                 1.9570                 1.7657
 IR Inten    --     6.3862                36.0725                53.6076
 Raman Activ --     7.2168                 2.0352                 6.2866

                    70                     71                     72
                     A                      A                      A
 Frequencies --  1148.9527              1158.4434              1162.7424
 Red. masses --     1.9064                 2.4768                 1.9923
 Frc consts  --     1.4828                 1.9584                 1.5870
 IR Inten    --    13.9159                12.0851                12.1515
 Raman Activ --     2.1414                 6.7049                 2.3563

                    73                     74                     75
                     A                      A                      A
 Frequencies --  1169.1914              1185.7118              1189.8744
 Red. masses --     2.4422                 1.9366                 1.9334
 Frc consts  --     1.9670                 1.6042                 1.6128
 IR Inten    --     7.3285                 4.2273                 8.6432
 Raman Activ --     1.8332                 0.9938                 3.1035

                    76                     77                     78
                     A                      A                      A
 Frequencies --  1201.9753              1207.8619              1225.7238
 Red. masses --     1.2840                 1.4859                 1.2676
 Frc consts  --     1.0930                 1.2772                 1.1220
 IR Inten    --    11.2705                 7.2043                10.7116
 Raman Activ --     0.8750                 1.8402                 2.3700

                    79                     80                     81
                     A                      A                      A
 Frequencies --  1237.2756              1260.7013              1264.9621
 Red. masses --     1.3245                 1.2685                 1.2746
 Frc consts  --     1.1947                 1.1878                 1.2016
 IR Inten    --     6.7314                 2.8090                10.3651
 Raman Activ --     1.6143                 0.2632                 3.3704

                    82                     83                     84
                     A                      A                      A
 Frequencies --  1278.5195              1281.8903              1293.4952
 Red. masses --     1.2342                 1.3376                 1.2517
 Frc consts  --     1.1886                 1.2951                 1.2339
 IR Inten    --    10.2246                31.6903                 9.9517
 Raman Activ --     2.9475                 2.6919                 1.8368

                    85                     86                     87
                     A                      A                      A
 Frequencies --  1294.9931              1308.9515              1317.3249
 Red. masses --     1.2398                 1.3392                 1.2896
 Frc consts  --     1.2250                 1.3519                 1.3185
 IR Inten    --     1.9565                 2.1255                18.4744
 Raman Activ --     0.6941                 3.5062                 4.1720

                    88                     89                     90
                     A                      A                      A
 Frequencies --  1320.8990              1328.2796              1334.6992
 Red. masses --     1.1930                 1.3156                 1.2189
 Frc consts  --     1.2264                 1.3675                 1.2793
 IR Inten    --     8.0579                10.6319                45.3824
 Raman Activ --     4.4279                 5.5322                 5.5696

                    91                     92                     93
                     A                      A                      A
 Frequencies --  1342.2380              1351.0500              1354.9798
 Red. masses --     1.1340                 1.2016                 1.2336
 Frc consts  --     1.2037                 1.2923                 1.3344
 IR Inten    --    11.1855                59.8455                12.1023
 Raman Activ --     9.0065                 3.3881                 3.0343

                    94                     95                     96
                     A                      A                      A
 Frequencies --  1360.7111              1372.8088              1378.5969
 Red. masses --     1.2386                 1.3910                 1.5056
 Frc consts  --     1.3512                 1.5446                 1.6859
 IR Inten    --    39.6323                11.0114                 2.1040
 Raman Activ --     1.2694                 3.0745                 6.5768

                    97                     98                     99
                     A                      A                      A
 Frequencies --  1382.4238              1389.4801              1426.7268
 Red. masses --     1.4542                 1.5381                 1.2531
 Frc consts  --     1.6374                 1.7496                 1.5029
 IR Inten    --     2.4204                 3.5874                 1.6296
 Raman Activ --     4.4002                 4.4449                 9.7995

                   100                    101                    102
                     A                      A                      A
 Frequencies --  1437.4072              1457.3079              1470.3804
 Red. masses --     1.3781                 1.3393                 1.1048
 Frc consts  --     1.6776                 1.6759                 1.4073
 IR Inten    --    33.7556                34.5106                 9.0074
 Raman Activ --     0.8548                 0.9697                 4.9191

                   103                    104                    105
                     A                      A                      A
 Frequencies --  1472.7792              1473.3660              1481.3423
 Red. masses --     1.0851                 1.3397                 1.3053
 Frc consts  --     1.3867                 1.7135                 1.6876
 IR Inten    --     3.9846                68.1495                 4.0684
 Raman Activ --     4.7463                 2.2461                 1.9578

                   106                    107                    108
                     A                      A                      A
 Frequencies --  1497.8328              1509.4131              3253.8514
 Red. masses --     1.2845                 1.2729                 1.0579
 Frc consts  --     1.6979                 1.7087                 6.5994
 IR Inten    --    29.0292                77.0549                27.5498
 Raman Activ --     1.2040                 1.3150                86.1036

                   109                    110                    111
                     A                      A                      A
 Frequencies --  3258.5542              3262.2901              3263.2158
 Red. masses --     1.0676                 1.0808                 1.0799
 Frc consts  --     6.6788                 6.7769                 6.7749
 IR Inten    --   174.2056                64.5818                49.6034
 Raman Activ --    14.6306                41.7964                97.1420

                   112                    113                    114
                     A                      A                      A
 Frequencies --  3264.0284              3268.0791              3273.8405
 Red. masses --     1.0746                 1.0800                 1.0785
 Frc consts  --     6.7453                 6.7963                 6.8103
 IR Inten    --    35.0719                32.8363               156.1137
 Raman Activ --    20.1026               217.1539               122.6881

                   115                    116                    117
                     A                      A                      A
 Frequencies --  3277.9359              3280.8683              3284.6020
 Red. masses --     1.0740                 1.0836                 1.0848
 Frc consts  --     6.7992                 6.8723                 6.8953
 IR Inten    --   268.9873                11.6330                26.1660
 Raman Activ --   121.1564                74.2118                18.3124

                   118                    119                    120
                     A                      A                      A
 Frequencies --  3288.1360              3299.3455              3300.0871
 Red. masses --     1.0844                 1.0874                 1.0876
 Frc consts  --     6.9076                 6.9744                 6.9785
 IR Inten    --    34.3458                39.4177               105.0354
 Raman Activ --    89.7092                12.5643                16.0330

                   121                    122                    123
                     A                      A                      A
 Frequencies --  3313.3506              3320.8332              3323.7428
 Red. masses --     1.1060                 1.1053                 1.0687
 Frc consts  --     7.1540                 7.1818                 6.9560
 IR Inten    --    42.4151                71.1727               460.5872
 Raman Activ --    34.6488                34.1059               135.8445

                   124                    125                    126
                     A                      A                      A
 Frequencies --  3344.0399              3363.4284              3365.7854
 Red. masses --     1.0646                 1.0656                 1.0692
 Frc consts  --     7.0143                 7.1022                 7.1367
 IR Inten    --    60.9653                50.0105                48.3180
 Raman Activ --    78.3014               112.2336               146.2153

                   127                    128                    129
                     A                      A                      A
 Frequencies --  3374.0387              3892.3390              3892.9327
 Red. masses --     1.0680                 1.0674                 1.0674
 Frc consts  --     7.1637                 9.5282                 9.5306
 IR Inten    --    38.1649                98.5378                66.8264
 Raman Activ --   135.5363                77.7140               132.9645

 - Thermochemistry -
 -------------------
 Temperature   298.150 Kelvin.  Pressure   1.00000 Atm.
 Atom     1 has atomic number  8 and mass  15.99491

 Molecular mass:   342.11621 amu.
 Principal axes and moments of inertia in atomic units:
                           1         2         3
     Eigenvalues --  4365.40700********************
           X            0.99996  -0.00863   0.00024
           Y            0.00863   0.99996  -0.00166
           Z           -0.00022   0.00166   1.00000
 This molecule is an asymmetric top.
 Rotational symmetry number  1.
 Warning -- assumption of classical behavior for rotation
           may cause significant error
 Rotational temperatures (Kelvin)      0.01984     0.00687     0.00526
 Rotational constants (GHZ):           0.41342     0.14316     0.10968
    6 imaginary frequencies ignored.
 Zero-point vibrational energy     976494.0 (Joules/Mol)
                                  233.38767 (Kcal/Mol)
 Warning -- explicit consideration of  33 degrees of freedom as
           vibrations may cause significant error
 Vibrational temperatures:     27.98    81.72    95.92   129.26   163.89
          (Kelvin)            185.24   221.19   260.64   262.33   302.99
                              332.24   393.19   407.42   424.79   437.26
                              448.06   463.56   477.46   507.13   520.88
                              523.49   583.75   597.67   609.63   625.79
                              693.81   722.08   737.78   766.13   812.84
                              842.61   845.65   887.59   906.26   983.67
                              996.96  1027.30  1075.12  1089.30  1153.83
                             1155.94  1234.08  1241.24  1331.88  1368.72
                             1393.69  1405.58  1411.82  1440.76  1471.12
                             1479.39  1487.80  1517.07  1528.15  1534.36
                             1547.14  1554.53  1575.97  1577.08  1593.87
                             1602.81  1627.80  1637.85  1653.08  1666.74
                             1672.92  1682.20  1705.97  1711.96  1729.37
                             1737.84  1763.54  1780.16  1813.87  1820.00
                             1839.50  1844.35  1861.05  1863.20  1883.29
                             1895.33  1900.48  1911.10  1920.33  1931.18
                             1943.86  1949.51  1957.76  1975.16  1983.49
                             1989.00  1999.15  2052.74  2068.11  2096.74
                             2115.55  2119.00  2119.84  2131.32  2155.04
                             2171.71  4681.56  4688.33  4693.70  4695.03
                             4696.20  4702.03  4710.32  4716.21  4720.43
                             4725.80  4730.89  4747.02  4748.08  4767.17
                             4777.93  4782.12  4811.32  4839.22  4842.61
                             4854.48  5600.20  5601.05

 Zero-point correction=                           0.371927 (Hartree/Particle)
 Thermal correction to Energy=                    0.390984
 Thermal correction to Enthalpy=                  0.391928
 Thermal correction to Gibbs Free Energy=         0.324716
 Sum of electronic and zero-point Energies=          -1297.615929
 Sum of electronic and thermal Energies=             -1297.596872
 Sum of electronic and thermal Enthalpies=           -1297.595928
 Sum of electronic and thermal Free Energies=        -1297.663140

                     E (Thermal)             CV                S
                      KCal/Mol        Cal/Mol-Kelvin    Cal/Mol-Kelvin
 Total                  245.346             77.670            141.459
 Electronic               0.000              0.000              0.000
 Translational            0.889              2.981             43.384
 Rotational               0.889              2.981             35.159
 Vibrational            243.568             71.708             62.917
 Vibration     1          0.593              1.986              6.690
 Vibration     2          0.596              1.975              4.566
 Vibration     3          0.598              1.970              4.249
 Vibration     4          0.602              1.956              3.664
 Vibration     5          0.607              1.938              3.201
 Vibration     6          0.611              1.925              2.965
 Vibration     7          0.619              1.899              2.625
 Vibration     8          0.630              1.865              2.316
 Vibration     9          0.630              1.864              2.304
 Vibration    10          0.643              1.825              2.039
 Vibration    11          0.653              1.794              1.872
 Vibration    12          0.676              1.723              1.575
 Vibration    13          0.682              1.705              1.514
 Vibration    14          0.689              1.683              1.444
 Vibration    15          0.695              1.666              1.395
 Vibration    16          0.700              1.652              1.355
 Vibration    17          0.707              1.631              1.299
 Vibration    18          0.714              1.612              1.251
 Vibration    19          0.729              1.570              1.155
 Vibration    20          0.736              1.550              1.113
 Vibration    21          0.737              1.547              1.106
 Vibration    22          0.771              1.458              0.942
 Vibration    23          0.779              1.437              0.908
 Vibration    24          0.786              1.419              0.879
 Vibration    25          0.796              1.394              0.843
 Vibration    26          0.838              1.289              0.704
 Vibration    27          0.857              1.246              0.653
 Vibration    28          0.868              1.222              0.627
 Vibration    29          0.887              1.178              0.582
 Vibration    30          0.921              1.107              0.514
 Vibration    31          0.943              1.062              0.475
 Vibration    32          0.945              1.058              0.471
 Vibration    33          0.977              0.996              0.421

 Normal termination of Gaussian 09 at Thu Mar 31 01:02:09 2016.
