 Gaussian 09, Revision B.01,
 Gaussian 09:  EM64L-G09RevB.01 12-Aug-2010

 -------------------------------------------------
 # freq=raman b3lyp/6-31+g(2d,p) geom=connectivity
 -------------------------------------------------

 -----------------
 483 9523/9523.com
 -----------------
 Symbolic Z-matrix:
 Charge =  0 Multiplicity = 1

                         Standard orientation:
 ---------------------------------------------------------------------
 Center     Atomic      Atomic             Coordinates (Angstroms)
 Number     Number       Type             X           Y           Z
 ---------------------------------------------------------------------
      1          8           0        4.964035   -0.551624   -0.307729
      2          6           0        3.682289   -0.164433    0.206995
      3          6           0        3.304287    1.241755   -0.231471
      4          8           0        4.336744    2.169787    0.130767
      5          1           0        5.255504    1.777782    0.079081
      6          6           0        1.912412    1.555512    0.291057
      7          8           0        1.447719    2.862336   -0.079495
      8          1           0        0.473470    3.023326    0.074273
      9          6           0        2.821535   -2.609775    0.005581
     10          8           0        3.916242   -3.440168   -0.409254
     11          1           0        3.584427   -4.377564   -0.306879
     12          6           0        2.655250   -1.140042   -0.343859
     13          8           0        1.395654   -0.794047    0.251743
     14          6           0        0.914540    0.496270   -0.149006
     15          8           0       -0.257204    0.622772    0.671204
     16          6           0       -1.465329    0.196578    0.024830
     17          6           0       -2.042222   -1.092372    0.588565
     18          8           0       -1.075934   -2.090693    0.227372
     19          1           0       -0.176702   -1.662066    0.142922
     20          6           0       -3.352394   -1.459540   -0.087929
     21          8           0       -3.846984   -2.743899    0.315281
     22          1           0       -4.766013   -3.044954    0.059640
     23          6           0       -2.252042    2.647875   -0.374616
     24          8           0       -1.115472    3.358282    0.138054
     25          1           0       -1.345762    4.322507    0.006928
     26          6           0       -2.536745    1.262207    0.182536
     27          8           0       -3.750629    0.855078   -0.465928
     28          6           0       -4.336714   -0.319025    0.114768
     29          8           0       -5.507765   -0.618795   -0.657104
     30          1           0       -6.241411   -0.804613   -0.066480
     31          1           0       -4.569810   -0.175363    1.149141
     32          1           0       -3.156066   -1.519084   -1.138077
     33          1           0       -2.156751   -1.033271    1.650775
     34          1           0       -1.267252    0.058188   -1.017530
     35          1           0       -2.740259    1.365961    1.227867
     36          1           0       -3.117937    3.251917   -0.200663
     37          1           0       -2.125013    2.552504   -1.432760
     38          1           0        5.552509   -0.758998    0.421856
     39          1           0        1.934882   -3.096745   -0.343141
     40          1           0        2.801981   -2.661673    1.074143
     41          1           0        2.590813   -1.029889   -1.406222
     42          1           0        3.692416   -0.217846    1.275613
     43          1           0        3.246275    1.237088   -1.299887
     44          1           0        1.959607    1.525574    1.359596
     45          1           0        0.690657    0.544907   -1.194191
 ---------------------------------------------------------------------

 SCF Done:  E(RB3LYP) =  -1297.98478445     A.U. after   13 cycles

 The electronic state is 1-A.
 Alpha  occ. eigenvalues --  -19.19432 -19.18638 -19.18513 -19.18088 -19.18072
 Alpha  occ. eigenvalues --  -19.16862 -19.16027 -19.15581 -19.14892 -19.13165
 Alpha  occ. eigenvalues --  -19.12491 -10.30919 -10.30692 -10.26133 -10.25729
 Alpha  occ. eigenvalues --  -10.25693 -10.25669 -10.25019 -10.24553 -10.24360
 Alpha  occ. eigenvalues --  -10.24318 -10.24253 -10.23877  -1.10718  -1.09163
 Alpha  occ. eigenvalues --   -1.06328  -1.05340  -1.04240  -1.03548  -1.02501
 Alpha  occ. eigenvalues --   -1.02151  -1.01376  -1.00192  -0.99316  -0.82132
 Alpha  occ. eigenvalues --   -0.80434  -0.79615  -0.78487  -0.72061  -0.69869
 Alpha  occ. eigenvalues --   -0.67320  -0.65223  -0.63263  -0.62559  -0.61943
 Alpha  occ. eigenvalues --   -0.60706  -0.56738  -0.56235  -0.55351  -0.55099
 Alpha  occ. eigenvalues --   -0.53771  -0.53407  -0.53300  -0.51768  -0.51475
 Alpha  occ. eigenvalues --   -0.50386  -0.50147  -0.49321  -0.49128  -0.46861
 Alpha  occ. eigenvalues --   -0.46558  -0.45402  -0.44382  -0.43826  -0.43514
 Alpha  occ. eigenvalues --   -0.42523  -0.41654  -0.41197  -0.40168  -0.39504
 Alpha  occ. eigenvalues --   -0.38984  -0.38315  -0.37659  -0.36249  -0.35692
 Alpha  occ. eigenvalues --   -0.35435  -0.34484  -0.34094  -0.33700  -0.33335
 Alpha  occ. eigenvalues --   -0.33027  -0.31633  -0.30699  -0.30244  -0.29824
 Alpha  occ. eigenvalues --   -0.29174  -0.28272  -0.28133  -0.27052  -0.26483
 Alpha  occ. eigenvalues --   -0.26175
 Alpha virt. eigenvalues --   -0.02285  -0.02112  -0.01808  -0.00443   0.00071
 Alpha virt. eigenvalues --    0.00801   0.02075   0.02138   0.03088   0.03447
 Alpha virt. eigenvalues --    0.04018   0.04248   0.04531   0.05235   0.05819

 Mulliken atomic charges:
              1
     1  O   -0.543706
     2  C   -0.063019
     3  C    0.181092
     4  O   -0.562940
     5  H    0.344472
     6  C    0.023815
     7  O   -0.623704
     8  H    0.440643
     9  C   -0.272669
    10  O   -0.524596
    11  H    0.333372
    12  C    0.186278
    13  O   -0.259794
    14  C    0.219145
    15  O   -0.164164
    16  C    0.233061
    17  C    0.206139
    18  O   -0.575557
    19  H    0.390134
    20  C    0.056783
    21  O   -0.582471
    22  H    0.343162
    23  C   -0.265120
    24  O   -0.553034
    25  H    0.360053
    26  C   -0.189014
    27  O   -0.255568
    28  C    0.175302
    29  O   -0.547994
    30  H    0.334787
    31  H    0.128469
    32  H    0.128382
    33  H    0.125078
    34  H    0.113324
    35  H    0.119279
    36  H    0.149509
    37  H    0.157657
    38  H    0.339021
    39  H    0.146728
    40  H    0.141385
    41  H    0.112512
    42  H    0.122457
    43  H    0.113519
    44  H    0.127150
    45  H    0.130639
 Sum of Mulliken atomic charges =   0.00000

 Dipole moment (field-independent basis, Debye):
    X=             -3.6022    Y=              0.2185    Z=              1.5735  Tot=              3.9369
 Quadrupole moment (field-independent basis, Debye-Ang):
   XX=           -119.7165   YY=           -137.4530   ZZ=           -138.9122
   XY=            -14.5243   XZ=             -0.3176   YZ=             -1.2766

  Exact polarizability: 233.758   2.637 198.310   0.382  -0.552 143.250
 Approx polarizability: 274.469   2.496 257.786  -0.267   0.437 238.835

 ******    7 imaginary frequencies (negative Signs) ******

                     1                      2                      3
                     A                      A                      A
 Frequencies --  -317.7987              -270.3966              -252.6034
 Red. masses --     1.6677                 1.1797                 1.7998
 Frc consts  --     0.0992                 0.0508                 0.0677
 IR Inten    --     5.0056               119.0488                 1.0171
 Raman Activ --     0.0670                 1.1142                 0.0485

                     4                      5                      6
                     A                      A                      A
 Frequencies --  -216.2402               -76.6898               -61.5712
 Red. masses --     1.1947                 7.3190                 6.4323
 Frc consts  --     0.0329                 0.0254                 0.0144
 IR Inten    --   103.0041                 3.9986                 0.2889
 Raman Activ --     0.8685                 0.0356                 0.0258

                     7                      8                      9
                     A                      A                      A
 Frequencies --   -21.9687                42.3016                77.4405
 Red. masses --     6.2002                 7.3627                 7.0668
 Frc consts  --     0.0018                 0.0078                 0.0250
 IR Inten    --     0.9105                 1.1855                 0.7854
 Raman Activ --     0.0256                 0.0123                 0.0375

                    10                     11                     12
                     A                      A                      A
 Frequencies --    79.4919                85.5303               129.8646
 Red. masses --     6.4184                 7.2463                 5.4907
 Frc consts  --     0.0239                 0.0312                 0.0546
 IR Inten    --     1.9522                 1.3887                 0.6417
 Raman Activ --     0.2696                 0.0603                 0.0592

                    13                     14                     15
                     A                      A                      A
 Frequencies --   157.8426               172.2941               189.1029
 Red. masses --     6.4207                 6.3211                 7.2389
 Frc consts  --     0.0943                 0.1106                 0.1525
 IR Inten    --     4.0228                 1.5479                 2.3094
 Raman Activ --     0.3150                 0.2481                 1.3777

                    16                     17                     18
                     A                      A                      A
 Frequencies --   220.2089               238.2546               271.3960
 Red. masses --     6.9527                 5.8391                 4.0998
 Frc consts  --     0.1986                 0.1953                 0.1779
 IR Inten    --     0.9614                 3.3021                21.7217
 Raman Activ --     2.6672                 0.1337                 0.2739

                    19                     20                     21
                     A                      A                      A
 Frequencies --   287.4516               294.6077               303.1556
 Red. masses --     4.6419                 5.0829                 5.0038
 Frc consts  --     0.2260                 0.2599                 0.2709
 IR Inten    --     2.0019                12.0501                 2.8437
 Raman Activ --     0.0950                 0.2571                 0.5035

                    22                     23                     24
                     A                      A                      A
 Frequencies --   306.0889               319.1202               326.6075
 Red. masses --     4.6654                 6.1080                 6.2286
 Frc consts  --     0.2575                 0.3665                 0.3915
 IR Inten    --     3.0934                 1.0662                 0.3982
 Raman Activ --     0.1705                 3.7535                 3.0618

                    25                     26                     27
                     A                      A                      A
 Frequencies --   351.9783               357.9511               387.0316
 Red. masses --     6.7333                 4.9399                 7.0858
 Frc consts  --     0.4915                 0.3729                 0.6254
 IR Inten    --    15.8572                 7.4062                 5.3297
 Raman Activ --     4.1452                 0.0898                 0.7010

                    28                     29                     30
                     A                      A                      A
 Frequencies --   405.7958               426.2796               434.4752
 Red. masses --     3.9166                 6.3773                 5.1579
 Frc consts  --     0.3800                 0.6828                 0.5737
 IR Inten    --    22.6292                 2.7745                 0.7758
 Raman Activ --     1.6637                 4.5471                 3.7525

                    31                     32                     33
                     A                      A                      A
 Frequencies --   439.1367               477.3204               496.6839
 Red. masses --     5.6174                 4.5618                 4.0132
 Frc consts  --     0.6382                 0.6124                 0.5833
 IR Inten    --     2.1526                 6.1183                13.1937
 Raman Activ --     2.5919                 3.1101                 0.9441

                    34                     35                     36
                     A                      A                      A
 Frequencies --   524.2430               534.8597               570.2133
 Red. masses --     3.8941                 3.1035                 4.2500
 Frc consts  --     0.6306                 0.5231                 0.8142
 IR Inten    --    15.0536                 3.2294                21.3841
 Raman Activ --     1.1518                 4.0242                 1.1271

                    37                     38                     39
                     A                      A                      A
 Frequencies --   587.8803               595.2071               612.0337
 Red. masses --     2.9151                 4.0517                 2.5679
 Frc consts  --     0.5936                 0.8457                 0.5667
 IR Inten    --    18.4646                13.2124                36.5979
 Raman Activ --     0.2587                 1.2604                 0.5887

                    40                     41                     42
                     A                      A                      A
 Frequencies --   628.0135               637.8850               690.1025
 Red. masses --     1.7259                 2.7770                 3.8782
 Frc consts  --     0.4011                 0.6658                 1.0882
 IR Inten    --    37.5214                41.1638                20.4131
 Raman Activ --     2.7552                 0.9334                 1.1055

                    43                     44                     45
                     A                      A                      A
 Frequencies --   698.0595               708.2419               729.5610
 Red. masses --     1.1594                 1.0710                 1.0916
 Frc consts  --     0.3329                 0.3165                 0.3423
 IR Inten    --    48.3381               120.4794               106.4949
 Raman Activ --     1.5036                 1.6263                 1.6295

                    46                     47                     48
                     A                      A                      A
 Frequencies --   774.7876               784.4291               837.5826
 Red. masses --     1.0563                 1.0741                 1.8438
 Frc consts  --     0.3736                 0.3894                 0.7621
 IR Inten    --    56.1910                65.6017                 1.5788
 Raman Activ --     0.9815                 0.2893                 0.6989

                    49                     50                     51
                     A                      A                      A
 Frequencies --   864.2796               920.1193               954.5825
 Red. masses --     1.6943                 6.0790                 4.7694
 Frc consts  --     0.7457                 3.0323                 2.5606
 IR Inten    --     0.8174               107.0267                69.4764
 Raman Activ --     0.8054                 2.8383                 0.5014

                    52                     53                     54
                     A                      A                      A
 Frequencies --   969.6069               978.3055               982.5402
 Red. masses --     6.6840                 4.4934                 4.8376
 Frc consts  --     3.7023                 2.5338                 2.7516
 IR Inten    --    35.3914                80.2937                83.7260
 Raman Activ --     3.4790                 0.3718                 1.3634

                    55                     56                     57
                     A                      A                      A
 Frequencies --   988.7511              1003.5546              1024.4121
 Red. masses --     6.5290                 6.7219                 6.2268
 Frc consts  --     3.7607                 3.9887                 3.8500
 IR Inten    --   304.7146                35.3167               136.4168
 Raman Activ --     2.6438                 2.7624                 2.5420

                    58                     59                     60
                     A                      A                      A
 Frequencies --  1038.5729              1057.3340              1066.5167
 Red. masses --     6.3810                 6.0776                 3.7939
 Frc consts  --     4.0552                 4.0032                 2.5425
 IR Inten    --   413.8362               155.6024                17.8910
 Raman Activ --     2.3427                 2.9181                11.8038

                    61                     62                     63
                     A                      A                      A
 Frequencies --  1070.8266              1079.4372              1082.7176
 Red. masses --     3.5238                 3.4250                 6.0473
 Frc consts  --     2.3806                 2.3513                 4.1768
 IR Inten    --     4.5001                45.3127                31.7309
 Raman Activ --    14.7263                11.3680                 0.7917

                    64                     65                     66
                     A                      A                      A
 Frequencies --  1085.6386              1096.2247              1100.3480
 Red. masses --     2.2444                 2.7016                 2.3919
 Frc consts  --     1.5585                 1.9128                 1.7063
 IR Inten    --   106.6701                63.0165                45.0110
 Raman Activ --     2.0820                 7.3875                 8.9554

                    67                     68                     69
                     A                      A                      A
 Frequencies --  1105.1830              1119.8344              1128.1390
 Red. masses --     3.0808                 2.6369                 2.5987
 Frc consts  --     2.2171                 1.9483                 1.9487
 IR Inten    --    44.2071                 1.5176                15.7013
 Raman Activ --    13.4884                 2.1453                10.4554

                    70                     71                     72
                     A                      A                      A
 Frequencies --  1141.4395              1147.5363              1152.7402
 Red. masses --     2.6778                 1.8634                 2.0041
 Frc consts  --     2.0556                 1.4458                 1.5690
 IR Inten    --    93.1448                 3.6522                 4.2846
 Raman Activ --     4.7903                 3.0634                 1.0534

                    73                     74                     75
                     A                      A                      A
 Frequencies --  1162.3857              1175.6761              1187.0497
 Red. masses --     2.0443                 1.6901                 1.6056
 Frc consts  --     1.6274                 1.3764                 1.3330
 IR Inten    --    22.4030                 5.8436                19.6109
 Raman Activ --     2.7913                 2.3776                 1.9980

                    76                     77                     78
                     A                      A                      A
 Frequencies --  1197.6792              1206.6031              1225.7045
 Red. masses --     1.5494                 1.3024                 1.2934
 Frc consts  --     1.3094                 1.1172                 1.1448
 IR Inten    --    12.0153                11.4321                 3.3231
 Raman Activ --     2.7108                 1.5866                 1.7080

                    79                     80                     81
                     A                      A                      A
 Frequencies --  1231.1680              1233.4492              1246.2939
 Red. masses --     1.2480                 1.2512                 1.3395
 Frc consts  --     1.1146                 1.1215                 1.2258
 IR Inten    --    12.7227                 1.1936                62.8319
 Raman Activ --     1.1358                 1.1457                 3.7555

                    82                     83                     84
                     A                      A                      A
 Frequencies --  1263.3353              1274.4704              1277.8870
 Red. masses --     1.3728                 1.3629                 1.2607
 Frc consts  --     1.2909                 1.3043                 1.2130
 IR Inten    --    16.1845                11.1111                 6.3580
 Raman Activ --     5.7862                 2.5347                 2.2726

                    85                     86                     87
                     A                      A                      A
 Frequencies --  1294.9337              1296.4166              1298.6817
 Red. masses --     1.3404                 1.1938                 1.3437
 Frc consts  --     1.3243                 1.1821                 1.3352
 IR Inten    --    17.2213                 2.7091                28.8723
 Raman Activ --     0.8845                 4.5566                 4.3013

                    88                     89                     90
                     A                      A                      A
 Frequencies --  1304.9253              1318.2796              1324.1587
 Red. masses --     1.2640                 1.2328                 1.3131
 Frc consts  --     1.2681                 1.2623                 1.3565
 IR Inten    --    30.0908                 2.7481                 8.5419
 Raman Activ --     5.3845                 6.2421                 4.9616

                    91                     92                     93
                     A                      A                      A
 Frequencies --  1332.7698              1348.4756              1356.8571
 Red. masses --     1.4182                 1.2022                 1.2725
 Frc consts  --     1.4842                 1.2880                 1.3803
 IR Inten    --    21.5711                14.7871                19.1290
 Raman Activ --     2.5830                 2.5944                 1.8131

                    94                     95                     96
                     A                      A                      A
 Frequencies --  1359.6519              1363.4565              1368.5947
 Red. masses --     1.2570                 1.1465                 1.5515
 Frc consts  --     1.3691                 1.2557                 1.7122
 IR Inten    --    36.6560                30.9642                13.4882
 Raman Activ --     2.0721                 4.3423                12.2124

                    97                     98                     99
                     A                      A                      A
 Frequencies --  1377.4020              1377.8587              1391.5221
 Red. masses --     1.5097                 1.3794                 1.5494
 Frc consts  --     1.6876                 1.5429                 1.7676
 IR Inten    --    14.4821                18.2780                23.9291
 Raman Activ --     2.6057                 3.7289                 0.9121

                   100                    101                    102
                     A                      A                      A
 Frequencies --  1401.3031              1405.0695              1451.2864
 Red. masses --     1.4456                 1.5189                 1.4099
 Frc consts  --     1.6725                 1.7667                 1.7497
 IR Inten    --     4.0816                 7.5412                30.0471
 Raman Activ --     6.7021                 1.8724                 0.9060

                   103                    104                    105
                     A                      A                      A
 Frequencies --  1466.6586              1475.0442              1491.0917
 Red. masses --     1.0785                 1.0720                 1.3474
 Frc consts  --     1.3669                 1.3742                 1.7650
 IR Inten    --     5.2295                 5.0093                22.7863
 Raman Activ --     4.8965                 4.9803                 1.0656

                   106                    107                    108
                     A                      A                      A
 Frequencies --  1508.6364              1536.2824              3237.7798
 Red. masses --     1.2597                 1.1725                 1.0696
 Frc consts  --     1.6892                 1.6305                 6.6064
 IR Inten    --    33.8318                55.4777               855.3210
 Raman Activ --     0.9501                 3.0622               188.0005

                   109                    110                    111
                     A                      A                      A
 Frequencies --  3254.5849              3263.7412              3266.8994
 Red. masses --     1.0586                 1.0619                 1.0798
 Frc consts  --     6.6066                 6.6648                 6.7899
 IR Inten    --    23.7543                12.3380                66.9696
 Raman Activ --    71.0165               251.3926                21.3131

                   112                    113                    114
                     A                      A                      A
 Frequencies --  3269.4183              3273.0129              3277.6527
 Red. masses --     1.0810                 1.0753                 1.0835
 Frc consts  --     6.8079                 6.7870                 6.8581
 IR Inten    --    46.4680               497.5833                15.6844
 Raman Activ --    24.5903                68.9134               102.6881

                   115                    116                    117
                     A                      A                      A
 Frequencies --  3281.4457              3282.4772              3285.6505
 Red. masses --     1.0836                 1.0836                 1.0819
 Frc consts  --     6.8744                 6.8792                 6.8814
 IR Inten    --    20.6413                72.7386               180.4818
 Raman Activ --   158.9018                70.1515                19.0295

                   118                    119                    120
                     A                      A                      A
 Frequencies --  3288.5117              3294.3991              3300.1733
 Red. masses --     1.0835                 1.0869                 1.0906
 Frc consts  --     6.9039                 6.9501                 6.9981
 IR Inten    --   181.4175                42.2040                 4.2713
 Raman Activ --    17.8063                72.8404                19.7364

                   121                    122                    123
                     A                      A                      A
 Frequencies --  3304.2244              3307.9505              3319.1521
 Red. masses --     1.0883                 1.0972                 1.1063
 Frc consts  --     7.0009                 7.0736                 7.1812
 IR Inten    --    50.6864               122.9346                49.8630
 Raman Activ --     8.1524                32.1149                37.2553

                   124                    125                    126
                     A                      A                      A
 Frequencies --  3363.4589              3366.0450              3373.0900
 Red. masses --     1.0662                 1.0676                 1.0672
 Frc consts  --     7.1068                 7.1269                 7.1541
 IR Inten    --    46.4649                55.7666                49.1453
 Raman Activ --   112.4223               189.1063               132.3426

                   127                    128                    129
                     A                      A                      A
 Frequencies --  3374.3808              3888.3008              3892.9188
 Red. masses --     1.0670                 1.0677                 1.0674
 Frc consts  --     7.1584                 9.5104                 9.5305
 IR Inten    --    57.6003                72.7449                73.6479
 Raman Activ --   147.3890                89.9065               114.1707

 - Thermochemistry -
 -------------------
 Temperature   298.150 Kelvin.  Pressure   1.00000 Atm.
 Atom     1 has atomic number  8 and mass  15.99491

 Molecular mass:   342.11621 amu.
 Principal axes and moments of inertia in atomic units:
                           1         2         3
     Eigenvalues --  4511.25449********************
           X            0.99997  -0.00754  -0.00023
           Y            0.00754   0.99997  -0.00226
           Z            0.00025   0.00226   1.00000
 This molecule is an asymmetric top.
 Rotational symmetry number  1.
 Warning -- assumption of classical behavior for rotation
           may cause significant error
 Rotational temperatures (Kelvin)      0.01920     0.00715     0.00534
 Rotational constants (GHZ):           0.40005     0.14896     0.11124
    7 imaginary frequencies ignored.
 Zero-point vibrational energy     972836.0 (Joules/Mol)
                                  232.51338 (Kcal/Mol)
 Warning -- explicit consideration of  32 degrees of freedom as
           vibrations may cause significant error
 Vibrational temperatures:     60.86   111.42   114.37   123.06   186.85
          (Kelvin)            227.10   247.89   272.08   316.83   342.79
                              390.48   413.58   423.87   436.17   440.39
                              459.14   469.91   506.42   515.01   556.85
                              583.85   613.32   625.11   631.82   686.76
                              714.62   754.27   769.54   820.41   845.83
                              856.37   880.58   903.57   917.77   992.90
                             1004.35  1019.00  1049.67  1114.75  1128.62
                             1205.09  1243.50  1323.84  1373.43  1395.05
                             1407.56  1413.65  1422.59  1443.89  1473.90
                             1494.27  1521.27  1534.48  1540.68  1553.07
                             1557.79  1561.99  1577.22  1583.15  1590.11
                             1611.19  1623.14  1642.27  1651.05  1658.53
                             1672.41  1691.53  1707.90  1723.19  1736.03
                             1763.51  1771.37  1774.66  1793.14  1817.66
                             1833.68  1838.59  1863.12  1865.25  1868.51
                             1877.49  1896.71  1905.17  1917.56  1940.15
                             1952.21  1956.23  1961.71  1969.10  1981.77
                             1982.43  2002.09  2016.16  2021.58  2088.07
                             2110.19  2122.26  2145.35  2170.59  2210.37
                             4658.44  4682.62  4695.79  4700.33  4703.96
                             4709.13  4715.81  4721.26  4722.75  4727.31
                             4731.43  4739.90  4748.21  4754.04  4759.40
                             4775.51  4839.26  4842.98  4853.12  4854.98
                             5594.39  5601.03

 Zero-point correction=                           0.370534 (Hartree/Particle)
 Thermal correction to Energy=                    0.388802
 Thermal correction to Enthalpy=                  0.389746
 Thermal correction to Gibbs Free Energy=         0.325221
 Sum of electronic and zero-point Energies=          -1297.614251
 Sum of electronic and thermal Energies=             -1297.595983
 Sum of electronic and thermal Enthalpies=           -1297.595039
 Sum of electronic and thermal Free Energies=        -1297.659564

                     E (Thermal)             CV                S
                      KCal/Mol        Cal/Mol-Kelvin    Cal/Mol-Kelvin
 Total                  243.977             76.170            135.805
 Electronic               0.000              0.000              0.000
 Translational            0.889              2.981             43.384
 Rotational               0.889              2.981             35.138
 Vibrational            242.199             70.208             57.282
 Vibration     1          0.595              1.980              5.148
 Vibration     2          0.599              1.964              3.955
 Vibration     3          0.600              1.963              3.903
 Vibration     4          0.601              1.959              3.760
 Vibration     5          0.612              1.923              2.948
 Vibration     6          0.621              1.894              2.575
 Vibration     7          0.626              1.877              2.410
 Vibration     8          0.633              1.855              2.237
 Vibration     9          0.647              1.810              1.957
 Vibration    10          0.656              1.782              1.816
 Vibration    11          0.675              1.726              1.587
 Vibration    12          0.685              1.697              1.489
 Vibration    13          0.689              1.684              1.447
 Vibration    14          0.695              1.668              1.399
 Vibration    15          0.696              1.662              1.383
 Vibration    16          0.705              1.637              1.315
 Vibration    17          0.710              1.622              1.277
 Vibration    18          0.729              1.571              1.157
 Vibration    19          0.733              1.559              1.131
 Vibration    20          0.755              1.498              1.012
 Vibration    21          0.771              1.458              0.942
 Vibration    22          0.788              1.413              0.871
 Vibration    23          0.795              1.395              0.844
 Vibration    24          0.799              1.385              0.829
 Vibration    25          0.834              1.300              0.717
 Vibration    26          0.852              1.257              0.666
 Vibration    27          0.879              1.196              0.600
 Vibration    28          0.890              1.173              0.576
 Vibration    29          0.926              1.096              0.504
 Vibration    30          0.945              1.058              0.471
 Vibration    31          0.953              1.042              0.458
 Vibration    32          0.971              1.006              0.429

 Normal termination of Gaussian 09 at Thu Mar 31 03:00:01 2016.
