 Gaussian 09, Revision B.01,
 Gaussian 09:  EM64L-G09RevB.01 12-Aug-2010

 ------------------------------------------------
 # freq=raman b3lyp/6-31+g(d,p) geom=connectivity
 ------------------------------------------------

 ------------
 310 5000.com
 ------------
 Symbolic Z-matrix:
 Charge =  0 Multiplicity = 1

                         Standard orientation:
 ---------------------------------------------------------------------
 Center     Atomic      Atomic             Coordinates (Angstroms)
 Number     Number       Type             X           Y           Z
 ---------------------------------------------------------------------
      1          8           0       -5.105840   -0.272716    0.323327
      2          6           0       -3.734295   -0.056374   -0.040801
      3          6           0       -3.100916    1.258439    0.384816
      4          8           0       -3.973442    2.347826    0.051668
      5          1           0       -4.873489    2.151836    0.441106
      6          6           0       -1.746284    1.573950   -0.229040
      7          8           0       -1.184510    2.816845    0.213791
      8          1           0       -0.246749    2.996387   -0.085513
      9          6           0       -3.107674   -2.564907   -0.179276
     10          8           0       -4.374957   -3.151922    0.149855
     11          1           0       -4.269953   -4.139768    0.269788
     12          6           0       -2.734971   -1.159301    0.265144
     13          8           0       -1.501513   -0.779481   -0.361594
     14          6           0       -0.849008    0.400172    0.129020
     15          8           0        0.316968    0.367463   -0.706516
     16          6           0        1.500140    0.182321    0.084595
     17          6           0        1.950866   -1.179285   -0.418446
     18          8           0        1.014053   -2.177799    0.011133
     19          1           0        0.131601   -1.727748   -0.123508
     20          6           0        3.306393   -1.590657    0.133658
     21          8           0        3.855491   -2.778446   -0.454158
     22          1           0        4.678109   -2.938922    0.092293
     23          6           0        2.357597    2.653526    0.097837
     24          8           0        1.273990    3.417231   -0.450650
     25          1           0        1.426333    4.405063   -0.423234
     26          6           0        2.588404    1.190624   -0.243633
     27          8           0        3.837031    0.804113    0.349561
     28          6           0        4.319817   -0.477519   -0.078476
     29          8           0        5.326056   -0.687486    0.923807
     30          1           0       -5.624791   -0.436923   -0.467449
     31          1           0       -2.354797   -3.220124    0.206429
     32          1           0       -3.027384   -2.582524   -1.246114
     33          1           0       -2.578389   -1.178880    1.323444
     34          1           0       -3.757604   -0.007596   -1.109434
     35          1           0       -2.984925    1.239016    1.448333
     36          1           0       -1.853955    1.609410   -1.293019
     37          1           0       -0.619020    0.343564    1.172476
     38          1           0        6.148405   -0.947368    0.502140
     39          1           0        3.257086    3.172116   -0.160781
     40          1           0        2.258943    2.705874    1.161992
     41          1           0        2.726333    1.147219   -1.303817
     42          1           0        1.277583    0.161046    1.130978
     43          1           0        1.991715   -1.167126   -1.487597
     44          1           0        3.202771   -1.754835    1.185897
     45          1           0        4.725150   -0.460684   -1.068588
 ---------------------------------------------------------------------

 SCF Done:  E(RB3LYP) =  -1297.92557575     A.U. after   13 cycles

 The electronic state is 1-A.
 Alpha  occ. eigenvalues --  -19.20532 -19.19419 -19.19315 -19.19031 -19.18755
 Alpha  occ. eigenvalues --  -19.17418 -19.17410 -19.17068 -19.15308 -19.14866
 Alpha  occ. eigenvalues --  -19.13387 -10.31110 -10.31105 -10.26936 -10.26380
 Alpha  occ. eigenvalues --  -10.26261 -10.25965 -10.25030 -10.24697 -10.24475
 Alpha  occ. eigenvalues --  -10.24460 -10.24450 -10.24425  -1.10898  -1.09638
 Alpha  occ. eigenvalues --   -1.06261  -1.05211  -1.04067  -1.03948  -1.02777
 Alpha  occ. eigenvalues --   -1.02549  -1.01534  -1.00967  -0.99249  -0.82458
 Alpha  occ. eigenvalues --   -0.80077  -0.79571  -0.78468  -0.72408  -0.70339
 Alpha  occ. eigenvalues --   -0.67158  -0.65547  -0.63833  -0.62487  -0.61544
 Alpha  occ. eigenvalues --   -0.60313  -0.57094  -0.56294  -0.55392  -0.54579
 Alpha  occ. eigenvalues --   -0.53947  -0.53494  -0.53261  -0.52268  -0.51560
 Alpha  occ. eigenvalues --   -0.51217  -0.50133  -0.49150  -0.48462  -0.46859
 Alpha  occ. eigenvalues --   -0.46059  -0.45396  -0.44280  -0.44020  -0.43487
 Alpha  occ. eigenvalues --   -0.42450  -0.41857  -0.41296  -0.40364  -0.39196
 Alpha  occ. eigenvalues --   -0.38579  -0.38187  -0.37925  -0.37331  -0.35671
 Alpha  occ. eigenvalues --   -0.35187  -0.34998  -0.34073  -0.33889  -0.33473
 Alpha  occ. eigenvalues --   -0.33006  -0.31649  -0.30866  -0.30454  -0.29514
 Alpha  occ. eigenvalues --   -0.29027  -0.28752  -0.28634  -0.27206  -0.26847
 Alpha  occ. eigenvalues --   -0.26124
 Alpha virt. eigenvalues --   -0.02525  -0.02021  -0.01739  -0.00244   0.00274
 Alpha virt. eigenvalues --    0.00795   0.01977   0.02314   0.02724   0.03428
 Alpha virt. eigenvalues --    0.03821   0.04455   0.04819   0.05250   0.05569

 Mulliken atomic charges:
              1
     1  O   -0.527736
     2  C   -0.254787
     3  C    0.176625
     4  O   -0.498707
     5  H    0.357397
     6  C   -0.083181
     7  O   -0.588439
     8  H    0.472832
     9  C   -0.186510
    10  O   -0.543155
    11  H    0.363814
    12  C    0.442207
    13  O   -0.402546
    14  C    0.045752
    15  O   -0.313674
    16  C   -0.043186
    17  C    0.020293
    18  O   -0.534641
    19  H    0.402149
    20  C    0.121534
    21  O   -0.486692
    22  H    0.338970
    23  C   -0.089852
    24  O   -0.640598
    25  H    0.398583
    26  C    0.067864
    27  O   -0.306875
    28  C    0.191997
    29  O   -0.561031
    30  H    0.375325
    31  H    0.134038
    32  H    0.141934
    33  H    0.122240
    34  H    0.124841
    35  H    0.126249
    36  H    0.141159
    37  H    0.125841
    38  H    0.359555
    39  H    0.142435
    40  H    0.149330
    41  H    0.131780
    42  H    0.133021
    43  H    0.149089
    44  H    0.160127
    45  H    0.144629
 Sum of Mulliken atomic charges =   0.00000

 Dipole moment (field-independent basis, Debye):
    X=              3.5457    Y=              0.1355    Z=             -0.7911  Tot=              3.6354
 Quadrupole moment (field-independent basis, Debye-Ang):
   XX=           -121.2305   YY=           -134.4886   ZZ=           -140.1032
   XY=             15.7528   XZ=             -0.7931   YZ=             -3.4792

  Exact polarizability: 227.749  -0.681 193.746   0.886  -0.244 141.021
 Approx polarizability: 264.644   0.013 248.603   1.622  -1.167 231.779

 ******    6 imaginary frequencies (negative Signs) ******

                     1                      2                      3
                     A                      A                      A
 Frequencies --  -323.0652              -301.1150              -300.8128
 Red. masses --     1.2903                 1.5888                 1.2535
 Frc consts  --     0.0793                 0.0849                 0.0668
 IR Inten    --    76.4410                16.2202               113.2939
 Raman Activ --     0.5717                 0.1531                 1.1287

                     4                      5                      6
                     A                      A                      A
 Frequencies --  -294.4695               -72.5289               -64.5738
 Red. masses --     1.4052                 6.7381                 5.9950
 Frc consts  --     0.0718                 0.0209                 0.0147
 IR Inten    --    43.9272                 0.8952                 0.8596
 Raman Activ --     0.3747                 0.0504                 0.0474

                     7                      8                      9
                     A                      A                      A
 Frequencies --     6.0401                45.4713                61.8964
 Red. masses --     7.3891                 6.5075                 6.2213
 Frc consts  --     0.0002                 0.0079                 0.0140
 IR Inten    --     1.2515                 0.5564                 0.7848
 Raman Activ --     0.0185                 0.0465                 0.1568

                    10                     11                     12
                     A                      A                      A
 Frequencies --    69.3707                82.4182                93.5048
 Red. masses --     6.5137                 7.0073                 6.1410
 Frc consts  --     0.0185                 0.0280                 0.0316
 IR Inten    --     3.3756                 1.0451                 0.5897
 Raman Activ --     0.0308                 0.1117                 0.0620

                    13                     14                     15
                     A                      A                      A
 Frequencies --   154.4339               173.9301               178.2910
 Red. masses --     6.2953                 5.9155                 7.4785
 Frc consts  --     0.0885                 0.1054                 0.1401
 IR Inten    --     2.7469                 5.2543                 0.9548
 Raman Activ --     0.2606                 0.3144                 0.9977

                    16                     17                     18
                     A                      A                      A
 Frequencies --   216.4408               236.7041               259.7802
 Red. masses --     6.8577                 5.7621                 4.3001
 Frc consts  --     0.1893                 0.1902                 0.1710
 IR Inten    --     0.2677                 3.5199                25.7971
 Raman Activ --     2.3417                 0.1438                 0.2938

                    19                     20                     21
                     A                      A                      A
 Frequencies --   275.7031               283.9625               300.5672
 Red. masses --     4.8596                 5.2543                 4.7233
 Frc consts  --     0.2176                 0.2496                 0.2514
 IR Inten    --     2.4758                 3.1185                 2.8429
 Raman Activ --     0.1007                 0.1654                 0.3690

                    22                     23                     24
                     A                      A                      A
 Frequencies --   303.4065               315.9671               321.4190
 Red. masses --     6.5409                 6.1813                 5.2100
 Frc consts  --     0.3548                 0.3636                 0.3171
 IR Inten    --     5.7575                 3.7080                 2.9313
 Raman Activ --     1.8013                 5.5139                 1.2838

                    25                     26                     27
                     A                      A                      A
 Frequencies --   352.8674               359.4610               376.3095
 Red. masses --     6.5934                 5.0354                 8.0118
 Frc consts  --     0.4837                 0.3833                 0.6685
 IR Inten    --     8.8755                 1.8112                 5.1663
 Raman Activ --     1.5538                 0.0861                 2.8825

                    28                     29                     30
                     A                      A                      A
 Frequencies --   401.2258               420.8244               438.8022
 Red. masses --     4.9298                 4.4923                 5.0874
 Frc consts  --     0.4676                 0.4687                 0.5771
 IR Inten    --    22.1965                 1.4815                 4.0755
 Raman Activ --     2.3408                 6.2270                 1.1176

                    31                     32                     33
                     A                      A                      A
 Frequencies --   444.7458               480.0523               491.2801
 Red. masses --     4.7063                 5.3784                 4.2853
 Frc consts  --     0.5485                 0.7303                 0.6094
 IR Inten    --     3.1157                 5.9502                11.7132
 Raman Activ --     1.8498                 3.4536                 2.0444

                    34                     35                     36
                     A                      A                      A
 Frequencies --   516.5449               534.8739               570.5378
 Red. masses --     3.7760                 3.1728                 4.0166
 Frc consts  --     0.5936                 0.5348                 0.7703
 IR Inten    --    12.6665                 9.0675                15.8868
 Raman Activ --     1.5781                 4.0159                 1.6512

                    37                     38                     39
                     A                      A                      A
 Frequencies --   595.8328               606.0033               624.9616
 Red. masses --     3.5991                 4.6868                 4.8644
 Frc consts  --     0.7528                 1.0141                 1.1194
 IR Inten    --    28.3894                16.4065                30.4175
 Raman Activ --     0.4401                 1.4542                 1.4736

                    40                     41                     42
                     A                      A                      A
 Frequencies --   639.9452               651.8383               656.1861
 Red. masses --     3.4976                 1.1258                 1.0864
 Frc consts  --     0.8439                 0.2818                 0.2756
 IR Inten    --     9.2351                53.5851               187.0533
 Raman Activ --     0.3083                 2.8955                 1.0453

                    43                     44                     45
                     A                      A                      A
 Frequencies --   696.3264               734.9950               752.6199
 Red. masses --     5.4038                 1.0813                 1.1001
 Frc consts  --     1.5437                 0.3442                 0.3671
 IR Inten    --     7.1918               113.3447                93.6540
 Raman Activ --     1.5184                 2.1903                 1.7382

                    46                     47                     48
                     A                      A                      A
 Frequencies --   827.5632               841.5978               853.2217
 Red. masses --     1.2398                 1.8195                 1.0847
 Frc consts  --     0.5003                 0.7593                 0.4653
 IR Inten    --    42.7847                 2.8701                70.3828
 Raman Activ --     0.7395                 1.2013                 0.4018

                    49                     50                     51
                     A                      A                      A
 Frequencies --   875.6297               934.1433               957.5000
 Red. masses --     1.4001                 5.1883                 4.8216
 Frc consts  --     0.6325                 2.6675                 2.6045
 IR Inten    --    19.0935                98.5304                39.3669
 Raman Activ --     0.3595                 3.5481                 0.2544

                    52                     53                     54
                     A                      A                      A
 Frequencies --   986.7213               993.4193               996.4085
 Red. masses --     4.0813                 6.5440                 5.3818
 Frc consts  --     2.3412                 3.8050                 3.1482
 IR Inten    --   134.3276                37.9107               112.8177
 Raman Activ --     0.7989                 4.0581                 3.4841

                    55                     56                     57
                     A                      A                      A
 Frequencies --  1017.7529              1025.7708              1035.3053
 Red. masses --     4.9831                 6.0659                 5.7602
 Frc consts  --     3.0411                 3.7605                 3.6377
 IR Inten    --   101.5998               102.8542               137.5627
 Raman Activ --     1.0782                 0.7782                 5.5627

                    58                     59                     60
                     A                      A                      A
 Frequencies --  1054.4199              1063.9276              1072.7938
 Red. masses --     4.1537                 4.1350                 2.6222
 Frc consts  --     2.7209                 2.7577                 1.7780
 IR Inten    --   398.2535                89.3619                 6.6554
 Raman Activ --     3.8116                 1.4647                 7.5099

                    61                     62                     63
                     A                      A                      A
 Frequencies --  1081.9289              1085.0467              1095.7212
 Red. masses --     5.9716                 3.2368                 5.0073
 Frc consts  --     4.1185                 2.2452                 3.5421
 IR Inten    --   117.9121                40.8965                59.6144
 Raman Activ --     0.9928                14.0271                 2.9186

                    64                     65                     66
                     A                      A                      A
 Frequencies --  1102.6918              1106.6762              1114.2611
 Red. masses --     2.4740                 3.1044                 3.0680
 Frc consts  --     1.7724                 2.2401                 2.2443
 IR Inten    --    53.3406                55.3692                33.4697
 Raman Activ --     1.0032                 4.0918                20.6670

                    67                     68                     69
                     A                      A                      A
 Frequencies --  1118.5096              1121.7113              1135.8481
 Red. masses --     2.4244                 2.3322                 2.2795
 Frc consts  --     1.7870                 1.7290                 1.7327
 IR Inten    --   143.0068                 4.0087                13.7375
 Raman Activ --     4.3435                 1.6973                12.5701

                    70                     71                     72
                     A                      A                      A
 Frequencies --  1141.0819              1155.0957              1163.3221
 Red. masses --     2.1333                 2.6965                 2.1421
 Frc consts  --     1.6365                 2.1197                 1.7080
 IR Inten    --    19.2310                44.4027                11.2186
 Raman Activ --     5.0453                 3.8421                 2.1349

                    73                     74                     75
                     A                      A                      A
 Frequencies --  1174.8000              1187.5526              1193.3489
 Red. masses --     1.8323                 1.6349                 1.8624
 Frc consts  --     1.4900                 1.3585                 1.5627
 IR Inten    --     2.0546                23.1301                 9.1451
 Raman Activ --     4.2389                 1.7152                 3.9081

                    76                     77                     78
                     A                      A                      A
 Frequencies --  1202.4596              1214.7767              1226.7724
 Red. masses --     1.7334                 1.2652                 1.2917
 Frc consts  --     1.4767                 1.1000                 1.1454
 IR Inten    --    10.7906                14.5846                15.8930
 Raman Activ --     2.7237                 1.4563                 1.3814

                    79                     80                     81
                     A                      A                      A
 Frequencies --  1234.0627              1247.4952              1253.9185
 Red. masses --     1.3067                 1.2841                 1.2931
 Frc consts  --     1.1724                 1.1774                 1.1979
 IR Inten    --    10.0363                 2.1197                13.6217
 Raman Activ --     1.4209                 2.5203                 1.8527

                    82                     83                     84
                     A                      A                      A
 Frequencies --  1277.2097              1281.6490              1287.9061
 Red. masses --     1.2349                 1.3415                 1.2286
 Frc consts  --     1.1869                 1.2983                 1.2007
 IR Inten    --    17.3186                30.8111                 1.6731
 Raman Activ --     3.2607                 2.5312                 3.4836

                    85                     86                     87
                     A                      A                      A
 Frequencies --  1292.4467              1303.3699              1308.5776
 Red. masses --     1.2949                 1.3559                 1.3551
 Frc consts  --     1.2744                 1.3571                 1.3671
 IR Inten    --    18.2997                21.0314                19.1655
 Raman Activ --     1.3538                 4.4651                 4.3753

                    88                     89                     90
                     A                      A                      A
 Frequencies --  1320.0530              1323.5092              1329.7489
 Red. masses --     1.3958                 1.2657                 1.3068
 Frc consts  --     1.4331                 1.3063                 1.3614
 IR Inten    --    24.2675                 0.5329                15.4064
 Raman Activ --     4.3963                 5.2911                 8.0968

                    91                     92                     93
                     A                      A                      A
 Frequencies --  1331.8860              1336.9718              1349.9979
 Red. masses --     1.3350                 1.2388                 1.2767
 Frc consts  --     1.3953                 1.3047                 1.3708
 IR Inten    --    25.7521                36.0869                77.7744
 Raman Activ --     4.1826                 7.9462                 3.7358

                    94                     95                     96
                     A                      A                      A
 Frequencies --  1354.3392              1358.1280              1378.0118
 Red. masses --     1.1268                 1.4969                 1.4260
 Frc consts  --     1.2177                 1.6267                 1.5954
 IR Inten    --    25.4000                 6.9207                 2.1567
 Raman Activ --     3.1708                 5.6777                12.0814

                    97                     98                     99
                     A                      A                      A
 Frequencies --  1390.0049              1411.5321              1419.5837
 Red. masses --     1.6368                 1.4174                 1.2873
 Frc consts  --     1.8633                 1.6639                 1.5285
 IR Inten    --    11.6876                 2.6520                15.4214
 Raman Activ --     5.9473                 4.7567                 6.4335

                   100                    101                    102
                     A                      A                      A
 Frequencies --  1432.1546              1443.3044              1452.1316
 Red. masses --     1.2727                 1.4572                 1.3792
 Frc consts  --     1.5380                 1.7884                 1.7135
 IR Inten    --    22.4733                14.9015                13.6698
 Raman Activ --     2.1774                 0.9711                 2.4133

                   103                    104                    105
                     A                      A                      A
 Frequencies --  1458.2588              1460.4848              1476.6486
 Red. masses --     1.3700                 1.4109                 1.0942
 Frc consts  --     1.7164                 1.7732                 1.4057
 IR Inten    --    50.0422                 9.3635                 2.9325
 Raman Activ --     0.8645                 2.8514                 4.1260

                   106                    107                    108
                     A                      A                      A
 Frequencies --  1480.6209              1523.0327              3226.9495
 Red. masses --     1.0869                 1.2918                 1.0720
 Frc consts  --     1.4039                 1.7655                 6.5770
 IR Inten    --     5.9588                55.4293              1232.1913
 Raman Activ --     4.9297                 1.9756               185.5389

                   109                    110                    111
                     A                      A                      A
 Frequencies --  3267.1926              3271.1138              3272.9145
 Red. masses --     1.0592                 1.0804                 1.0688
 Frc consts  --     6.6613                 6.8114                 6.7457
 IR Inten    --    30.5623                 1.2802                 8.5679
 Raman Activ --    49.1770               164.8492               164.7000

                   112                    113                    114
                     A                      A                      A
 Frequencies --  3275.9498              3278.6220              3290.3738
 Red. masses --     1.0830                 1.0737                 1.0862
 Frc consts  --     6.8481                 6.8001                 6.9290
 IR Inten    --    19.2896                27.8731                39.1365
 Raman Activ --     7.7128                35.1910                40.0550

                   115                    116                    117
                     A                      A                      A
 Frequencies --  3296.8013              3302.1896              3306.9215
 Red. masses --     1.0843                 1.0864                 1.0857
 Frc consts  --     6.9438                 6.9800                 6.9953
 IR Inten    --    14.3902                10.6373                11.0354
 Raman Activ --    84.7775               104.6640                 8.5267

                   118                    119                    120
                     A                      A                      A
 Frequencies --  3311.3199              3318.4070              3320.9843
 Red. masses --     1.0873                 1.0875                 1.1010
 Frc consts  --     7.0243                 7.0554                 7.1544
 IR Inten    --    13.0503                 4.8333                20.9012
 Raman Activ --    35.4253                69.0825                24.0681

                   121                    122                    123
                     A                      A                      A
 Frequencies --  3321.6319              3327.9729              3338.8898
 Red. masses --     1.0898                 1.1044                 1.0680
 Frc consts  --     7.0844                 7.2066                 7.0148
 IR Inten    --   120.1154                62.7154               518.4395
 Raman Activ --     7.3549                55.0875               158.9189

                   124                    125                    126
                     A                      A                      A
 Frequencies --  3379.3537              3383.6060              3389.0883
 Red. masses --     1.0652                 1.0690                 1.0659
 Frc consts  --     7.1675                 7.2108                 7.2130
 IR Inten    --    24.0374                46.4870                34.5217
 Raman Activ --   123.9492               152.9238               126.2066

                   127                    128                    129
                     A                      A                      A
 Frequencies --  3400.9896              3918.2155              3920.1983
 Red. masses --     1.0679                 1.0680                 1.0674
 Frc consts  --     7.2779                 9.6606                 9.6648
 IR Inten    --    91.6335                91.3047                51.7305
 Raman Activ --   156.5804                74.7501               136.0982

 - Thermochemistry -
 -------------------
 Temperature   298.150 Kelvin.  Pressure   1.00000 Atm.
 Atom     1 has atomic number  8 and mass  15.99491

 Molecular mass:   342.11621 amu.
 Principal axes and moments of inertia in atomic units:
                           1         2         3
     Eigenvalues --  4500.62040********************
           X            0.99997   0.00761  -0.00017
           Y           -0.00761   0.99997  -0.00003
           Z            0.00017   0.00003   1.00000
 This molecule is an asymmetric top.
 Rotational symmetry number  1.
 Warning -- assumption of classical behavior for rotation
           may cause significant error
 Rotational temperatures (Kelvin)      0.01924     0.00709     0.00532
 Rotational constants (GHZ):           0.40100     0.14765     0.11086
    6 imaginary frequencies ignored.
 Zero-point vibrational energy     978067.1 (Joules/Mol)
                                  233.76364 (Kcal/Mol)
 Warning -- explicit consideration of  32 degrees of freedom as
           vibrations may cause significant error
 Vibrational temperatures:      8.69    65.42    89.05    99.81   118.58
          (Kelvin)            134.53   222.20   250.25   256.52   311.41
                              340.56   373.77   396.67   408.56   432.45
                              436.53   454.61   462.45   507.70   517.18
                              541.42   577.27   605.47   631.34   639.89
                              690.69   706.84   743.19   769.56   820.88
                              857.27   871.90   899.18   920.74   937.85
                              944.10  1001.86  1057.49  1082.85  1190.68
                             1210.87  1227.59  1259.83  1344.02  1377.63
                             1419.67  1429.31  1433.61  1464.32  1475.85
                             1489.57  1517.07  1530.75  1543.51  1556.65
                             1561.14  1576.50  1586.53  1592.26  1603.17
                             1609.28  1613.89  1634.23  1641.76  1661.92
                             1673.76  1690.27  1708.62  1716.96  1730.07
                             1747.79  1765.05  1775.54  1794.87  1804.11
                             1837.62  1844.00  1853.01  1859.54  1875.26
                             1882.75  1899.26  1904.23  1913.21  1916.28
                             1923.60  1942.34  1948.59  1954.04  1982.65
                             1999.90  2030.88  2042.46  2060.55  2076.59
                             2089.29  2098.11  2101.31  2124.57  2130.28
                             2191.30  4642.85  4700.76  4706.40  4708.99
                             4713.36  4717.20  4734.11  4743.36  4751.11
                             4757.92  4764.24  4774.44  4778.15  4779.08
                             4788.20  4803.91  4862.13  4868.25  4876.14
                             4893.26  5637.43  5640.28

 Zero-point correction=                           0.372526 (Hartree/Particle)
 Thermal correction to Energy=                    0.391838
 Thermal correction to Enthalpy=                  0.392782
 Thermal correction to Gibbs Free Energy=         0.323267
 Sum of electronic and zero-point Energies=          -1297.553050
 Sum of electronic and thermal Energies=             -1297.533738
 Sum of electronic and thermal Enthalpies=           -1297.532794
 Sum of electronic and thermal Free Energies=        -1297.602309

                     E (Thermal)             CV                S
                      KCal/Mol        Cal/Mol-Kelvin    Cal/Mol-Kelvin
 Total                  245.882             77.632            146.306
 Electronic               0.000              0.000              0.000
 Translational            0.889              2.981             43.384
 Rotational               0.889              2.981             35.148
 Vibrational            244.105             71.670             67.774
 Vibration     1          0.593              1.987              9.013
 Vibration     2          0.595              1.979              5.005
 Vibration     3          0.597              1.972              4.396
 Vibration     4          0.598              1.969              4.171
 Vibration     5          0.600              1.961              3.832
 Vibration     6          0.603              1.954              3.585
 Vibration     7          0.620              1.898              2.617
 Vibration     8          0.627              1.875              2.393
 Vibration     9          0.629              1.869              2.346
 Vibration    10          0.645              1.816              1.989
 Vibration    11          0.656              1.785              1.828
 Vibration    12          0.668              1.746              1.663
 Vibration    13          0.677              1.718              1.560
 Vibration    14          0.682              1.703              1.510
 Vibration    15          0.693              1.673              1.414
 Vibration    16          0.695              1.667              1.398
 Vibration    17          0.703              1.643              1.331
 Vibration    18          0.707              1.633              1.303
 Vibration    19          0.729              1.569              1.153
 Vibration    20          0.734              1.556              1.124
 Vibration    21          0.747              1.521              1.054
 Vibration    22          0.767              1.467              0.958
 Vibration    23          0.783              1.425              0.889
 Vibration    24          0.799              1.386              0.830
 Vibration    25          0.804              1.372              0.812
 Vibration    26          0.836              1.294              0.710
 Vibration    27          0.847              1.269              0.680
 Vibration    28          0.872              1.213              0.618
 Vibration    29          0.890              1.173              0.576
 Vibration    30          0.927              1.095              0.503
 Vibration    31          0.954              1.041              0.457
 Vibration    32          0.965              1.019              0.439

 Normal termination of Gaussian 09 at Tue Mar  1 03:30:55 2016.
