 Gaussian 09, Revision B.01,
 Gaussian 09:  EM64L-G09RevB.01 12-Aug-2010

 ------------------------------------------------
 # freq=raman b3lyp/6-31+g(d,p) geom=connectivity
 ------------------------------------------------

 ------------
 550 9000.com
 ------------
 Symbolic Z-matrix:
 Charge =  0 Multiplicity = 1

                         Standard orientation:
 ---------------------------------------------------------------------
 Center     Atomic      Atomic             Coordinates (Angstroms)
 Number     Number       Type             X           Y           Z
 ---------------------------------------------------------------------
      1          8           0        4.875653   -0.532810   -0.631587
      2          6           0        3.654982   -0.208117    0.048630
      3          6           0        3.154812    1.178307   -0.323235
      4          8           0        4.183307    2.133134   -0.023589
      5          1           0        5.062467    1.734606   -0.284015
      6          6           0        1.843317    1.549507    0.351235
      7          8           0        1.273344    2.795821   -0.073430
      8          1           0        2.117886    3.331110   -0.042726
      9          6           0        2.740674   -2.644468   -0.437978
     10          8           0        3.511646   -3.144807    0.663823
     11          1           0        4.487411   -2.983042    0.518248
     12          6           0        2.534374   -1.138827   -0.387140
     13          8           0        1.485755   -0.902227    0.563591
     14          6           0        0.950021    0.345384    0.101617
     15          8           0       -0.265225    0.376204    0.865869
     16          6           0       -1.402715    0.223915    0.004102
     17          6           0       -1.938471   -1.179096    0.237365
     18          8           0       -1.012319   -2.219002   -0.110428
     19          1           0       -0.187746   -2.242242    0.453585
     20          6           0       -3.326111   -1.441645   -0.324988
     21          8           0       -3.870773   -2.747804   -0.092885
     22          1           0       -3.292138   -3.510447   -0.383128
     23          6           0       -1.900023    2.685071    0.467770
     24          8           0       -1.558163    3.499411   -0.663477
     25          1           0       -0.563817    3.467269   -0.563818
     26          6           0       -2.439012    1.265689    0.391512
     27          8           0       -3.711064    0.967875   -0.201855
     28          6           0       -4.233803   -0.320506    0.154072
     29          8           0       -5.486961   -0.445800   -0.535442
     30          1           0        5.621533   -0.201434   -0.126163
     31          1           0        1.783482   -3.122646   -0.432583
     32          1           0        3.243713   -2.891609   -1.349445
     33          1           0        2.193651   -0.819015   -1.349703
     34          1           0        3.795708   -0.275024    1.107223
     35          1           0        2.992440    1.193670   -1.380732
     36          1           0        2.021754    1.614733    1.404233
     37          1           0        0.719386    0.275638   -0.940900
     38          1           0       -6.173137    0.003209   -0.036290
     39          1           0       -4.381843   -0.384839    1.211827
     40          1           0       -3.246529   -1.335778   -1.386760
     41          1           0       -2.053022   -1.254902    1.298511
     42          1           0       -1.113951    0.347348   -1.018776
     43          1           0       -2.618100    1.045111    1.423100
     44          1           0       -1.017266    2.632681    1.070179
     45          1           0       -2.621754    3.244356    1.025628
 ---------------------------------------------------------------------

 SCF Done:  E(RB3LYP) =  -1297.92632285     A.U. after   14 cycles

 The electronic state is 1-A.
 Alpha  occ. eigenvalues --  -19.21721 -19.21429 -19.20485 -19.20435 -19.18886
 Alpha  occ. eigenvalues --  -19.17755 -19.17016 -19.16474 -19.16332 -19.15791
 Alpha  occ. eigenvalues --  -19.14902 -10.32322 -10.29981 -10.28360 -10.28304
 Alpha  occ. eigenvalues --  -10.28024 -10.27090 -10.25627 -10.25158 -10.24800
 Alpha  occ. eigenvalues --  -10.24538 -10.24503 -10.22882  -1.11815  -1.09192
 Alpha  occ. eigenvalues --   -1.07780  -1.07262  -1.05522  -1.05063  -1.03209
 Alpha  occ. eigenvalues --   -1.02552  -1.01368  -1.00815  -1.00306  -0.83952
 Alpha  occ. eigenvalues --   -0.82211  -0.79084  -0.78123  -0.73315  -0.70551
 Alpha  occ. eigenvalues --   -0.68487  -0.65670  -0.64924  -0.63404  -0.61844
 Alpha  occ. eigenvalues --   -0.60153  -0.58540  -0.57346  -0.56245  -0.54621
 Alpha  occ. eigenvalues --   -0.54088  -0.53467  -0.53431  -0.52745  -0.52046
 Alpha  occ. eigenvalues --   -0.51302  -0.50542  -0.49287  -0.48565  -0.47881
 Alpha  occ. eigenvalues --   -0.47034  -0.45943  -0.45586  -0.45008  -0.43473
 Alpha  occ. eigenvalues --   -0.43068  -0.43016  -0.41892  -0.41309  -0.40346
 Alpha  occ. eigenvalues --   -0.39913  -0.39529  -0.37878  -0.37029  -0.36346
 Alpha  occ. eigenvalues --   -0.35746  -0.35432  -0.35013  -0.34746  -0.33632
 Alpha  occ. eigenvalues --   -0.33178  -0.32741  -0.32393  -0.31256  -0.30889
 Alpha  occ. eigenvalues --   -0.30526  -0.29245  -0.28527  -0.27780  -0.27340
 Alpha  occ. eigenvalues --   -0.26210
 Alpha virt. eigenvalues --   -0.05248  -0.01867  -0.01049  -0.00148   0.00349
 Alpha virt. eigenvalues --    0.00547   0.01927   0.02091   0.02607   0.03005
 Alpha virt. eigenvalues --    0.03800   0.04338   0.04578   0.04890   0.05467

 Mulliken atomic charges:
              1
     1  O   -0.547302
     2  C   -0.256757
     3  C   -0.044823
     4  O   -0.515713
     5  H    0.328460
     6  C    0.052935
     7  O   -0.545449
     8  H    0.393750
     9  C   -0.225976
    10  O   -0.519867
    11  H    0.353583
    12  C    0.664487
    13  O   -0.418364
    14  C    0.104826
    15  O   -0.327134
    16  C    0.240041
    17  C   -0.185741
    18  O   -0.554681
    19  H    0.388456
    20  C   -0.132613
    21  O   -0.491201
    22  H    0.367992
    23  C   -0.450545
    24  O   -0.485881
    25  H    0.383441
    26  C    0.229886
    27  O   -0.347503
    28  C    0.430868
    29  O   -0.503680
    30  H    0.354047
    31  H    0.152217
    32  H    0.138967
    33  H    0.112170
    34  H    0.170226
    35  H    0.154400
    36  H    0.160052
    37  H    0.107628
    38  H    0.347899
    39  H    0.120745
    40  H    0.142392
    41  H    0.132367
    42  H    0.126824
    43  H    0.109815
    44  H    0.150255
    45  H    0.134502
 Sum of Mulliken atomic charges =   0.00000

 Dipole moment (field-independent basis, Debye):
    X=              8.3352    Y=              0.3090    Z=              1.3316  Tot=              8.4465
 Quadrupole moment (field-independent basis, Debye-Ang):
   XX=           -120.2263   YY=           -154.5830   ZZ=           -141.4954
   XY=              2.3051   XZ=            -13.4968   YZ=             10.2095

  Exact polarizability: 223.852   1.718 191.204  -1.141   1.722 141.257
 Approx polarizability: 266.027   1.325 247.980   0.115  -1.539 232.961

 ******    6 imaginary frequencies (negative Signs) ******

                     1                      2                      3
                     A                      A                      A
 Frequencies --  -256.9482              -194.2287              -164.3943
 Red. masses --     1.0669                 1.7848                 1.4101
 Frc consts  --     0.0415                 0.0397                 0.0225
 IR Inten    --   113.4738                 2.7720               116.8105
 Raman Activ --     1.7220                 0.1953                 0.7975

                     4                      5                      6
                     A                      A                      A
 Frequencies --   -99.0880               -70.1754               -46.7105
 Red. masses --     2.2201                 6.3268                 6.2766
 Frc consts  --     0.0128                 0.0184                 0.0081
 IR Inten    --     5.1619                 0.1986                 1.0583
 Raman Activ --     0.1300                 0.0802                 0.0460

                     7                      8                      9
                     A                      A                      A
 Frequencies --    38.5012                51.7434                60.0325
 Red. masses --     6.1474                 6.3337                 6.4838
 Frc consts  --     0.0054                 0.0100                 0.0138
 IR Inten    --     2.9143                 5.3715                 0.2935
 Raman Activ --     0.0606                 0.0525                 0.0901

                    10                     11                     12
                     A                      A                      A
 Frequencies --    81.8732                98.7317               120.9128
 Red. masses --     6.9985                 6.6410                 5.9987
 Frc consts  --     0.0276                 0.0381                 0.0517
 IR Inten    --     3.0315                 3.0905                 1.7034
 Raman Activ --     0.0787                 0.2275                 0.2700

                    13                     14                     15
                     A                      A                      A
 Frequencies --   142.0151               159.9484               181.1502
 Red. masses --     4.3806                 5.6056                 6.4432
 Frc consts  --     0.0521                 0.0845                 0.1246
 IR Inten    --     0.2476                 0.6542                 1.0609
 Raman Activ --     0.3907                 0.3938                 0.3463

                    16                     17                     18
                     A                      A                      A
 Frequencies --   193.4334               224.8542               238.1097
 Red. masses --     4.1958                 5.1208                 6.1648
 Frc consts  --     0.0925                 0.1525                 0.2059
 IR Inten    --     4.5034                 1.6344                 2.2907
 Raman Activ --     0.1297                 1.0740                 3.0175

                    19                     20                     21
                     A                      A                      A
 Frequencies --   258.9910               276.7569               290.5911
 Red. masses --     5.8417                 5.0257                 5.3574
 Frc consts  --     0.2309                 0.2268                 0.2665
 IR Inten    --     7.3425                 0.2478                 5.2795
 Raman Activ --     1.1100                 1.6700                 0.1861

                    22                     23                     24
                     A                      A                      A
 Frequencies --   300.6152               313.2508               326.9190
 Red. masses --     5.6966                 4.7772                 3.9284
 Frc consts  --     0.3033                 0.2762                 0.2474
 IR Inten    --     0.0396                 3.6745                26.7484
 Raman Activ --     0.8742                 2.3348                 0.2508

                    25                     26                     27
                     A                      A                      A
 Frequencies --   350.6763               374.0508               378.1834
 Red. masses --     3.8298                 3.9188                 6.5447
 Frc consts  --     0.2775                 0.3230                 0.5515
 IR Inten    --     9.7358                 8.1608                 3.5796
 Raman Activ --     0.7017                 1.2489                 1.3779

                    28                     29                     30
                     A                      A                      A
 Frequencies --   405.7085               424.4044               459.0052
 Red. masses --     6.3139                 6.2465                 6.8563
 Frc consts  --     0.6123                 0.6629                 0.8511
 IR Inten    --     2.8417                 1.4270                 9.8775
 Raman Activ --     2.7252                 3.4713                 0.9462

                    31                     32                     33
                     A                      A                      A
 Frequencies --   483.1485               490.8182               515.2293
 Red. masses --     5.6415                 3.6544                 5.7026
 Frc consts  --     0.7759                 0.5187                 0.8919
 IR Inten    --     1.2122                20.4199                 9.0887
 Raman Activ --     7.5817                 2.3974                 2.8264

                    34                     35                     36
                     A                      A                      A
 Frequencies --   524.4805               542.1766               570.4395
 Red. masses --     4.5447                 3.9512                 4.3270
 Frc consts  --     0.7366                 0.6843                 0.8296
 IR Inten    --     5.1564                52.9747                 8.3113
 Raman Activ --     4.2784                 1.0442                 1.8488

                    37                     38                     39
                     A                      A                      A
 Frequencies --   578.4538               603.8643               642.6387
 Red. masses --     3.6762                 3.3249                 1.0934
 Frc consts  --     0.7247                 0.7143                 0.2661
 IR Inten    --    49.6810                16.0949               117.4122
 Raman Activ --     0.7225                 0.4951                 1.5781

                    40                     41                     42
                     A                      A                      A
 Frequencies --   661.2770               682.0783               697.2822
 Red. masses --     3.8200                 1.7404                 1.3769
 Frc consts  --     0.9842                 0.4770                 0.3944
 IR Inten    --    17.3858                62.5106               154.8339
 Raman Activ --     0.6848                 1.3891                 4.5646

                    43                     44                     45
                     A                      A                      A
 Frequencies --   700.8253               713.8790               724.4152
 Red. masses --     1.2080                 1.4864                 1.6005
 Frc consts  --     0.3496                 0.4463                 0.4949
 IR Inten    --    48.7767                31.0677               169.1399
 Raman Activ --     2.3604                 2.0505                 0.6908

                    46                     47                     48
                     A                      A                      A
 Frequencies --   734.5727               777.2889               827.2997
 Red. masses --     1.1784                 1.2831                 2.4144
 Frc consts  --     0.3746                 0.4568                 0.9736
 IR Inten    --    50.1602                86.4066                10.7618
 Raman Activ --     1.3895                 0.4935                 2.6523

                    49                     50                     51
                     A                      A                      A
 Frequencies --   878.0982               883.9761               913.0341
 Red. masses --     2.7620                 2.9348                 3.1852
 Frc consts  --     1.2548                 1.3512                 1.5644
 IR Inten    --    11.5260                10.0761                34.1883
 Raman Activ --     4.1921                 2.6263                 1.7336

                    52                     53                     54
                     A                      A                      A
 Frequencies --   963.8077               967.8446              1002.6103
 Red. masses --     7.4701                 5.7276                 4.6599
 Frc consts  --     4.0884                 3.1610                 2.7599
 IR Inten    --   317.1748                 7.4616               156.7412
 Raman Activ --     1.9949                 1.7814                 1.2407

                    55                     56                     57
                     A                      A                      A
 Frequencies --  1003.4043              1007.0387              1028.5407
 Red. masses --     3.5689                 5.7471                 4.0069
 Frc consts  --     2.1171                 3.4339                 2.4975
 IR Inten    --    30.6764               187.2306               365.0338
 Raman Activ --     4.5875                 2.0780                 4.5590

                    58                     59                     60
                     A                      A                      A
 Frequencies --  1042.6815              1044.5656              1058.4599
 Red. masses --     3.3587                 4.7961                 4.7516
 Frc consts  --     2.1514                 3.0833                 3.1364
 IR Inten    --   107.9842               147.2666                21.9621
 Raman Activ --     1.1685                 4.4043                 4.7399

                    61                     62                     63
                     A                      A                      A
 Frequencies --  1074.7614              1077.6483              1095.3609
 Red. masses --     2.5703                 2.6916                 3.4037
 Frc consts  --     1.7493                 1.8417                 2.4061
 IR Inten    --    49.7896                11.1194                90.8331
 Raman Activ --    11.0131                 2.1924                 4.9062

                    64                     65                     66
                     A                      A                      A
 Frequencies --  1100.2270              1104.4012              1108.2010
 Red. masses --     2.4888                 4.5730                 3.4787
 Frc consts  --     1.7750                 3.2863                 2.5171
 IR Inten    --    26.1884               159.5017                41.9731
 Raman Activ --     3.6623                 2.4964                14.3111

                    67                     68                     69
                     A                      A                      A
 Frequencies --  1125.8518              1132.0662              1140.6347
 Red. masses --     2.4979                 1.9416                 2.4823
 Frc consts  --     1.8654                 1.4661                 1.9028
 IR Inten    --    25.0971                19.8754                35.0557
 Raman Activ --     4.4925                 1.2752                 2.2559

                    70                     71                     72
                     A                      A                      A
 Frequencies --  1145.0579              1154.2544              1164.7271
 Red. masses --     2.5988                 2.0003                 2.7857
 Frc consts  --     2.0076                 1.5702                 2.2266
 IR Inten    --    17.9254                22.4826                16.7396
 Raman Activ --     6.9048                 1.2775                 3.0540

                    73                     74                     75
                     A                      A                      A
 Frequencies --  1175.7009              1180.0164              1208.6330
 Red. masses --     1.9499                 2.2482                 1.7389
 Frc consts  --     1.5880                 1.8444                 1.4967
 IR Inten    --    63.0825                18.0406                 7.8906
 Raman Activ --     1.7906                 2.9440                 3.6424

                    76                     77                     78
                     A                      A                      A
 Frequencies --  1214.1566              1219.3167              1224.5183
 Red. masses --     1.8441                 1.9082                 1.3886
 Frc consts  --     1.6017                 1.6715                 1.2267
 IR Inten    --    12.9337                12.7817                 3.3986
 Raman Activ --     2.4501                 1.5875                 3.0221

                    79                     80                     81
                     A                      A                      A
 Frequencies --  1246.3416              1256.1927              1270.5014
 Red. masses --     1.3588                 1.1517                 1.4101
 Frc consts  --     1.2436                 1.0708                 1.3410
 IR Inten    --     8.5805                43.1255                 4.4883
 Raman Activ --     1.4648                 5.0356                 1.7633

                    82                     83                     84
                     A                      A                      A
 Frequencies --  1277.2137              1281.1659              1296.8479
 Red. masses --     1.2843                 1.2514                 1.2252
 Frc consts  --     1.2343                 1.2102                 1.2141
 IR Inten    --    17.4048                13.2791                13.7535
 Raman Activ --     2.7815                 3.2798                 0.6677

                    85                     86                     87
                     A                      A                      A
 Frequencies --  1312.1827              1325.7451              1336.2297
 Red. masses --     1.2515                 1.1993                 1.2474
 Frc consts  --     1.2696                 1.2419                 1.3123
 IR Inten    --     9.3714                 2.5241                39.7725
 Raman Activ --     0.8620                 8.1754                 3.3999

                    88                     89                     90
                     A                      A                      A
 Frequencies --  1342.3082              1348.5900              1353.2041
 Red. masses --     1.2459                 1.3788                 1.3269
 Frc consts  --     1.3227                 1.4775                 1.4316
 IR Inten    --    17.1780                18.1501                 3.7965
 Raman Activ --     2.7399                 1.9131                 8.1469

                    91                     92                     93
                     A                      A                      A
 Frequencies --  1356.8560              1359.0823              1364.0059
 Red. masses --     1.2609                 1.2199                 1.3346
 Frc consts  --     1.3678                 1.3276                 1.4630
 IR Inten    --     5.0056                41.6751                38.1644
 Raman Activ --     6.5081                 2.3976                 7.3752

                    94                     95                     96
                     A                      A                      A
 Frequencies --  1370.5488              1394.8170              1396.3872
 Red. masses --     1.2938                 1.3261                 1.3992
 Frc consts  --     1.4319                 1.5201                 1.6075
 IR Inten    --     8.1139                 2.8708                 3.1645
 Raman Activ --     0.6549                14.7436                 1.1032

                    97                     98                     99
                     A                      A                      A
 Frequencies --  1407.7772              1410.0455              1412.2291
 Red. masses --     1.3048                 1.2127                 1.4223
 Frc consts  --     1.5235                 1.4205                 1.6713
 IR Inten    --    15.6536                12.8659                45.5257
 Raman Activ --     2.7492                 4.3973                 2.2928

                   100                    101                    102
                     A                      A                      A
 Frequencies --  1416.8312              1420.6810              1426.0542
 Red. masses --     1.6658                 1.5327                 1.3396
 Frc consts  --     1.9703                 1.8226                 1.6051
 IR Inten    --     3.0875                38.9000                37.4630
 Raman Activ --     4.3207                 1.4345                 8.6879

                   103                    104                    105
                     A                      A                      A
 Frequencies --  1432.3682              1460.1850              1463.4645
 Red. masses --     1.3211                 1.0906                 1.1031
 Frc consts  --     1.5969                 1.3701                 1.3920
 IR Inten    --     7.1091                 2.1689                 7.3108
 Raman Activ --     4.0998                 5.1343                 4.6355

                   106                    107                    108
                     A                      A                      A
 Frequencies --  1501.9159              1536.7702              3256.6947
 Red. masses --     1.2994                 1.1301                 1.0788
 Frc consts  --     1.7270                 1.5724                 6.7411
 IR Inten    --    25.8696                94.4247                 9.3484
 Raman Activ --     1.7825                 2.4363                15.9741

                   109                    110                    111
                     A                      A                      A
 Frequencies --  3271.8308              3273.7227              3281.5125
 Red. masses --     1.0815                 1.0787                 1.0677
 Frc consts  --     6.8212                 6.8111                 6.7738
 IR Inten    --     5.8270                 0.7424                27.4899
 Raman Activ --    44.8707                49.3395               169.4454

                   112                    113                    114
                     A                      A                      A
 Frequencies --  3283.6227              3286.0831              3288.0262
 Red. masses --     1.0752                 1.0741                 1.0831
 Frc consts  --     6.8306                 6.8337                 6.8993
 IR Inten    --    44.3145                 4.4256                 0.5666
 Raman Activ --    33.4597                36.3228               112.5595

                   115                    116                    117
                     A                      A                      A
 Frequencies --  3292.5122              3300.5988              3305.7114
 Red. masses --     1.0808                 1.0853                 1.0862
 Frc consts  --     6.9035                 6.9659                 6.9933
 IR Inten    --    20.0150                16.0146                32.3960
 Raman Activ --   157.2074                83.2696                 4.2025

                   118                    119                    120
                     A                      A                      A
 Frequencies --  3309.9589              3320.4903              3329.0489
 Red. masses --     1.0853                 1.0871                 1.1021
 Frc consts  --     7.0056                 7.0617                 7.1963
 IR Inten    --    66.3286                43.6337                47.7432
 Raman Activ --    21.3183                14.8853                49.7917

                   121                    122                    123
                     A                      A                      A
 Frequencies --  3351.4458              3377.1683              3387.3130
 Red. masses --     1.1053                 1.0687                 1.0655
 Frc consts  --     7.3149                 7.1812                 7.2027
 IR Inten    --    26.1628               166.8891                28.8445
 Raman Activ --    74.5497               110.9078               109.5398

                   124                    125                    126
                     A                      A                      A
 Frequencies --  3389.4080              3390.7396              3396.0768
 Red. masses --     1.0669                 1.0652                 1.0674
 Frc consts  --     7.2213                 7.2156                 7.2535
 IR Inten    --   208.2782                32.2114                62.6449
 Raman Activ --   165.0680                32.4599               110.2473

                   127                    128                    129
                     A                      A                      A
 Frequencies --  3396.4345              3905.5352              3917.3197
 Red. masses --     1.0694                 1.0673                 1.0671
 Frc consts  --     7.2683                 9.5921                 9.6482
 IR Inten    --    31.7318                43.3010                57.1577
 Raman Activ --    65.6994               118.5040               144.3185

 - Thermochemistry -
 -------------------
 Temperature   298.150 Kelvin.  Pressure   1.00000 Atm.
 Atom     1 has atomic number  8 and mass  15.99491

 Molecular mass:   342.11621 amu.
 Principal axes and moments of inertia in atomic units:
                           1         2         3
     Eigenvalues --  4506.61951********************
           X            0.99999  -0.00249  -0.00446
           Y            0.00253   0.99996   0.00868
           Z            0.00444  -0.00869   0.99995
 This molecule is an asymmetric top.
 Rotational symmetry number  1.
 Warning -- assumption of classical behavior for rotation
           may cause significant error
 Rotational temperatures (Kelvin)      0.01922     0.00745     0.00556
 Rotational constants (GHZ):           0.40046     0.15532     0.11593
    6 imaginary frequencies ignored.
 Zero-point vibrational energy     979430.6 (Joules/Mol)
                                  234.08954 (Kcal/Mol)
 Warning -- explicit consideration of  32 degrees of freedom as
           vibrations may cause significant error
 Vibrational temperatures:     55.39    74.45    86.37   117.80   142.05
          (Kelvin)            173.97   204.33   230.13   260.63   278.31
                              323.51   342.59   372.63   398.19   418.10
                              432.52   450.70   470.36   504.54   538.17
                              544.12   583.72   610.62   660.41   695.14
                              706.18   741.30   754.61   780.07   820.73
                              832.26   868.82   924.61   951.43   981.36
                             1003.23  1008.33  1027.11  1042.27  1056.88
                             1118.34  1190.30  1263.39  1271.84  1313.65
                             1386.70  1392.51  1442.53  1443.67  1448.90
                             1479.84  1500.18  1502.89  1522.89  1546.34
                             1550.49  1575.98  1582.98  1588.99  1594.45
                             1619.85  1628.79  1641.12  1647.48  1660.71
                             1675.78  1691.57  1697.78  1738.95  1746.90
                             1754.32  1761.81  1793.21  1807.38  1827.97
                             1837.62  1843.31  1865.87  1887.94  1907.45
                             1922.53  1931.28  1940.32  1946.96  1952.21
                             1955.41  1962.50  1971.91  2006.83  2009.09
                             2025.47  2028.74  2031.88  2038.50  2044.04
                             2051.77  2060.86  2100.88  2105.60  2160.92
                             2211.07  4685.65  4707.43  4710.15  4721.36
                             4724.39  4727.93  4730.73  4737.18  4748.82
                             4756.18  4762.29  4777.44  4789.75  4821.98
                             4858.99  4873.58  4876.60  4878.51  4886.19
                             4886.71  5619.19  5636.14

 Zero-point correction=                           0.373045 (Hartree/Particle)
 Thermal correction to Energy=                    0.392282
 Thermal correction to Enthalpy=                  0.393226
 Thermal correction to Gibbs Free Energy=         0.325817
 Sum of electronic and zero-point Energies=          -1297.553277
 Sum of electronic and thermal Energies=             -1297.534041
 Sum of electronic and thermal Enthalpies=           -1297.533097
 Sum of electronic and thermal Free Energies=        -1297.600506

                     E (Thermal)             CV                S
                      KCal/Mol        Cal/Mol-Kelvin    Cal/Mol-Kelvin
 Total                  246.161             77.796            141.873
 Electronic               0.000              0.000              0.000
 Translational            0.889              2.981             43.384
 Rotational               0.889              2.981             35.054
 Vibrational            244.383             71.834             63.435
 Vibration     1          0.594              1.982              5.335
 Vibration     2          0.596              1.977              4.750
 Vibration     3          0.597              1.973              4.456
 Vibration     4          0.600              1.962              3.845
 Vibration     5          0.604              1.950              3.479
 Vibration     6          0.609              1.932              3.086
 Vibration     7          0.615              1.911              2.777
 Vibration     8          0.622              1.891              2.550
 Vibration     9          0.630              1.865              2.317
 Vibration    10          0.635              1.849              2.195
 Vibration    11          0.650              1.803              1.920
 Vibration    12          0.656              1.782              1.817
 Vibration    13          0.668              1.748              1.669
 Vibration    14          0.678              1.716              1.554
 Vibration    15          0.687              1.691              1.471
 Vibration    16          0.693              1.673              1.413
 Vibration    17          0.701              1.648              1.345
 Vibration    18          0.711              1.622              1.275
 Vibration    19          0.728              1.574              1.163
 Vibration    20          0.745              1.525              1.063
 Vibration    21          0.748              1.517              1.046
 Vibration    22          0.771              1.458              0.942
 Vibration    23          0.786              1.417              0.877
 Vibration    24          0.817              1.341              0.769
 Vibration    25          0.839              1.287              0.702
 Vibration    26          0.847              1.270              0.681
 Vibration    27          0.870              1.216              0.621
 Vibration    28          0.879              1.196              0.600
 Vibration    29          0.897              1.157              0.561
 Vibration    30          0.927              1.095              0.503
 Vibration    31          0.935              1.078              0.488
 Vibration    32          0.962              1.024              0.443

 Normal termination of Gaussian 09 at Thu Jan 21 18:53:38 2016.
