 Gaussian 09, Revision B.01,
 Gaussian 09:  EM64L-G09RevB.01 12-Aug-2010

 ------------------------------------------------
 # freq=raman b3lyp/6-31+g(d,p) geom=connectivity
 ------------------------------------------------

 ------------
 450 6000.com
 ------------
 Symbolic Z-matrix:
 Charge =  0 Multiplicity = 1

                         Standard orientation:
 ---------------------------------------------------------------------
 Center     Atomic      Atomic             Coordinates (Angstroms)
 Number     Number       Type             X           Y           Z
 ---------------------------------------------------------------------
      1          8           0        5.041708   -0.674284   -0.853244
      2          6           0        3.928720   -0.218250   -0.070853
      3          6           0        3.358019    1.156470   -0.376856
      4          8           0        4.303844    2.042899    0.237601
      5          1           0        5.234551    1.891915   -0.096010
      6          6           0        2.028870    1.681832    0.139921
      7          8           0        1.437717    2.872592   -0.401317
      8          1           0        2.152597    3.563052   -0.505590
      9          6           0        2.880229   -2.578024   -0.113994
     10          8           0        3.251602   -2.761277    1.259867
     11          1           0        3.495133   -3.727750    1.337635
     12          6           0        2.700849   -1.081284   -0.310031
     13          8           0        1.634590   -0.597331    0.520433
     14          6           0        1.025729    0.559682   -0.071299
     15          8           0       -0.221274    0.617454    0.634949
     16          6           0       -1.477206    0.426797   -0.033169
     17          6           0       -1.759481   -1.059037    0.118705
     18          8           0       -0.707753   -1.963453   -0.247309
     19          1           0        0.139295   -1.513088    0.033635
     20          6           0       -3.141180   -1.421619   -0.401512
     21          8           0       -3.539825   -2.752226   -0.761243
     22          1           0       -3.096891   -2.913387   -1.644627
     23          6           0       -2.443868    2.496080    0.626353
     24          8           0       -2.505719    2.977870   -0.723639
     25          1           0       -1.929880    3.785065   -0.849919
     26          6           0       -2.679197    0.996537    0.703174
     27          8           0       -4.022406    0.635694    0.351410
     28          6           0       -4.295964   -0.772837    0.344886
     29          8           0       -5.543504   -0.630355   -0.349572
     30          1           0       -6.139299   -0.086709    0.171080
     31          1           0       -4.420225   -1.159540    1.334795
     32          1           0       -3.154952   -0.919768   -1.346423
     33          1           0       -1.843599   -1.192493    1.177012
     34          1           0       -1.446719    0.726277   -1.059952
     35          1           0       -2.559791    0.719749    1.729834
     36          1           0       -3.189511    2.995755    1.208798
     37          1           0       -1.478702    2.718182    1.031354
     38          1           0        5.860746   -0.452521   -0.404249
     39          1           0        1.962069   -3.088224   -0.317903
     40          1           0        3.654614   -2.942760   -0.756018
     41          1           0        2.404375   -0.931386   -1.327151
     42          1           0        4.190883   -0.263682    0.965538
     43          1           0        3.388829    1.304688   -1.436093
     44          1           0        2.133658    1.829999    1.194419
     45          1           0        0.857859    0.397882   -1.115588
 ---------------------------------------------------------------------

 SCF Done:  E(RB3LYP) =  -1297.88502533     A.U. after   14 cycles

 The electronic state is 1-A.
 Alpha  occ. eigenvalues --  -19.20253 -19.19722 -19.19233 -19.18757 -19.18519
 Alpha  occ. eigenvalues --  -19.17198 -19.16898 -19.15898 -19.15589 -19.15343
 Alpha  occ. eigenvalues --  -19.14812 -10.32003 -10.29606 -10.26958 -10.26916
 Alpha  occ. eigenvalues --  -10.26794 -10.26365 -10.25333 -10.24589 -10.24560
 Alpha  occ. eigenvalues --  -10.24240 -10.23520 -10.22817  -1.10790  -1.07938
 Alpha  occ. eigenvalues --   -1.07265  -1.05474  -1.04550  -1.03811  -1.02852
 Alpha  occ. eigenvalues --   -1.02141  -1.01351  -1.00425  -0.99264  -0.82759
 Alpha  occ. eigenvalues --   -0.81742  -0.79263  -0.77770  -0.72310  -0.69944
 Alpha  occ. eigenvalues --   -0.67923  -0.64831  -0.63500  -0.62333  -0.60999
 Alpha  occ. eigenvalues --   -0.59923  -0.57244  -0.56361  -0.55378  -0.54351
 Alpha  occ. eigenvalues --   -0.53617  -0.53493  -0.52804  -0.52399  -0.50676
 Alpha  occ. eigenvalues --   -0.50161  -0.49914  -0.48888  -0.48213  -0.46571
 Alpha  occ. eigenvalues --   -0.46110  -0.45223  -0.44510  -0.43473  -0.43278
 Alpha  occ. eigenvalues --   -0.42483  -0.42266  -0.41173  -0.40001  -0.39323
 Alpha  occ. eigenvalues --   -0.38851  -0.37568  -0.37125  -0.36319  -0.35875
 Alpha  occ. eigenvalues --   -0.35292  -0.35162  -0.34376  -0.33890  -0.33539
 Alpha  occ. eigenvalues --   -0.32920  -0.31511  -0.31000  -0.30377  -0.29228
 Alpha  occ. eigenvalues --   -0.28865  -0.28521  -0.27563  -0.27484  -0.27024
 Alpha  occ. eigenvalues --   -0.25536
 Alpha virt. eigenvalues --   -0.03792  -0.01540  -0.00857  -0.00388   0.00711
 Alpha virt. eigenvalues --    0.01030   0.01226   0.02505   0.02745   0.03053
 Alpha virt. eigenvalues --    0.03571   0.04309   0.04470   0.04826   0.05794

 Mulliken atomic charges:
              1
     1  O   -0.534934
     2  C   -0.391225
     3  C    0.290343
     4  O   -0.543002
     5  H    0.342797
     6  C   -0.159656
     7  O   -0.520678
     8  H    0.368853
     9  C   -0.288994
    10  O   -0.550218
    11  H    0.354520
    12  C    0.591965
    13  O   -0.389519
    14  C    0.220771
    15  O   -0.367249
    16  C    0.111766
    17  C    0.136915
    18  O   -0.549692
    19  H    0.427934
    20  C   -0.285058
    21  O   -0.450617
    22  H    0.350165
    23  C   -0.295521
    24  O   -0.532483
    25  H    0.353788
    26  C   -0.038902
    27  O   -0.353981
    28  C    0.466248
    29  O   -0.481164
    30  H    0.351867
    31  H    0.126596
    32  H    0.134290
    33  H    0.115469
    34  H    0.167601
    35  H    0.132560
    36  H    0.127735
    37  H    0.153332
    38  H    0.359591
    39  H    0.150176
    40  H    0.146040
    41  H    0.122380
    42  H    0.176214
    43  H    0.154739
    44  H    0.162497
    45  H    0.135740
 Sum of Mulliken atomic charges =   0.00000

 Dipole moment (field-independent basis, Debye):
    X=              7.5873    Y=              2.0006    Z=             -0.1976  Tot=              7.8491
 Quadrupole moment (field-independent basis, Debye-Ang):
   XX=           -126.0049   YY=           -132.0252   ZZ=           -138.7395
   XY=             -7.6603   XZ=            -14.2232   YZ=              1.6412

  Exact polarizability: 225.059   0.946 189.971  -2.186   1.545 145.836
 Approx polarizability: 265.537  -0.549 246.427  -0.676   0.660 234.776

 ******    8 imaginary frequencies (negative Signs) ******

                     1                      2                      3
                     A                      A                      A
 Frequencies --  -388.2660              -226.7411              -148.1381
 Red. masses --     1.0831                 1.1859                 2.3935
 Frc consts  --     0.0962                 0.0359                 0.0309
 IR Inten    --   164.2078               115.1377                 8.1206
 Raman Activ --     2.4775                 1.0551                 0.1125

                     4                      5                      6
                     A                      A                      A
 Frequencies --  -130.3970              -117.0414               -80.9634
 Red. masses --     2.9587                 6.0010                 5.8451
 Frc consts  --     0.0296                 0.0484                 0.0226
 IR Inten    --     2.6561                 0.3173                 2.8791
 Raman Activ --     0.1790                 0.0532                 0.1220

                     7                      8                      9
                     A                      A                      A
 Frequencies --   -51.9156               -27.9910                32.5124
 Red. masses --     5.9757                 6.0364                 6.1757
 Frc consts  --     0.0095                 0.0028                 0.0038
 IR Inten    --     1.1081                 0.6364                 0.4379
 Raman Activ --     0.0213                 0.1222                 0.0445

                    10                     11                     12
                     A                      A                      A
 Frequencies --    67.2589                75.5926               109.0776
 Red. masses --     5.9491                 6.1918                 6.8287
 Frc consts  --     0.0159                 0.0208                 0.0479
 IR Inten    --     3.1041                 0.3760                 0.2083
 Raman Activ --     0.1107                 0.0100                 0.1951

                    13                     14                     15
                     A                      A                      A
 Frequencies --   131.3328               163.0709               175.9012
 Red. masses --     3.8833                 5.5817                 6.5471
 Frc consts  --     0.0395                 0.0875                 0.1194
 IR Inten    --     0.0560                 1.2525                 3.3830
 Raman Activ --     0.4491                 1.5045                 0.5686

                    16                     17                     18
                     A                      A                      A
 Frequencies --   202.2093               229.6559               234.7762
 Red. masses --     3.3068                 5.6671                 5.2127
 Frc consts  --     0.0797                 0.1761                 0.1693
 IR Inten    --     1.9727                 0.3070                 1.4088
 Raman Activ --     0.1620                 0.9331                 0.2711

                    19                     20                     21
                     A                      A                      A
 Frequencies --   248.5072               257.5034               272.9325
 Red. masses --     5.7690                 5.4064                 4.3473
 Frc consts  --     0.2099                 0.2112                 0.1908
 IR Inten    --     0.7934                 4.8498                11.4900
 Raman Activ --     0.4343                 2.3717                 0.5623

                    22                     23                     24
                     A                      A                      A
 Frequencies --   289.1591               300.5075               322.4750
 Red. masses --     4.6138                 5.9437                 4.8919
 Frc consts  --     0.2273                 0.3162                 0.2997
 IR Inten    --     2.1742                 0.4948                10.7439
 Raman Activ --     0.6389                 0.9641                 1.1691

                    25                     26                     27
                     A                      A                      A
 Frequencies --   332.9071               369.6470               373.3951
 Red. masses --     6.5350                 6.2366                 5.5249
 Frc consts  --     0.4267                 0.5021                 0.4539
 IR Inten    --    12.7366                15.4832                 0.6829
 Raman Activ --     3.9374                 2.7655                 1.6130

                    28                     29                     30
                     A                      A                      A
 Frequencies --   410.9945               420.0210               455.0020
 Red. masses --     4.9673                 4.9548                 3.9114
 Frc consts  --     0.4944                 0.5150                 0.4771
 IR Inten    --     9.1920                 7.5229                 1.8241
 Raman Activ --     1.4439                 3.7009                 0.7553

                    31                     32                     33
                     A                      A                      A
 Frequencies --   461.3032               501.8388               529.3772
 Red. masses --     6.4458                 5.1764                 5.0668
 Frc consts  --     0.8082                 0.7681                 0.8366
 IR Inten    --    17.6394                13.5446                16.0256
 Raman Activ --     1.1615                 9.4937                 3.7619

                    34                     35                     36
                     A                      A                      A
 Frequencies --   554.1286               558.9800               568.6063
 Red. masses --     3.6511                 3.8749                 3.3097
 Frc consts  --     0.6605                 0.7134                 0.6305
 IR Inten    --     3.3824                29.6532                29.5783
 Raman Activ --     1.0467                 0.6562                 1.0022

                    37                     38                     39
                     A                      A                      A
 Frequencies --   586.4327               592.1697               651.3056
 Red. masses --     6.1353                 3.5256                 1.8749
 Frc consts  --     1.2431                 0.7284                 0.4686
 IR Inten    --    27.8420                10.3217                60.2435
 Raman Activ --     2.7915                 0.8722                 1.3252

                    40                     41                     42
                     A                      A                      A
 Frequencies --   659.6728               699.3935               704.5980
 Red. masses --     1.9271                 1.7006                 1.2327
 Frc consts  --     0.4941                 0.4901                 0.3606
 IR Inten    --    86.3365                42.6198                96.0470
 Raman Activ --     0.6359                 1.6932                 1.4441

                    43                     44                     45
                     A                      A                      A
 Frequencies --   709.9859               717.9849               718.7803
 Red. masses --     1.5232                 2.1714                 1.1558
 Frc consts  --     0.4524                 0.6595                 0.3518
 IR Inten    --    55.3649                40.3188                99.3815
 Raman Activ --     1.3111                 1.4865                 1.1884

                    46                     47                     48
                     A                      A                      A
 Frequencies --   733.0838               833.5531               852.5204
 Red. masses --     1.1010                 1.0774                 2.6001
 Frc consts  --     0.3486                 0.4411                 1.1134
 IR Inten    --   111.6989                50.8698                15.2283
 Raman Activ --     2.3125                 0.3764                 5.2696

                    49                     50                     51
                     A                      A                      A
 Frequencies --   877.9210               909.6174               919.3304
 Red. masses --     2.6644                 2.8304                 2.4571
 Frc consts  --     1.2099                 1.3798                 1.2236
 IR Inten    --    12.6721                24.1822                 9.5729
 Raman Activ --     4.3878                 3.1002                 1.7030

                    52                     53                     54
                     A                      A                      A
 Frequencies --   943.8147               947.7618               995.1287
 Red. masses --     5.8534                 5.4562                 3.5813
 Frc consts  --     3.0721                 2.8876                 2.0895
 IR Inten    --   248.2983                 9.9684                41.4553
 Raman Activ --     3.9742                 1.7519                 6.9825

                    55                     56                     57
                     A                      A                      A
 Frequencies --   999.4679              1020.6074              1033.7670
 Red. masses --     5.0388                 4.4502                 4.8538
 Frc consts  --     2.9656                 2.7311                 3.0562
 IR Inten    --    46.4984               515.7622                99.7580
 Raman Activ --     2.9802                 2.6936                 0.6548

                    58                     59                     60
                     A                      A                      A
 Frequencies --  1043.6600              1047.3122              1057.6062
 Red. masses --     3.4079                 4.8008                 4.0049
 Frc consts  --     2.1870                 3.1026                 2.6393
 IR Inten    --    14.6379                22.3881               232.3458
 Raman Activ --     3.3131                 7.4714                 2.5994

                    61                     62                     63
                     A                      A                      A
 Frequencies --  1059.1650              1075.0079              1078.9171
 Red. masses --     4.2611                 2.4726                 5.0876
 Frc consts  --     2.8165                 1.6836                 3.4893
 IR Inten    --    95.4622                14.0963                67.0666
 Raman Activ --     8.1820                 2.8970                 1.6306

                    64                     65                     66
                     A                      A                      A
 Frequencies --  1087.3284              1104.1643              1114.7157
 Red. masses --     3.7619                 3.1728                 2.4359
 Frc consts  --     2.6205                 2.2791                 1.7834
 IR Inten    --    41.2426                11.3547                41.1898
 Raman Activ --    12.2669                 7.3712                 2.6177

                    67                     68                     69
                     A                      A                      A
 Frequencies --  1123.5355              1126.0058              1130.5663
 Red. masses --     2.1537                 2.4902                 2.5492
 Frc consts  --     1.6018                 1.8603                 1.9198
 IR Inten    --    85.5644                48.8327                18.5464
 Raman Activ --     2.2845                 3.0678                 4.6487

                    70                     71                     72
                     A                      A                      A
 Frequencies --  1147.2461              1154.6556              1159.7764
 Red. masses --     1.9478                 2.2094                 2.2898
 Frc consts  --     1.5104                 1.7355                 1.8147
 IR Inten    --    10.8538                24.2698                11.5521
 Raman Activ --     3.6689                 3.9018                 2.9273

                    73                     74                     75
                     A                      A                      A
 Frequencies --  1170.8908              1178.0530              1182.9869
 Red. masses --     1.9312                 1.5803                 1.5571
 Frc consts  --     1.5599                 1.2922                 1.2839
 IR Inten    --    52.3882                 4.5013                34.7605
 Raman Activ --     2.5379                 3.6702                 1.0924

                    76                     77                     78
                     A                      A                      A
 Frequencies --  1204.2711              1216.6997              1223.8917
 Red. masses --     1.5074                 2.1864                 1.3004
 Frc consts  --     1.2880                 1.9070                 1.1476
 IR Inten    --    10.2070                93.5999                10.5783
 Raman Activ --     0.7702                 3.8632                 4.3267

                    79                     80                     81
                     A                      A                      A
 Frequencies --  1226.3569              1246.2935              1252.6531
 Red. masses --     1.7315                 1.2806                 1.1775
 Frc consts  --     1.5343                 1.1719                 1.0886
 IR Inten    --     1.7589                 7.5722                20.7567
 Raman Activ --     2.3685                 3.8171                 7.2922

                    82                     83                     84
                     A                      A                      A
 Frequencies --  1256.9696              1265.3223              1277.3132
 Red. masses --     1.2142                 1.3483                 1.3579
 Frc consts  --     1.1303                 1.2719                 1.3053
 IR Inten    --     8.9223                10.5577                16.0122
 Raman Activ --     4.2436                 3.2667                 4.0790

                    85                     86                     87
                     A                      A                      A
 Frequencies --  1295.8768              1301.8949              1307.7091
 Red. masses --     1.4108                 1.2984                 1.2201
 Frc consts  --     1.3959                 1.2966                 1.2294
 IR Inten    --    17.6262                44.6978                24.5198
 Raman Activ --     4.4651                 2.0704                 2.0739

                    88                     89                     90
                     A                      A                      A
 Frequencies --  1318.8403              1319.4405              1342.5524
 Red. masses --     1.3082                 1.3574                 1.1955
 Frc consts  --     1.3407                 1.3923                 1.2696
 IR Inten    --    47.5382                18.1340                43.7765
 Raman Activ --     2.2958                 2.8766                10.9045

                    91                     92                     93
                     A                      A                      A
 Frequencies --  1345.8981              1350.7785              1354.7968
 Red. masses --     1.2460                 1.2439                 1.4019
 Frc consts  --     1.3298                 1.3372                 1.5160
 IR Inten    --    28.6692                16.3304                14.0318
 Raman Activ --     4.8245                 1.9178                 6.9459

                    94                     95                     96
                     A                      A                      A
 Frequencies --  1378.7394              1381.2220              1390.4413
 Red. masses --     1.3914                 1.3627                 1.5159
 Frc consts  --     1.5583                 1.5317                 1.7268
 IR Inten    --    26.5885                 4.2512                12.5220
 Raman Activ --     6.7085                 1.2227                10.6723

                    97                     98                     99
                     A                      A                      A
 Frequencies --  1395.1018              1414.4451              1420.9568
 Red. masses --     1.4542                 1.1441                 1.6009
 Frc consts  --     1.6676                 1.3486                 1.9045
 IR Inten    --     9.6816                15.8187                 8.9665
 Raman Activ --     1.1694                 1.4667                 3.8652

                   100                    101                    102
                     A                      A                      A
 Frequencies --  1426.3471              1435.1913              1439.3582
 Red. masses --     1.4268                 1.5335                 1.1680
 Frc consts  --     1.7102                 1.8611                 1.4257
 IR Inten    --    17.4024                47.2394                13.7959
 Raman Activ --     2.1510                 2.1678                 2.6806

                   103                    104                    105
                     A                      A                      A
 Frequencies --  1462.9866              1469.7094              1473.0534
 Red. masses --     1.4138                 1.1081                 1.0764
 Frc consts  --     1.7829                 1.4103                 1.3761
 IR Inten    --    26.6844                15.7595                 9.7854
 Raman Activ --     0.8477                 5.5757                 7.0117

                   106                    107                    108
                     A                      A                      A
 Frequencies --  1489.2532              1512.3916              3246.2480
 Red. masses --     1.3062                 1.2657                 1.0798
 Frc consts  --     1.7069                 1.7058                 6.7046
 IR Inten    --    22.3221                38.0620                27.2883
 Raman Activ --     4.9904                 1.9592                88.7477

                   109                    110                    111
                     A                      A                      A
 Frequencies --  3262.0406              3272.7335              3274.8695
 Red. masses --     1.0842                 1.0608                 1.0635
 Frc consts  --     6.7973                 6.6942                 6.7198
 IR Inten    --    33.1662                24.8701                12.5411
 Raman Activ --    15.2252                99.3883                58.9541

                   112                    113                    114
                     A                      A                      A
 Frequencies --  3284.6901              3287.3669              3290.8486
 Red. masses --     1.0755                 1.0800                 1.0830
 Frc consts  --     6.8368                 6.8766                 6.9100
 IR Inten    --    18.7531                46.7998                16.1907
 Raman Activ --    35.7018               127.2735               104.8681

                   115                    116                    117
                     A                      A                      A
 Frequencies --  3297.7882              3307.8344              3311.3622
 Red. masses --     1.0838                 1.0860                 1.0823
 Frc consts  --     6.9443                 7.0009                 6.9919
 IR Inten    --    34.8527                65.8946               121.5668
 Raman Activ --    75.0651               115.9999                43.6258

                   118                    119                    120
                     A                      A                      A
 Frequencies --  3315.7573              3320.9566              3323.9092
 Red. masses --     1.0755                 1.0858                 1.0849
 Frc consts  --     6.9667                 7.0554                 7.0619
 IR Inten    --   360.1960                51.9545               116.1192
 Raman Activ --   124.7277                19.2300                40.2310

                   121                    122                    123
                     A                      A                      A
 Frequencies --  3332.7662              3340.8493              3379.2894
 Red. masses --     1.1073                 1.1110                 1.0665
 Frc consts  --     7.2462                 7.3059                 7.1758
 IR Inten    --    29.8041                14.2667                16.5071
 Raman Activ --    57.6150                52.8456               161.3611

                   124                    125                    126
                     A                      A                      A
 Frequencies --  3380.6169              3394.2183              3396.7225
 Red. masses --     1.0669                 1.0665                 1.0684
 Frc consts  --     7.1839                 7.2392                 7.2625
 IR Inten    --    35.7669                29.9784                35.7651
 Raman Activ --    72.9792               151.4103               106.6006

                   127                    128                    129
                     A                      A                      A
 Frequencies --  3407.2754              3912.9359              3918.5241
 Red. masses --     1.0662                 1.0675                 1.0668
 Frc consts  --     7.2928                 9.6303                 9.6514
 IR Inten    --    40.5701                57.4859                73.7865
 Raman Activ --   127.6057               127.7113               116.0045

 - Thermochemistry -
 -------------------
 Temperature   298.150 Kelvin.  Pressure   1.00000 Atm.
 Atom     1 has atomic number  8 and mass  15.99491

 Molecular mass:   342.11621 amu.
 Principal axes and moments of inertia in atomic units:
                           1         2         3
     Eigenvalues --  4205.34483********************
           X            0.99998  -0.00587  -0.00351
           Y            0.00588   0.99997   0.00420
           Z            0.00348  -0.00422   0.99999
 This molecule is an asymmetric top.
 Rotational symmetry number  1.
 Warning -- assumption of classical behavior for rotation
           may cause significant error
 Rotational temperatures (Kelvin)      0.02060     0.00693     0.00546
 Rotational constants (GHZ):           0.42915     0.14447     0.11378
    8 imaginary frequencies ignored.
 Zero-point vibrational energy     976472.9 (Joules/Mol)
                                  233.38263 (Kcal/Mol)
 Warning -- explicit consideration of  30 degrees of freedom as
           vibrations may cause significant error
 Vibrational temperatures:     46.78    96.77   108.76   156.94   188.96
          (Kelvin)            234.62   253.08   290.93   330.42   337.79
                              357.55   370.49   392.69   416.03   432.36
                              463.97   478.98   531.84   537.23   591.33
                              604.32   654.65   663.71   722.03   761.65
                              797.27   804.25   818.10   843.74   852.00
                              937.08   949.12  1006.27  1013.76  1021.51
                             1033.02  1034.16  1054.74  1199.30  1226.59
                             1263.13  1308.73  1322.71  1357.94  1363.62
                             1431.77  1438.01  1468.42  1487.36  1501.59
                             1506.85  1521.66  1523.90  1546.69  1552.32
                             1564.42  1588.64  1603.83  1616.51  1620.07
                             1626.63  1650.63  1661.29  1668.66  1684.65
                             1694.95  1702.05  1732.68  1750.56  1760.91
                             1764.45  1793.14  1802.29  1808.50  1820.51
                             1837.77  1864.48  1873.13  1881.50  1897.51
                             1898.38  1931.63  1936.44  1943.47  1949.25
                             1983.70  1987.27  2000.53  2007.24  2035.07
                             2044.44  2052.19  2064.92  2070.91  2104.91
                             2114.58  2119.39  2142.70  2175.99  4670.62
                             4693.34  4708.73  4711.80  4725.93  4729.78
                             4734.79  4744.78  4759.23  4764.31  4770.63
                             4778.11  4782.36  4795.10  4806.73  4862.04
                             4863.95  4883.52  4887.12  4902.30  5629.83
                             5637.88

 Zero-point correction=                           0.371919 (Hartree/Particle)
 Thermal correction to Energy=                    0.389710
 Thermal correction to Enthalpy=                  0.390654
 Thermal correction to Gibbs Free Energy=         0.326680
 Sum of electronic and zero-point Energies=          -1297.513106
 Sum of electronic and thermal Energies=             -1297.495316
 Sum of electronic and thermal Enthalpies=           -1297.494371
 Sum of electronic and thermal Free Energies=        -1297.558346

                     E (Thermal)             CV                S
                      KCal/Mol        Cal/Mol-Kelvin    Cal/Mol-Kelvin
 Total                  244.546             73.972            134.645
 Electronic               0.000              0.000              0.000
 Translational            0.889              2.981             43.384
 Rotational               0.889              2.981             35.076
 Vibrational            242.769             68.010             56.185
 Vibration     1          0.594              1.983              5.670
 Vibration     2          0.598              1.970              4.232
 Vibration     3          0.599              1.965              4.002
 Vibration     4          0.606              1.942              3.285
 Vibration     5          0.612              1.922              2.926
 Vibration     6          0.623              1.888              2.514
 Vibration     7          0.628              1.872              2.371
 Vibration     8          0.639              1.837              2.113
 Vibration     9          0.652              1.796              1.882
 Vibration    10          0.655              1.788              1.842
 Vibration    11          0.662              1.765              1.741
 Vibration    12          0.667              1.750              1.679
 Vibration    13          0.676              1.723              1.578
 Vibration    14          0.686              1.694              1.479
 Vibration    15          0.693              1.673              1.414
 Vibration    16          0.707              1.630              1.298
 Vibration    17          0.715              1.610              1.246
 Vibration    18          0.742              1.535              1.081
 Vibration    19          0.745              1.527              1.066
 Vibration    20          0.775              1.446              0.923
 Vibration    21          0.783              1.427              0.892
 Vibration    22          0.813              1.350              0.781
 Vibration    23          0.819              1.336              0.762
 Vibration    24          0.857              1.246              0.654
 Vibration    25          0.884              1.185              0.589
 Vibration    26          0.910              1.131              0.536
 Vibration    27          0.915              1.120              0.526
 Vibration    28          0.925              1.099              0.507
 Vibration    29          0.944              1.061              0.474
 Vibration    30          0.950              1.048              0.463

 Normal termination of Gaussian 09 at Thu Jan 21 18:19:15 2016.
