 Gaussian 09, Revision B.01,
 Gaussian 09:  EM64L-G09RevB.01 12-Aug-2010

 -------------------------------------------------
 # freq=raman b3lyp/6-31+g(2d,p) geom=connectivity
 -------------------------------------------------

 -----------------
 310 8322/8322.com
 -----------------
 Symbolic Z-matrix:
 Charge =  0 Multiplicity = 1

                         Standard orientation:
 ---------------------------------------------------------------------
 Center     Atomic      Atomic             Coordinates (Angstroms)
 Number     Number       Type             X           Y           Z
 ---------------------------------------------------------------------
      1          8           0       -5.121238   -0.253998    0.479557
      2          6           0       -3.856179   -0.074068   -0.174841
      3          6           0       -3.262700    1.254057    0.264855
      4          8           0       -3.988604    2.400819   -0.201508
      5          1           0       -4.952234    2.229397    0.006151
      6          6           0       -1.816705    1.431792   -0.170135
      7          8           0       -1.347868    2.642926    0.440228
      8          1           0       -0.519545    2.934961   -0.038393
      9          6           0       -3.251791   -2.496212   -0.260220
     10          8           0       -4.456571   -3.091256    0.241622
     11          1           0       -4.288703   -4.065679    0.391884
     12          6           0       -2.803067   -1.112026    0.177431
     13          8           0       -1.461463   -0.923398   -0.296772
     14          6           0       -0.849182    0.299909    0.135135
     15          8           0        0.402722    0.572508   -0.510756
     16          6           0        1.616574    0.241652    0.179569
     17          6           0        2.012501   -1.126790   -0.350737
     18          8           0        1.060569   -2.159889   -0.057388
     19          1           0        0.136612   -1.826771   -0.248624
     20          6           0        3.383973   -1.551331    0.147055
     21          8           0        3.841699   -2.723639   -0.542253
     22          1           0        4.755113   -2.891494   -0.170986
     23          6           0        2.397436    2.670306    0.134685
     24          8           0        1.326280    3.279125   -0.601431
     25          1           0        1.346953    4.253412   -0.373445
     26          6           0        2.728841    1.217796   -0.165832
     27          8           0        4.000514    0.875044    0.403294
     28          6           0        4.380583   -0.424417   -0.071885
     29          8           0        5.432974   -0.812242    0.824076
     30          1           0        6.195961   -1.098545    0.316650
     31          1           0        3.281048    3.248101   -0.039334
     32          1           0        2.157960    2.740582    1.175171
     33          1           0        2.853416    1.156445   -1.226783
     34          1           0        1.455234    0.206452    1.236750
     35          1           0        2.072977   -1.046119   -1.415977
     36          1           0        3.323655   -1.764363    1.193898
     37          1           0        4.724891   -0.391586   -1.084443
     38          1           0       -5.805733   -0.391239   -0.179406
     39          1           0       -2.453553   -3.168742   -0.024809
     40          1           0       -3.340928   -2.469610   -1.326169
     41          1           0       -2.745749   -1.130886    1.245729
     42          1           0       -4.003374   -0.063552   -1.234616
     43          1           0       -3.282172    1.274097    1.334490
     44          1           0       -1.814718    1.579165   -1.229936
     45          1           0       -0.690915    0.253975    1.192368
 ---------------------------------------------------------------------

 SCF Done:  E(RB3LYP) =  -1297.99028123     A.U. after   13 cycles

 The electronic state is 1-A.
 Alpha  occ. eigenvalues --  -19.19086 -19.18674 -19.18455 -19.18412 -19.17782
 Alpha  occ. eigenvalues --  -19.17235 -19.16443 -19.16375 -19.15129 -19.13765
 Alpha  occ. eigenvalues --  -19.13746 -10.30679 -10.30517 -10.26187 -10.25893
 Alpha  occ. eigenvalues --  -10.25674 -10.25303 -10.25135 -10.24279 -10.24063
 Alpha  occ. eigenvalues --  -10.23952 -10.23897 -10.23655  -1.09936  -1.09419
 Alpha  occ. eigenvalues --   -1.05572  -1.05022  -1.04491  -1.03982  -1.02787
 Alpha  occ. eigenvalues --   -1.02604  -1.02245  -1.00408  -0.99977  -0.82492
 Alpha  occ. eigenvalues --   -0.80781  -0.78889  -0.78086  -0.71912  -0.69794
 Alpha  occ. eigenvalues --   -0.67407  -0.65113  -0.63011  -0.62816  -0.61305
 Alpha  occ. eigenvalues --   -0.60071  -0.56521  -0.55474  -0.54944  -0.54793
 Alpha  occ. eigenvalues --   -0.53959  -0.53469  -0.52783  -0.51825  -0.51349
 Alpha  occ. eigenvalues --   -0.50824  -0.50082  -0.49557  -0.48445  -0.46467
 Alpha  occ. eigenvalues --   -0.45636  -0.45085  -0.44516  -0.43404  -0.43037
 Alpha  occ. eigenvalues --   -0.42446  -0.41624  -0.41307  -0.40272  -0.39746
 Alpha  occ. eigenvalues --   -0.39192  -0.38290  -0.37440  -0.36495  -0.35780
 Alpha  occ. eigenvalues --   -0.35349  -0.35233  -0.34952  -0.34070  -0.33648
 Alpha  occ. eigenvalues --   -0.32602  -0.31169  -0.30778  -0.30283  -0.29873
 Alpha  occ. eigenvalues --   -0.29484  -0.28846  -0.28642  -0.27704  -0.26741
 Alpha  occ. eigenvalues --   -0.26340
 Alpha virt. eigenvalues --   -0.02069  -0.01884  -0.01815  -0.00280   0.00597
 Alpha virt. eigenvalues --    0.01093   0.01948   0.02225   0.03357   0.03471
 Alpha virt. eigenvalues --    0.03680   0.04315   0.04852   0.05370   0.05500

 Mulliken atomic charges:
              1
     1  O   -0.525747
     2  C   -0.225299
     3  C    0.286295
     4  O   -0.554533
     5  H    0.335866
     6  C    0.009248
     7  O   -0.555504
     8  H    0.391639
     9  C   -0.277718
    10  O   -0.523922
    11  H    0.342264
    12  C    0.414818
    13  O   -0.275809
    14  C   -0.113406
    15  O   -0.238826
    16  C    0.171768
    17  C    0.177519
    18  O   -0.588365
    19  H    0.388081
    20  C    0.157908
    21  O   -0.529147
    22  H    0.321860
    23  C   -0.324130
    24  O   -0.540137
    25  H    0.353062
    26  C    0.104125
    27  O   -0.271626
    28  C    0.096785
    29  O   -0.534408
    30  H    0.332159
    31  H    0.147085
    32  H    0.153241
    33  H    0.122110
    34  H    0.120509
    35  H    0.123989
    36  H    0.140528
    37  H    0.143955
    38  H    0.342015
    39  H    0.139474
    40  H    0.142764
    41  H    0.114392
    42  H    0.123453
    43  H    0.126625
    44  H    0.131798
    45  H    0.123241
 Sum of Mulliken atomic charges =   0.00000

 Dipole moment (field-independent basis, Debye):
    X=              1.7447    Y=              0.1004    Z=             -1.2544  Tot=              2.1511
 Quadrupole moment (field-independent basis, Debye-Ang):
   XX=           -115.3560   YY=           -134.7583   ZZ=           -141.6689
   XY=             11.1345   XZ=              0.5204   YZ=             -1.7113

  Exact polarizability: 235.098  -1.516 196.583   0.707   0.509 144.087
 Approx polarizability: 275.858  -0.838 256.328   0.737   0.209 239.555

 ******    7 imaginary frequencies (negative Signs) ******

                     1                      2                      3
                     A                      A                      A
 Frequencies --  -299.3238              -263.6982              -239.9690
 Red. masses --     1.6558                 1.7817                 1.2447
 Frc consts  --     0.0874                 0.0730                 0.0422
 IR Inten    --     9.4146                 4.7390               110.8977
 Raman Activ --     0.1035                 0.0731                 1.1998

                     4                      5                      6
                     A                      A                      A
 Frequencies --  -233.7843               -74.4412               -53.6577
 Red. masses --     1.1882                 6.0058                 6.2378
 Frc consts  --     0.0383                 0.0196                 0.0106
 IR Inten    --   107.3407                 1.0061                 0.1773
 Raman Activ --     0.6244                 0.0479                 0.0106

                     7                      8                      9
                     A                      A                      A
 Frequencies --   -19.0928                46.5322                70.2115
 Red. masses --     6.8123                 6.6896                 6.2595
 Frc consts  --     0.0015                 0.0085                 0.0182
 IR Inten    --     1.0971                 0.2502                 3.1006
 Raman Activ --     0.0516                 0.0606                 0.2215

                    10                     11                     12
                     A                      A                      A
 Frequencies --    79.7431                87.7393               118.9525
 Red. masses --     6.3175                 6.6659                 5.8505
 Frc consts  --     0.0237                 0.0302                 0.0488
 IR Inten    --     1.2907                 0.3629                 1.1173
 Raman Activ --     0.0954                 0.0685                 0.0412

                    13                     14                     15
                     A                      A                      A
 Frequencies --   147.3521               181.8418               183.9534
 Red. masses --     6.4510                 7.1637                 6.8787
 Frc consts  --     0.0825                 0.1396                 0.1371
 IR Inten    --     2.6658                 2.4488                 0.1432
 Raman Activ --     0.7296                 0.1880                 1.6584

                    16                     17                     18
                     A                      A                      A
 Frequencies --   191.4591               228.9552               256.5886
 Red. masses --     6.1153                 6.3410                 4.6797
 Frc consts  --     0.1321                 0.1958                 0.1815
 IR Inten    --     1.0966                 1.5996                20.0235
 Raman Activ --     0.2147                 1.7239                 0.1213

                    19                     20                     21
                     A                      A                      A
 Frequencies --   271.5061               286.6687               307.5933
 Red. masses --     4.3784                 4.7474                 4.8141
 Frc consts  --     0.1902                 0.2299                 0.2684
 IR Inten    --     0.2994                 3.0337                 0.9856
 Raman Activ --     0.1251                 0.1863                 0.4981

                    22                     23                     24
                     A                      A                      A
 Frequencies --   311.3713               319.8993               330.2135
 Red. masses --     6.3705                 6.8729                 6.1023
 Frc consts  --     0.3639                 0.4144                 0.3920
 IR Inten    --     1.0635                 5.8467                 1.1676
 Raman Activ --     2.1790                 4.2371                 2.6378

                    25                     26                     27
                     A                      A                      A
 Frequencies --   337.3700               355.3682               369.8770
 Red. masses --     4.9542                 5.0561                 5.6154
 Frc consts  --     0.3322                 0.3762                 0.4526
 IR Inten    --    13.3018                 4.4900                 1.3032
 Raman Activ --     0.3285                 0.2737                 0.9904

                    28                     29                     30
                     A                      A                      A
 Frequencies --   403.5814               419.4411               433.5376
 Red. masses --     4.8516                 5.2260                 5.3158
 Frc consts  --     0.4656                 0.5417                 0.5887
 IR Inten    --     7.2308                 9.0701                 7.6378
 Raman Activ --     6.4407                 1.3669                 2.6513

                    31                     32                     33
                     A                      A                      A
 Frequencies --   446.3072               475.6576               483.5935
 Red. masses --     5.2392                 4.8463                 4.6938
 Frc consts  --     0.6149                 0.6460                 0.6467
 IR Inten    --     0.1348                 3.1206                 5.4614
 Raman Activ --     3.4939                 3.4928                 2.0391

                    34                     35                     36
                     A                      A                      A
 Frequencies --   511.0486               515.0181               568.2972
 Red. masses --     3.4604                 3.0538                 4.0965
 Frc consts  --     0.5325                 0.4772                 0.7795
 IR Inten    --    14.5988                 2.8128                14.0632
 Raman Activ --     0.7493                 5.1841                 1.3766

                    37                     38                     39
                     A                      A                      A
 Frequencies --   586.1178               595.5198               609.2360
 Red. masses --     6.0925                 3.9623                 4.3059
 Frc consts  --     1.2332                 0.8279                 0.9416
 IR Inten    --    31.6611                10.6999                27.5645
 Raman Activ --     1.1332                 0.2694                 1.2066

                    40                     41                     42
                     A                      A                      A
 Frequencies --   627.4288               666.3796               677.6809
 Red. masses --     3.6875                 4.0103                 1.1289
 Frc consts  --     0.8553                 1.0492                 0.3055
 IR Inten    --    13.3922                33.2108                84.4490
 Raman Activ --     0.7979                 0.5305                 1.6709

                    43                     44                     45
                     A                      A                      A
 Frequencies --   750.1150               756.3136               767.5991
 Red. masses --     1.0665                 1.0816                 1.0842
 Frc consts  --     0.3536                 0.3645                 0.3764
 IR Inten    --    91.1625               103.3824                98.8277
 Raman Activ --     1.7485                 1.7215                 1.4986

                    46                     47                     48
                     A                      A                      A
 Frequencies --   808.4372               815.9651               847.5967
 Red. masses --     1.0695                 1.0802                 1.7355
 Frc consts  --     0.4118                 0.4237                 0.7346
 IR Inten    --    94.8313                82.6556                 5.1955
 Raman Activ --     1.1756                 1.3530                 0.6873

                    49                     50                     51
                     A                      A                      A
 Frequencies --   869.3021               930.2559               964.6884
 Red. masses --     1.7150                 5.9616                 4.7500
 Frc consts  --     0.7636                 3.0396                 2.6045
 IR Inten    --     7.7616               140.3636                93.7473
 Raman Activ --     0.7292                 2.5721                 0.8302

                    52                     53                     54
                     A                      A                      A
 Frequencies --   985.0411               987.5764               991.2802
 Red. masses --     6.8450                 5.5848                 7.1260
 Frc consts  --     3.9132                 3.2092                 4.1256
 IR Inten    --    13.0248               215.1689               272.1924
 Raman Activ --     2.0904                 1.4498                 0.5430

                    55                     56                     57
                     A                      A                      A
 Frequencies --  1006.5444              1010.0604              1016.7181
 Red. masses --     6.0811                 6.7975                 6.7575
 Frc consts  --     3.6299                 4.0859                 4.1157
 IR Inten    --   286.1227                11.5898               222.1522
 Raman Activ --     2.6692                 1.6559                 1.7215

                    58                     59                     60
                     A                      A                      A
 Frequencies --  1027.7365              1044.5360              1055.1741
 Red. masses --     5.9164                 7.3816                 4.7375
 Frc consts  --     3.6819                 4.7451                 3.1078
 IR Inten    --    89.6867               191.5393                31.2978
 Raman Activ --     3.0172                 2.3927                 2.7691

                    61                     62                     63
                     A                      A                      A
 Frequencies --  1063.6943              1068.0456              1079.0406
 Red. masses --     3.3562                 6.6872                 3.1668
 Frc consts  --     2.2373                 4.4944                 2.1724
 IR Inten    --     8.1533               123.8004                16.2821
 Raman Activ --     8.9176                 1.4726                21.3574

                    64                     65                     66
                     A                      A                      A
 Frequencies --  1102.6646              1108.5353              1113.9965
 Red. masses --     3.4476                 3.0092                 2.3343
 Frc consts  --     2.4698                 2.1787                 1.7067
 IR Inten    --     4.7817                19.1205                10.6865
 Raman Activ --     5.9071                 1.1709                 4.4849

                    67                     68                     69
                     A                      A                      A
 Frequencies --  1119.1839              1121.0867              1129.6504
 Red. masses --     2.3802                 2.8638                 2.8630
 Frc consts  --     1.7566                 2.1207                 2.1526
 IR Inten    --    61.4986                 3.9257                35.8260
 Raman Activ --     1.2062                 6.4317                 6.3022

                    70                     71                     72
                     A                      A                      A
 Frequencies --  1141.6321              1146.3708              1150.2739
 Red. masses --     1.5974                 1.9614                 2.0049
 Frc consts  --     1.2266                 1.5186                 1.5630
 IR Inten    --    27.0154                18.6497                 8.5593
 Raman Activ --     6.0299                 4.3252                 1.7589

                    73                     74                     75
                     A                      A                      A
 Frequencies --  1159.7426              1179.7402              1187.4295
 Red. masses --     2.0085                 1.7632                 1.8583
 Frc consts  --     1.5917                 1.4459                 1.5438
 IR Inten    --     3.7454                 2.4803                16.0390
 Raman Activ --     3.3096                 1.4061                 1.9572

                    76                     77                     78
                     A                      A                      A
 Frequencies --  1204.5905              1211.3359              1229.3692
 Red. masses --     1.4682                 1.2876                 1.2806
 Frc consts  --     1.2552                 1.1132                 1.1404
 IR Inten    --    14.8665                13.9485                 5.2690
 Raman Activ --     3.9399                 0.9653                 0.5756

                    79                     80                     81
                     A                      A                      A
 Frequencies --  1242.7538              1251.9138              1256.2363
 Red. masses --     1.3062                 1.2271                 1.2077
 Frc consts  --     1.1886                 1.1331                 1.1229
 IR Inten    --    23.5251                 8.8106                 9.9872
 Raman Activ --     0.6753                 0.5672                 0.5465

                    82                     83                     84
                     A                      A                      A
 Frequencies --  1272.9989              1282.1318              1291.3520
 Red. masses --     1.1978                 1.2328                 1.3207
 Frc consts  --     1.1436                 1.1941                 1.2976
 IR Inten    --     9.0939                 5.9881                 8.8009
 Raman Activ --     0.4130                 3.9931                 0.8404

                    85                     86                     87
                     A                      A                      A
 Frequencies --  1297.0101              1303.7013              1313.3208
 Red. masses --     1.3631                 1.3947                 1.2072
 Frc consts  --     1.3510                 1.3967                 1.2268
 IR Inten    --    29.8816                22.6699                13.5137
 Raman Activ --     1.9621                 1.6963                 6.0720

                    88                     89                     90
                     A                      A                      A
 Frequencies --  1316.8747              1328.7019              1332.2618
 Red. masses --     1.1998                 1.2890                 1.2790
 Frc consts  --     1.2259                 1.3408                 1.3375
 IR Inten    --     9.9597                24.8409                 1.6395
 Raman Activ --     9.3623                 3.6238                10.9193

                    91                     92                     93
                     A                      A                      A
 Frequencies --  1339.2106              1342.6925              1351.3392
 Red. masses --     1.3437                 1.2971                 1.4025
 Frc consts  --     1.4198                 1.3777                 1.5090
 IR Inten    --    31.4723                27.2598                10.7119
 Raman Activ --     3.9390                 2.3945                 7.4298

                    94                     95                     96
                     A                      A                      A
 Frequencies --  1360.9089              1362.8603              1368.4985
 Red. masses --     1.1757                 1.2752                 1.3813
 Frc consts  --     1.2829                 1.3955                 1.5242
 IR Inten    --    23.5941                40.7935                12.6553
 Raman Activ --     3.1948                 2.5911                 4.8239

                    97                     98                     99
                     A                      A                      A
 Frequencies --  1375.0481              1396.3257              1403.6270
 Red. masses --     1.4691                 1.5272                 1.4046
 Frc consts  --     1.6365                 1.7543                 1.6304
 IR Inten    --     6.5216                 9.2725                 7.8498
 Raman Activ --     7.5943                 5.0477                 3.8576

                   100                    101                    102
                     A                      A                      A
 Frequencies --  1441.4918              1453.6038              1462.3796
 Red. masses --     1.3967                 1.3481                 1.2027
 Frc consts  --     1.7099                 1.6783                 1.5154
 IR Inten    --    40.9244                30.1578                13.5498
 Raman Activ --     1.4897                 2.0454                 4.1991

                   103                    104                    105
                     A                      A                      A
 Frequencies --  1471.6655              1475.8199              1477.8778
 Red. masses --     1.1890                 1.1874                 1.2475
 Frc consts  --     1.5172                 1.5238                 1.6053
 IR Inten    --    12.4247                27.6193                 7.6352
 Raman Activ --     1.4115                 4.9968                 1.0192

                   106                    107                    108
                     A                      A                      A
 Frequencies --  1491.4006              1501.4518              3253.9581
 Red. masses --     1.3563                 1.2876                 1.0591
 Frc consts  --     1.7775                 1.7102                 6.6069
 IR Inten    --    38.9421                32.3942                21.1793
 Raman Activ --     1.8397                 0.6669                87.6336

                   109                    110                    111
                     A                      A                      A
 Frequencies --  3257.1323              3264.6764              3265.6223
 Red. masses --     1.0626                 1.0768                 1.0803
 Frc consts  --     6.6419                 6.7621                 6.7880
 IR Inten    --    26.5264                48.8872                31.4946
 Raman Activ --    91.2912                17.5188                17.6826

                   112                    113                    114
                     A                      A                      A
 Frequencies --  3272.9338              3274.8025              3278.6959
 Red. masses --     1.0810                 1.0816                 1.0832
 Frc consts  --     6.8229                 6.8339                 6.8608
 IR Inten    --    38.9534                 3.7661                 5.7975
 Raman Activ --    75.3623               231.0385                64.3449

                   115                    116                    117
                     A                      A                      A
 Frequencies --  3287.2669              3289.2824              3293.2885
 Red. masses --     1.0860                 1.0848                 1.0842
 Frc consts  --     6.9146                 6.9153                 6.9282
 IR Inten    --     4.7183                 4.8362                14.2524
 Raman Activ --     8.6473                65.5665                34.3025

                   118                    119                    120
                     A                      A                      A
 Frequencies --  3296.5139              3299.8210              3304.3420
 Red. masses --     1.0800                 1.0823                 1.0856
 Frc consts  --     6.9147                 6.9437                 6.9836
 IR Inten    --   161.5722               122.4465                76.7662
 Raman Activ --   155.2716               105.8127                62.8374

                   121                    122                    123
                     A                      A                      A
 Frequencies --  3308.3595              3310.8317              3314.0321
 Red. masses --     1.1006                 1.0711                 1.1037
 Frc consts  --     7.0976                 6.9175                 7.1416
 IR Inten    --   101.2234               552.9953               127.4888
 Raman Activ --    46.5615               127.6018                25.2804

                   124                    125                    126
                     A                      A                      A
 Frequencies --  3361.2198              3362.4156              3363.5128
 Red. masses --     1.0664                 1.0654                 1.0647
 Frc consts  --     7.0982                 7.0970                 7.0970
 IR Inten    --    58.6293                27.7680                20.3858
 Raman Activ --   115.9086               116.1607               134.9673

                   127                    128                    129
                     A                      A                      A
 Frequencies --  3369.1319              3887.6910              3890.0504
 Red. masses --     1.0693                 1.0674                 1.0676
 Frc consts  --     7.1510                 9.5049                 9.5189
 IR Inten    --    45.8758                61.8083                79.1436
 Raman Activ --   141.3044               115.1831                96.8402

 - Thermochemistry -
 -------------------
 Temperature   298.150 Kelvin.  Pressure   1.00000 Atm.
 Atom     1 has atomic number  8 and mass  15.99491

 Molecular mass:   342.11621 amu.
 Principal axes and moments of inertia in atomic units:
                           1         2         3
     Eigenvalues --  4355.30190********************
           X            0.99998   0.00611  -0.00010
           Y           -0.00611   0.99998   0.00109
           Z            0.00011  -0.00109   1.00000
 This molecule is an asymmetric top.
 Rotational symmetry number  1.
 Warning -- assumption of classical behavior for rotation
           may cause significant error
 Rotational temperatures (Kelvin)      0.01989     0.00679     0.00520
 Rotational constants (GHZ):           0.41438     0.14146     0.10830
    7 imaginary frequencies ignored.
 Zero-point vibrational energy     975102.5 (Joules/Mol)
                                  233.05508 (Kcal/Mol)
 Warning -- explicit consideration of  32 degrees of freedom as
           vibrations may cause significant error
 Vibrational temperatures:     66.95   101.02   114.73   126.24   171.15
          (Kelvin)            212.01   261.63   264.67   275.47   329.41
                              369.17   390.64   412.45   442.56   447.99
                              460.26   475.10   485.40   511.29   532.17
                              580.66   603.48   623.76   642.14   684.36
                              695.78   735.28   741.00   817.65   843.29
                              856.82   876.55   902.73   958.77   975.03
                             1079.25  1088.17  1104.40  1163.16  1173.99
                             1219.50  1250.73  1338.43  1387.97  1417.25
                             1420.90  1426.23  1448.19  1453.25  1462.83
                             1478.68  1502.85  1518.16  1530.42  1536.68
                             1552.50  1586.49  1594.93  1602.79  1610.25
                             1612.99  1625.31  1642.55  1649.37  1654.99
                             1668.61  1697.38  1708.44  1733.13  1742.84
                             1768.79  1788.04  1801.22  1807.44  1831.56
                             1844.70  1857.97  1866.11  1875.73  1889.57
                             1894.69  1911.70  1916.83  1926.82  1931.83
                             1944.27  1958.04  1960.85  1968.96  1978.39
                             2009.00  2019.50  2073.98  2091.41  2104.04
                             2117.40  2123.37  2126.33  2145.79  2160.25
                             4681.71  4686.28  4697.14  4698.50  4709.02
                             4711.70  4717.31  4729.64  4732.54  4738.30
                             4742.94  4747.70  4754.21  4759.99  4763.54
                             4768.15  4836.04  4837.76  4839.34  4847.42
                             5593.51  5596.91

 Zero-point correction=                           0.371397 (Hartree/Particle)
 Thermal correction to Energy=                    0.389766
 Thermal correction to Enthalpy=                  0.390710
 Thermal correction to Gibbs Free Energy=         0.325835
 Sum of electronic and zero-point Energies=          -1297.618884
 Sum of electronic and thermal Energies=             -1297.600515
 Sum of electronic and thermal Enthalpies=           -1297.599571
 Sum of electronic and thermal Free Energies=        -1297.664446

                     E (Thermal)             CV                S
                      KCal/Mol        Cal/Mol-Kelvin    Cal/Mol-Kelvin
 Total                  244.582             75.888            136.542
 Electronic               0.000              0.000              0.000
 Translational            0.889              2.981             43.384
 Rotational               0.889              2.981             35.181
 Vibrational            242.804             69.926             57.977
 Vibration     1          0.595              1.979              4.960
 Vibration     2          0.598              1.968              4.147
 Vibration     3          0.600              1.963              3.897
 Vibration     4          0.601              1.958              3.710
 Vibration     5          0.609              1.934              3.117
 Vibration     6          0.617              1.906              2.706
 Vibration     7          0.630              1.864              2.309
 Vibration     8          0.631              1.862              2.288
 Vibration     9          0.634              1.852              2.214
 Vibration    10          0.652              1.797              1.887
 Vibration    11          0.666              1.752              1.685
 Vibration    12          0.675              1.726              1.587
 Vibration    13          0.684              1.698              1.494
 Vibration    14          0.697              1.659              1.375
 Vibration    15          0.700              1.652              1.355
 Vibration    16          0.706              1.635              1.311
 Vibration    17          0.713              1.615              1.259
 Vibration    18          0.718              1.601              1.225
 Vibration    19          0.731              1.564              1.142
 Vibration    20          0.742              1.534              1.080
 Vibration    21          0.769              1.462              0.950
 Vibration    22          0.782              1.428              0.894
 Vibration    23          0.794              1.397              0.847
 Vibration    24          0.806              1.369              0.807
 Vibration    25          0.832              1.304              0.722
 Vibration    26          0.840              1.286              0.700
 Vibration    27          0.866              1.226              0.631
 Vibration    28          0.870              1.217              0.622
 Vibration    29          0.924              1.100              0.508
 Vibration    30          0.943              1.061              0.474
 Vibration    31          0.953              1.041              0.457
 Vibration    32          0.968              1.012              0.434

 Normal termination of Gaussian 09 at Thu Mar 24 11:16:14 2016.
