 Gaussian 09, Revision B.01,
 Gaussian 09:  EM64L-G09RevB.01 12-Aug-2010

 -------------------------------------------------
 # freq=raman b3lyp/6-31+g(2d,p) geom=connectivity
 -------------------------------------------------

 -----------------
 320 7143/7143.com
 -----------------
 Symbolic Z-matrix:
 Charge =  0 Multiplicity = 1

                         Standard orientation:
 ---------------------------------------------------------------------
 Center     Atomic      Atomic             Coordinates (Angstroms)
 Number     Number       Type             X           Y           Z
 ---------------------------------------------------------------------
      1          8           0       -5.093373   -0.386064    0.389916
      2          6           0       -3.772779   -0.112638   -0.101618
      3          6           0       -3.227816    1.246368    0.306762
      4          8           0       -3.971091    2.338085   -0.255036
      5          1           0       -4.955211    2.183837   -0.166089
      6          6           0       -1.814562    1.609135   -0.120606
      7          8           0       -1.303316    2.798667    0.498437
      8          1           0       -0.427542    3.126606    0.145010
      9          6           0       -3.055366   -2.553547   -0.179053
     10          8           0       -4.359611   -3.127844   -0.009118
     11          1           0       -4.284560   -4.118259    0.112507
     12          6           0       -2.703960   -1.135929    0.242381
     13          8           0       -1.419318   -0.764579   -0.278803
     14          6           0       -0.885473    0.461623    0.240091
     15          8           0        0.286393    0.638627   -0.568739
     16          6           0        1.493756    0.184661    0.061504
     17          6           0        1.934758   -1.240374   -0.229996
     18          8           0        0.896310   -2.190558    0.047546
     19          1           0        0.071911   -1.790006   -0.353483
     20          6           0        3.320398   -1.612420    0.271644
     21          8           0        3.905470   -2.818447   -0.242750
     22          1           0        4.486064   -3.112115    0.517206
     23          6           0        2.441623    2.563579    0.089466
     24          8           0        1.382844    3.453215   -0.293997
     25          1           0        1.698019    4.395415   -0.174398
     26          6           0        2.560694    1.143504   -0.439513
     27          8           0        3.819838    0.760144    0.130851
     28          6           0        4.304078   -0.551077   -0.193435
     29          8           0        5.482063   -0.593178    0.625640
     30          1           0        6.250635   -0.752413    0.072882
     31          1           0        3.357918    3.057610   -0.157997
     32          1           0        2.403427    2.488070    1.156114
     33          1           0        2.610920    1.137343   -1.508316
     34          1           0        1.393757    0.302699    1.120262
     35          1           0        2.033196   -1.268315   -1.295092
     36          1           0        3.314102   -1.647856    1.341038
     37          1           0        4.537992   -0.644476   -1.233368
     38          1           0       -5.659612   -0.644812   -0.340852
     39          1           0       -2.372555   -3.198644    0.333313
     40          1           0       -2.828706   -2.623067   -1.222457
     41          1           0       -2.615855   -1.143215    1.308723
     42          1           0       -3.848389   -0.101494   -1.168885
     43          1           0       -3.282242    1.317398    1.373014
     44          1           0       -1.800892    1.741971   -1.182240
     45          1           0       -0.664143    0.411864    1.285766
 ---------------------------------------------------------------------

 SCF Done:  E(RB3LYP) =  -1297.97873302     A.U. after   13 cycles

 The electronic state is 1-A.
 Alpha  occ. eigenvalues --  -19.18609 -19.18083 -19.18007 -19.17290 -19.16784
 Alpha  occ. eigenvalues --  -19.16689 -19.16676 -19.16481 -19.14690 -19.13997
 Alpha  occ. eigenvalues --  -19.13356 -10.30024 -10.30005 -10.25647 -10.25523
 Alpha  occ. eigenvalues --  -10.25197 -10.25110 -10.25072 -10.24521 -10.24304
 Alpha  occ. eigenvalues --  -10.24211 -10.24061 -10.24019  -1.10167  -1.08665
 Alpha  occ. eigenvalues --   -1.04962  -1.04495  -1.03775  -1.03672  -1.02737
 Alpha  occ. eigenvalues --   -1.02128  -1.01833  -1.00958  -0.99561  -0.81897
 Alpha  occ. eigenvalues --   -0.80132  -0.79377  -0.77996  -0.71618  -0.69939
 Alpha  occ. eigenvalues --   -0.67212  -0.64510  -0.62861  -0.62738  -0.61100
 Alpha  occ. eigenvalues --   -0.59861  -0.56417  -0.55377  -0.54623  -0.54291
 Alpha  occ. eigenvalues --   -0.54202  -0.53212  -0.52537  -0.52249  -0.51706
 Alpha  occ. eigenvalues --   -0.49868  -0.49627  -0.49274  -0.48272  -0.46601
 Alpha  occ. eigenvalues --   -0.45570  -0.44886  -0.44407  -0.43446  -0.43270
 Alpha  occ. eigenvalues --   -0.42754  -0.41798  -0.40960  -0.40213  -0.38726
 Alpha  occ. eigenvalues --   -0.38309  -0.37525  -0.37026  -0.36408  -0.35785
 Alpha  occ. eigenvalues --   -0.35166  -0.34771  -0.34407  -0.33658  -0.32887
 Alpha  occ. eigenvalues --   -0.32255  -0.31497  -0.30687  -0.30202  -0.29672
 Alpha  occ. eigenvalues --   -0.29297  -0.28714  -0.27822  -0.27540  -0.26437
 Alpha  occ. eigenvalues --   -0.26013
 Alpha virt. eigenvalues --   -0.01890  -0.01759  -0.01143  -0.00233   0.00102
 Alpha virt. eigenvalues --    0.01082   0.01970   0.02559   0.02602   0.03318
 Alpha virt. eigenvalues --    0.03864   0.04410   0.04995   0.05538   0.05809

 Mulliken atomic charges:
              1
     1  O   -0.518141
     2  C   -0.186414
     3  C    0.418758
     4  O   -0.563702
     5  H    0.334718
     6  C   -0.142335
     7  O   -0.588361
     8  H    0.402741
     9  C   -0.344174
    10  O   -0.539450
    11  H    0.344889
    12  C    0.313209
    13  O   -0.234030
    14  C    0.162293
    15  O   -0.217292
    16  C    0.254179
    17  C    0.109955
    18  O   -0.555433
    19  H    0.377287
    20  C   -0.093003
    21  O   -0.501260
    22  H    0.339086
    23  C   -0.237859
    24  O   -0.578837
    25  H    0.354239
    26  C   -0.044116
    27  O   -0.207832
    28  C    0.189912
    29  O   -0.531537
    30  H    0.330956
    31  H    0.143516
    32  H    0.152026
    33  H    0.122570
    34  H    0.103645
    35  H    0.105628
    36  H    0.131002
    37  H    0.135536
    38  H    0.344186
    39  H    0.146840
    40  H    0.145791
    41  H    0.106693
    42  H    0.116440
    43  H    0.124085
    44  H    0.137740
    45  H    0.135854
 Sum of Mulliken atomic charges =   0.00000

 Dipole moment (field-independent basis, Debye):
    X=              2.2661    Y=             -0.7790    Z=             -1.0310  Tot=              2.6087
 Quadrupole moment (field-independent basis, Debye-Ang):
   XX=           -120.5728   YY=           -133.5985   ZZ=           -138.0435
   XY=             14.6204   XZ=              1.8931   YZ=             -3.6543

  Exact polarizability: 233.865  -0.970 199.057   1.313  -0.552 143.562
 Approx polarizability: 273.786   0.053 257.451   2.221  -1.825 240.342

 ******    6 imaginary frequencies (negative Signs) ******

                     1                      2                      3
                     A                      A                      A
 Frequencies --  -324.2442              -274.7203              -246.5011
 Red. masses --     1.6673                 1.7468                 1.1568
 Frc consts  --     0.1033                 0.0777                 0.0414
 IR Inten    --     5.4395                 3.2541                24.1836
 Raman Activ --     0.0830                 0.0407                 0.8440

                     4                      5                      6
                     A                      A                      A
 Frequencies --  -245.5303               -77.5259               -57.0458
 Red. masses --     1.1520                 6.7405                 6.3721
 Frc consts  --     0.0409                 0.0239                 0.0122
 IR Inten    --   179.2775                 0.6192                 0.2401
 Raman Activ --     0.6246                 0.0324                 0.0094

                     7                      8                      9
                     A                      A                      A
 Frequencies --    39.3875                50.2238                52.9758
 Red. masses --     6.5356                 6.5755                 6.8636
 Frc consts  --     0.0060                 0.0098                 0.0113
 IR Inten    --     2.0099                 0.8113                 1.0526
 Raman Activ --     0.0245                 0.0139                 0.1089

                    10                     11                     12
                     A                      A                      A
 Frequencies --    73.6977                77.7392               117.0221
 Red. masses --     6.7842                 6.6952                 5.5452
 Frc consts  --     0.0217                 0.0238                 0.0447
 IR Inten    --     1.0195                 1.8927                 2.0721
 Raman Activ --     0.2234                 0.1889                 0.0691

                    13                     14                     15
                     A                      A                      A
 Frequencies --   146.5921               173.7949               185.5681
 Red. masses --     6.0915                 6.3052                 6.2741
 Frc consts  --     0.0771                 0.1122                 0.1273
 IR Inten    --     4.2300                 2.7029                 0.5514
 Raman Activ --     0.4797                 0.2316                 0.2276

                    16                     17                     18
                     A                      A                      A
 Frequencies --   193.3361               230.6939               254.1121
 Red. masses --     6.7337                 6.4480                 5.1034
 Frc consts  --     0.1483                 0.2022                 0.1942
 IR Inten    --     0.2598                 1.0123                18.0313
 Raman Activ --     1.8158                 1.1062                 0.4346

                    19                     20                     21
                     A                      A                      A
 Frequencies --   262.8628               277.7515               297.5877
 Red. masses --     5.5028                 4.7180                 5.8646
 Frc consts  --     0.2240                 0.2144                 0.3060
 IR Inten    --     0.2488                 5.6949                 6.2419
 Raman Activ --     0.2678                 0.2290                 0.2151

                    22                     23                     24
                     A                      A                      A
 Frequencies --   308.6452               310.8353               323.0593
 Red. masses --     6.1891                 5.5021                 5.6208
 Frc consts  --     0.3474                 0.3132                 0.3456
 IR Inten    --     3.4392                 0.7010                 4.3967
 Raman Activ --     2.6978                 1.2263                 2.9757

                    25                     26                     27
                     A                      A                      A
 Frequencies --   338.7527               357.2673               383.0121
 Red. masses --     6.5908                 4.2480                 6.6135
 Frc consts  --     0.4456                 0.3195                 0.5716
 IR Inten    --     4.8912                 4.3710                 1.1267
 Raman Activ --     3.8815                 0.1089                 1.7703

                    28                     29                     30
                     A                      A                      A
 Frequencies --   398.2109               410.2716               427.5103
 Red. masses --     5.0579                 5.6666                 4.8139
 Frc consts  --     0.4725                 0.5620                 0.5184
 IR Inten    --    10.3904                 5.2039                 5.8546
 Raman Activ --     4.1379                 5.3564                 3.2214

                    31                     32                     33
                     A                      A                      A
 Frequencies --   442.8444               476.4843               481.8307
 Red. masses --     4.5715                 4.2615                 4.5718
 Frc consts  --     0.5282                 0.5700                 0.6254
 IR Inten    --     5.8324                 9.5192                 9.4820
 Raman Activ --     2.5370                 3.0412                 0.1142

                    34                     35                     36
                     A                      A                      A
 Frequencies --   503.0503               530.0379               566.5704
 Red. masses --     3.6254                 3.2675                 3.5030
 Frc consts  --     0.5405                 0.5409                 0.6625
 IR Inten    --     7.0400                11.7652                 6.8785
 Raman Activ --     4.8223                 2.1704                 1.1732

                    37                     38                     39
                     A                      A                      A
 Frequencies --   586.4363               607.8895               629.1826
 Red. masses --     3.3779                 6.4278                 5.6486
 Frc consts  --     0.6844                 1.3995                 1.3175
 IR Inten    --    42.2501                 6.2588                10.2286
 Raman Activ --     1.5033                 0.4188                 0.5391

                    40                     41                     42
                     A                      A                      A
 Frequencies --   643.8941               665.5004               695.4484
 Red. masses --     3.5445                 1.1099                 4.3424
 Frc consts  --     0.8658                 0.2896                 1.2374
 IR Inten    --    48.0808               105.0470                 3.7661
 Raman Activ --     1.1307                 1.7967                 0.6753

                    43                     44                     45
                     A                      A                      A
 Frequencies --   707.8203               709.8422               745.4942
 Red. masses --     1.1920                 1.0800                 1.0612
 Frc consts  --     0.3519                 0.3206                 0.3475
 IR Inten    --    98.4726               111.4296                94.9977
 Raman Activ --     1.4824                 2.1442                 2.0858

                    46                     47                     48
                     A                      A                      A
 Frequencies --   766.5421               803.8089               846.4266
 Red. masses --     1.0517                 1.0988                 1.8132
 Frc consts  --     0.3641                 0.4183                 0.7654
 IR Inten    --    90.0171               141.3632                 2.9550
 Raman Activ --     0.7942                 3.5544                 1.4911

                    49                     50                     51
                     A                      A                      A
 Frequencies --   853.3285               922.5206               941.4420
 Red. masses --     1.7414                 5.3569                 5.9519
 Frc consts  --     0.7471                 2.6861                 3.1081
 IR Inten    --     1.7550               180.0644                23.1140
 Raman Activ --     0.3573                 3.8215                 0.5000

                    52                     53                     54
                     A                      A                      A
 Frequencies --   973.5349               974.8417               977.5624
 Red. masses --     5.4646                 5.6514                 5.9420
 Frc consts  --     3.0515                 3.1643                 3.3456
 IR Inten    --    29.1235               130.8752               119.6797
 Raman Activ --     2.3687                 4.3822                 0.8297

                    55                     56                     57
                     A                      A                      A
 Frequencies --   997.5588              1008.5460              1017.5680
 Red. masses --     6.3490                 6.4006                 5.8646
 Frc consts  --     3.7225                 3.8358                 3.5778
 IR Inten    --   340.6936                11.1219               124.5783
 Raman Activ --     1.9274                 1.1776                 4.2979

                    58                     59                     60
                     A                      A                      A
 Frequencies --  1040.2603              1058.9522              1061.8918
 Red. masses --     6.4271                 6.0613                 3.2604
 Frc consts  --     4.0978                 4.0047                 2.1661
 IR Inten    --   291.7976                45.9237               111.5556
 Raman Activ --     4.0114                 1.8902                 4.3084

                    61                     62                     63
                     A                      A                      A
 Frequencies --  1063.0612              1073.2640              1079.4488
 Red. masses --     3.0722                 4.3911                 4.6436
 Frc consts  --     2.0456                 2.9801                 3.1879
 IR Inten    --    56.5542                19.8837                 6.0363
 Raman Activ --     1.9277                23.0348                 4.8378

                    64                     65                     66
                     A                      A                      A
 Frequencies --  1096.8596              1104.4134              1114.2569
 Red. masses --     4.1170                 3.0705                 2.1619
 Frc consts  --     2.9183                 2.2066                 1.5814
 IR Inten    --    15.7601               160.7387                71.5913
 Raman Activ --     8.0980                 3.7140                 6.8312

                    67                     68                     69
                     A                      A                      A
 Frequencies --  1118.0844              1122.4750              1131.4341
 Red. masses --     2.6730                 2.3304                 2.7201
 Frc consts  --     1.9688                 1.7300                 2.0516
 IR Inten    --     3.5035                 8.4743                32.1248
 Raman Activ --     6.1898                 5.6595                 1.3289

                    70                     71                     72
                     A                      A                      A
 Frequencies --  1134.8224              1147.5104              1162.7062
 Red. masses --     3.3592                 1.7258                 2.2093
 Frc consts  --     2.5488                 1.3389                 1.7598
 IR Inten    --    23.3156                29.4169                28.5935
 Raman Activ --     8.1051                 6.2606                 1.3270

                    73                     74                     75
                     A                      A                      A
 Frequencies --  1167.5256              1177.4027              1195.1716
 Red. masses --     1.6054                 1.9991                 1.8103
 Frc consts  --     1.2893                 1.6328                 1.5236
 IR Inten    --     1.0727                 9.8261                 8.6861
 Raman Activ --     1.9565                 2.8086                 1.8928

                    76                     77                     78
                     A                      A                      A
 Frequencies --  1207.0444              1213.8884              1221.5717
 Red. masses --     1.3659                 1.2329                 1.4684
 Frc consts  --     1.1725                 1.0704                 1.2910
 IR Inten    --    11.0440                 3.0675                 1.5663
 Raman Activ --     4.8546                 2.1380                 2.7940

                    79                     80                     81
                     A                      A                      A
 Frequencies --  1227.9181              1237.6107              1258.7122
 Red. masses --     1.2789                 1.1732                 1.2419
 Frc consts  --     1.1361                 1.0588                 1.1593
 IR Inten    --     8.6546                 0.3475                27.8136
 Raman Activ --     0.7833                 1.7329                 2.0283

                    82                     83                     84
                     A                      A                      A
 Frequencies --  1269.8624              1272.6474              1285.9437
 Red. masses --     1.3604                 1.3205                 1.4435
 Frc consts  --     1.2925                 1.2601                 1.4064
 IR Inten    --    34.4148                15.0275                16.7452
 Raman Activ --     1.0538                 1.6781                 2.4860

                    85                     86                     87
                     A                      A                      A
 Frequencies --  1295.3885              1304.7623              1309.1556
 Red. masses --     1.2496                 1.2621                 1.2412
 Frc consts  --     1.2354                 1.2659                 1.2533
 IR Inten    --    40.5458                 9.5636                18.9100
 Raman Activ --     7.0328                 1.3845                 5.8871

                    88                     89                     90
                     A                      A                      A
 Frequencies --  1321.0699              1327.2754              1337.1204
 Red. masses --     1.3012                 1.3046                 1.2020
 Frc consts  --     1.3379                 1.3541                 1.2662
 IR Inten    --     7.6364                11.3336                 3.6520
 Raman Activ --     1.1776                 9.4308                 3.2613

                    91                     92                     93
                     A                      A                      A
 Frequencies --  1343.3158              1356.2546              1357.6839
 Red. masses --     1.3390                 1.2057                 1.1226
 Frc consts  --     1.4236                 1.3067                 1.2192
 IR Inten    --    35.1994                42.6370                24.8210
 Raman Activ --     3.1371                 5.4935                 3.0557

                    94                     95                     96
                     A                      A                      A
 Frequencies --  1366.6170              1374.4902              1380.4634
 Red. masses --     1.3681                 1.5312                 1.1657
 Frc consts  --     1.5054                 1.7043                 1.3089
 IR Inten    --    17.2647                 7.9158                14.6935
 Raman Activ --     6.9046                 4.9608                 1.8688

                    97                     98                     99
                     A                      A                      A
 Frequencies --  1386.0643              1389.0236              1401.4441
 Red. masses --     1.4124                 1.5139                 1.3869
 Frc consts  --     1.5987                 1.7209                 1.6049
 IR Inten    --     7.9764                11.9276                14.1497
 Raman Activ --     5.3522                 4.3998                 3.9612

                   100                    101                    102
                     A                      A                      A
 Frequencies --  1411.3302              1433.1869              1461.3169
 Red. masses --     1.3728                 1.5611                 1.2817
 Frc consts  --     1.6110                 1.8893                 1.6126
 IR Inten    --    22.2512                38.5158                20.9269
 Raman Activ --     1.8961                 2.0807                 3.6846

                   103                    104                    105
                     A                      A                      A
 Frequencies --  1467.6222              1472.7397              1478.9268
 Red. masses --     1.0807                 1.1357                 1.2978
 Frc consts  --     1.3714                 1.4514                 1.6725
 IR Inten    --     6.4594                 2.8335                41.2712
 Raman Activ --     4.9099                 2.5145                 0.3131

                   106                    107                    108
                     A                      A                      A
 Frequencies --  1480.3296              1531.2449              3247.8905
 Red. masses --     1.2672                 1.2591                 1.0793
 Frc consts  --     1.6362                 1.7394                 6.7081
 IR Inten    --     8.0789                44.1397                35.1269
 Raman Activ --     2.7237                 2.5109                78.2735

                   109                    110                    111
                     A                      A                      A
 Frequencies --  3255.0428              3258.1873              3260.6594
 Red. masses --     1.0583                 1.0814                 1.0588
 Frc consts  --     6.6064                 6.7638                 6.6325
 IR Inten    --    29.1325                14.7335                63.0088
 Raman Activ --    75.2313                78.9399                71.5944

                   112                    113                    114
                     A                      A                      A
 Frequencies --  3269.6976              3275.9066              3283.6860
 Red. masses --     1.0821                 1.0840                 1.0854
 Frc consts  --     6.8161                 6.8542                 6.8955
 IR Inten    --     7.8727                 1.5007                40.3089
 Raman Activ --    93.8142                25.5191                50.9431

                   115                    116                    117
                     A                      A                      A
 Frequencies --  3285.6745              3288.3309              3290.3644
 Red. masses --     1.0696                 1.0854                 1.0863
 Frc consts  --     6.8032                 6.9150                 6.9295
 IR Inten    --   245.2504                11.8924                14.9766
 Raman Activ --   201.1102               103.6223                19.9112

                   118                    119                    120
                     A                      A                      A
 Frequencies --  3295.1004              3301.4501              3302.8505
 Red. masses --     1.0821                 1.0776                 1.0849
 Frc consts  --     6.9224                 6.9201                 6.9731
 IR Inten    --   127.9932               591.8347               171.4591
 Raman Activ --   153.4178                56.6414                35.8441

                   121                    122                    123
                     A                      A                      A
 Frequencies --  3305.5800              3309.0185              3315.1878
 Red. masses --     1.0986                 1.0897                 1.1034
 Frc consts  --     7.0725                 7.0302                 7.1452
 IR Inten    --    31.7689               114.7666                74.5543
 Raman Activ --    42.2239                34.7392                23.0128

                   124                    125                    126
                     A                      A                      A
 Frequencies --  3361.8422              3363.2041              3365.3661
 Red. masses --     1.0688                 1.0680                 1.0661
 Frc consts  --     7.1173                 7.1173                 7.1137
 IR Inten    --    53.0728                54.2147                22.9344
 Raman Activ --   150.9949               157.5206               153.6085

                   127                    128                    129
                     A                      A                      A
 Frequencies --  3373.7502              3890.4455              3892.2715
 Red. masses --     1.0662                 1.0677                 1.0674
 Frc consts  --     7.1502                 9.5212                 9.5275
 IR Inten    --    49.0017                91.5701                67.3887
 Raman Activ --   112.2464                76.1035               128.9584

 - Thermochemistry -
 -------------------
 Temperature   298.150 Kelvin.  Pressure   1.00000 Atm.
 Atom     1 has atomic number  8 and mass  15.99491

 Molecular mass:   342.11621 amu.
 Principal axes and moments of inertia in atomic units:
                           1         2         3
     Eigenvalues --  4472.48340********************
           X            0.99997   0.00771   0.00038
           Y           -0.00771   0.99997   0.00029
           Z           -0.00037  -0.00030   1.00000
 This molecule is an asymmetric top.
 Rotational symmetry number  1.
 Warning -- assumption of classical behavior for rotation
           may cause significant error
 Rotational temperatures (Kelvin)      0.01937     0.00702     0.00527
 Rotational constants (GHZ):           0.40352     0.14625     0.10971
    6 imaginary frequencies ignored.
 Zero-point vibrational energy     973700.4 (Joules/Mol)
                                  232.71997 (Kcal/Mol)
 Warning -- explicit consideration of  32 degrees of freedom as
           vibrations may cause significant error
 Vibrational temperatures:     56.67    72.26    76.22   106.03   111.85
          (Kelvin)            168.37   210.91   250.05   266.99   278.17
                              331.92   365.61   378.20   399.62   428.16
                              444.07   447.22   464.81   487.39   514.03
                              551.07   572.94   590.29   615.09   637.15
                              685.55   693.25   723.78   762.61   815.17
                              843.75   874.62   905.25   926.42   957.51
                             1000.59  1018.39  1021.30  1072.60  1102.88
                             1156.50  1217.82  1227.75  1327.30  1354.52
                             1400.70  1402.58  1406.49  1435.26  1451.07
                             1464.05  1496.70  1523.59  1527.82  1529.51
                             1544.19  1553.08  1578.13  1589.00  1603.17
                             1608.67  1614.99  1627.88  1632.75  1651.01
                             1672.87  1679.81  1694.02  1719.58  1736.67
                             1746.51  1757.57  1766.70  1780.64  1811.00
                             1827.05  1831.05  1850.18  1863.77  1877.26
                             1883.58  1900.72  1909.65  1923.82  1932.73
                             1951.35  1953.40  1966.25  1977.58  1986.18
                             1994.23  1998.49  2016.36  2030.59  2062.03
                             2102.51  2111.58  2118.94  2127.84  2129.86
                             2203.12  4672.98  4683.27  4687.80  4691.36
                             4704.36  4713.29  4724.49  4727.35  4731.17
                             4734.09  4740.91  4750.04  4752.06  4755.99
                             4760.93  4769.81  4836.93  4838.89  4842.01
                             4854.07  5597.48  5600.10

 Zero-point correction=                           0.370863 (Hartree/Particle)
 Thermal correction to Energy=                    0.390259
 Thermal correction to Enthalpy=                  0.391203
 Thermal correction to Gibbs Free Energy=         0.323227
 Sum of electronic and zero-point Energies=          -1297.607870
 Sum of electronic and thermal Energies=             -1297.588474
 Sum of electronic and thermal Enthalpies=           -1297.587530
 Sum of electronic and thermal Free Energies=        -1297.655506

                     E (Thermal)             CV                S
                      KCal/Mol        Cal/Mol-Kelvin    Cal/Mol-Kelvin
 Total                  244.891             78.238            143.067
 Electronic               0.000              0.000              0.000
 Translational            0.889              2.981             43.384
 Rotational               0.889              2.981             35.161
 Vibrational            243.114             72.276             64.521
 Vibration     1          0.594              1.981              5.290
 Vibration     2          0.595              1.978              4.809
 Vibration     3          0.596              1.976              4.703
 Vibration     4          0.599              1.966              4.052
 Vibration     5          0.599              1.964              3.947
 Vibration     6          0.608              1.935              3.149
 Vibration     7          0.617              1.906              2.716
 Vibration     8          0.627              1.875              2.394
 Vibration     9          0.632              1.860              2.272
 Vibration    10          0.635              1.849              2.196
 Vibration    11          0.652              1.794              1.874
 Vibration    12          0.665              1.756              1.702
 Vibration    13          0.670              1.741              1.643
 Vibration    14          0.679              1.715              1.547
 Vibration    15          0.691              1.678              1.430
 Vibration    16          0.698              1.657              1.370
 Vibration    17          0.700              1.653              1.358
 Vibration    18          0.708              1.629              1.295
 Vibration    19          0.719              1.598              1.218
 Vibration    20          0.732              1.560              1.134
 Vibration    21          0.752              1.506              1.027
 Vibration    22          0.764              1.474              0.969
 Vibration    23          0.774              1.448              0.926
 Vibration    24          0.789              1.410              0.867
 Vibration    25          0.802              1.377              0.818
 Vibration    26          0.833              1.302              0.720
 Vibration    27          0.838              1.290              0.705
 Vibration    28          0.858              1.243              0.651
 Vibration    29          0.885              1.184              0.587
 Vibration    30          0.922              1.104              0.511
 Vibration    31          0.944              1.061              0.474
 Vibration    32          0.967              1.015              0.436

 Normal termination of Gaussian 09 at Thu Mar 24 15:17:12 2016.
