 Gaussian 09, Revision B.01,
 Gaussian 09:  EM64L-G09RevB.01 12-Aug-2010

 -------------------------------------------------
 # freq=raman b3lyp/6-31+g(2d,p) geom=connectivity
 -------------------------------------------------

 -----------------
 550 5703/5703.com
 -----------------
 Symbolic Z-matrix:
 Charge =  0 Multiplicity = 1

                         Standard orientation:
 ---------------------------------------------------------------------
 Center     Atomic      Atomic             Coordinates (Angstroms)
 Number     Number       Type             X           Y           Z
 ---------------------------------------------------------------------
      1          8           0        5.155706   -0.152293   -0.301312
      2          6           0        3.816915    0.015180    0.187868
      3          6           0        3.233990    1.321005   -0.327703
      4          8           0        3.786096    2.521170    0.233210
      5          1           0        4.784039    2.501811    0.295950
      6          6           0        1.788531    1.653898    0.003322
      7          8           0        1.123502    2.711575   -0.703378
      8          1           0        1.725737    3.474599   -0.937044
      9          6           0        3.324243   -2.441675   -0.140476
     10          8           0        3.390061   -2.871288    1.227618
     11          1           0        3.743317   -3.797078    1.359217
     12          6           0        2.898981   -1.015122   -0.448578
     13          8           0        1.525387   -0.815562   -0.083737
     14          6           0        0.910702    0.457649   -0.328074
     15          8           0       -0.185490    0.273067    0.579369
     16          6           0       -1.471372    0.056625   -0.020507
     17          6           0       -1.651965   -1.450338    0.061676
     18          8           0       -0.668620   -1.997014   -0.829732
     19          1           0        0.182863   -1.633415   -0.453122
     20          6           0       -3.112994   -1.716234   -0.258859
     21          8           0       -3.322635   -3.022646    0.298509
     22          1           0       -4.006490   -3.547858   -0.208604
     23          6           0       -2.114387    2.483859    0.335593
     24          8           0       -3.232197    3.377859    0.447965
     25          1           0       -3.611667    3.119980    1.336032
     26          6           0       -2.461729    1.028171    0.600565
     27          8           0       -3.701282    0.730239   -0.058183
     28          6           0       -4.132095   -0.633756    0.058228
     29          8           0       -5.380502   -0.516361   -0.638709
     30          1           0       -6.001234   -0.018517   -0.101639
     31          1           0       -4.384566   -0.779374    1.087768
     32          1           0       -3.159542   -1.841721   -1.320455
     33          1           0       -1.444479   -1.777234    1.059167
     34          1           0       -1.391330    0.309273   -1.057167
     35          1           0       -2.547995    0.850573    1.652191
     36          1           0       -1.712575    2.563604   -0.652884
     37          1           0       -1.363743    2.787606    1.035002
     38          1           0        5.776745    0.206951    0.336540
     39          1           0        2.967004   -0.886476   -1.508636
     40          1           0        3.778744   -0.034717    1.256022
     41          1           0        3.357245    1.351011   -1.390157
     42          1           0        1.718057    1.849787    1.052874
     43          1           0        0.556739    0.515593   -1.336168
     44          1           0        4.294600   -2.585457   -0.567832
     45          1           0        2.645398   -3.094478   -0.648333
 ---------------------------------------------------------------------

 SCF Done:  E(RB3LYP) =  -1297.95304793     A.U. after   14 cycles

 The electronic state is 1-A.
 Alpha  occ. eigenvalues --  -19.19147 -19.18487 -19.17983 -19.17364 -19.16108
 Alpha  occ. eigenvalues --  -19.16087 -19.15641 -19.15599 -19.15309 -19.14782
 Alpha  occ. eigenvalues --  -19.12883 -10.30111 -10.29006 -10.26932 -10.26788
 Alpha  occ. eigenvalues --  -10.26215 -10.25779 -10.24485 -10.24335 -10.23702
 Alpha  occ. eigenvalues --  -10.23319 -10.23211 -10.22192  -1.10375  -1.07393
 Alpha  occ. eigenvalues --   -1.07079  -1.05277  -1.03499  -1.02951  -1.02419
 Alpha  occ. eigenvalues --   -1.02183  -1.01616  -0.99875  -0.99740  -0.82636
 Alpha  occ. eigenvalues --   -0.81012  -0.78073  -0.77333  -0.72218  -0.69564
 Alpha  occ. eigenvalues --   -0.67684  -0.64893  -0.64166  -0.62146  -0.61453
 Alpha  occ. eigenvalues --   -0.58935  -0.57047  -0.56136  -0.55185  -0.53979
 Alpha  occ. eigenvalues --   -0.53473  -0.53239  -0.52429  -0.51895  -0.50801
 Alpha  occ. eigenvalues --   -0.50055  -0.49711  -0.48568  -0.47521  -0.46332
 Alpha  occ. eigenvalues --   -0.45173  -0.44919  -0.44560  -0.43466  -0.42767
 Alpha  occ. eigenvalues --   -0.42611  -0.41632  -0.40797  -0.39422  -0.39186
 Alpha  occ. eigenvalues --   -0.38681  -0.37550  -0.37141  -0.36518  -0.35967
 Alpha  occ. eigenvalues --   -0.34798  -0.34338  -0.33834  -0.33178  -0.32828
 Alpha  occ. eigenvalues --   -0.32247  -0.31081  -0.30444  -0.30356  -0.29872
 Alpha  occ. eigenvalues --   -0.29010  -0.28844  -0.28225  -0.27889  -0.26390
 Alpha  occ. eigenvalues --   -0.25087
 Alpha virt. eigenvalues --   -0.03638  -0.01318  -0.00787  -0.00195   0.00510
 Alpha virt. eigenvalues --    0.00974   0.01812   0.02474   0.02615   0.03317
 Alpha virt. eigenvalues --    0.03498   0.04097   0.05075   0.05760   0.05840

 Mulliken atomic charges:
              1
     1  O   -0.546632
     2  C   -0.138924
     3  C    0.186526
     4  O   -0.591821
     5  H    0.322863
     6  C   -0.050635
     7  O   -0.571261
     8  H    0.358812
     9  C   -0.455568
    10  O   -0.537198
    11  H    0.339095
    12  C    0.481957
    13  O   -0.252817
    14  C    0.258497
    15  O   -0.225252
    16  C    0.245064
    17  C   -0.064185
    18  O   -0.574476
    19  H    0.429359
    20  C    0.114300
    21  O   -0.535359
    22  H    0.331645
    23  C   -0.119887
    24  O   -0.462680
    25  H    0.311916
    26  C   -0.178502
    27  O   -0.222929
    28  C    0.087672
    29  O   -0.499460
    30  H    0.332300
    31  H    0.106976
    32  H    0.136526
    33  H    0.135170
    34  H    0.118654
    35  H    0.108045
    36  H    0.152840
    37  H    0.153216
    38  H    0.332805
    39  H    0.116295
    40  H    0.148159
    41  H    0.130827
    42  H    0.146560
    43  H    0.139283
    44  H    0.153883
    45  H    0.148343
 Sum of Mulliken atomic charges =   0.00000

 Dipole moment (field-independent basis, Debye):
    X=              5.9750    Y=             -0.2559    Z=              1.5361  Tot=              6.1746
 Quadrupole moment (field-independent basis, Debye-Ang):
   XX=           -109.4949   YY=           -140.7198   ZZ=           -137.4830
   XY=              6.2147   XZ=             -8.5010   YZ=              3.9486

  Exact polarizability: 228.423   0.673 198.181   0.409   0.171 147.223
 Approx polarizability: 271.142  -2.705 257.859   1.992  -1.763 243.285

 ******    8 imaginary frequencies (negative Signs) ******

                     1                      2                      3
                     A                      A                      A
 Frequencies --  -289.5593              -239.8233              -202.1599
 Red. masses --     1.1215                 1.7880                 1.2153
 Frc consts  --     0.0554                 0.0606                 0.0293
 IR Inten    --   114.0849                20.0130                93.7432
 Raman Activ --     2.0501                 0.2649                 0.9371

                     4                      5                      6
                     A                      A                      A
 Frequencies --  -192.5558               -95.0210               -76.2856
 Red. masses --     1.7801                 5.8965                 5.6166
 Frc consts  --     0.0389                 0.0314                 0.0193
 IR Inten    --     3.9199                 0.1779                 1.3737
 Raman Activ --     0.0998                 0.0572                 0.2343

                     7                      8                      9
                     A                      A                      A
 Frequencies --   -35.7675               -12.8182                19.4693
 Red. masses --     5.9197                 6.2941                 6.4901
 Frc consts  --     0.0045                 0.0006                 0.0014
 IR Inten    --     0.6225                 0.8936                 0.6719
 Raman Activ --     0.0482                 0.0340                 0.0673

                    10                     11                     12
                     A                      A                      A
 Frequencies --    38.8771                72.9819                74.9641
 Red. masses --     6.9103                 6.7968                 5.8106
 Frc consts  --     0.0062                 0.0213                 0.0192
 IR Inten    --     0.3966                 0.6775                 2.0769
 Raman Activ --     0.0286                 0.1802                 0.0986

                    13                     14                     15
                     A                      A                      A
 Frequencies --   110.4208               137.9171               171.1490
 Red. masses --     5.9356                 6.2319                 4.9276
 Frc consts  --     0.0426                 0.0698                 0.0850
 IR Inten    --     1.3079                 2.1646                 0.2040
 Raman Activ --     0.3448                 0.1539                 0.0910

                    16                     17                     18
                     A                      A                      A
 Frequencies --   188.5151               208.7387               227.8188
 Red. masses --     6.7567                 6.1601                 6.9165
 Frc consts  --     0.1415                 0.1581                 0.2115
 IR Inten    --     0.1444                 1.3459                 3.8384
 Raman Activ --     1.3132                 1.5919                 0.6340

                    19                     20                     21
                     A                      A                      A
 Frequencies --   263.8255               271.5901               277.4519
 Red. masses --     6.3244                 4.5575                 4.9728
 Frc consts  --     0.2594                 0.1981                 0.2255
 IR Inten    --     3.1448                10.9099                 1.8643
 Raman Activ --     0.2906                 0.9631                 2.0137

                    22                     23                     24
                     A                      A                      A
 Frequencies --   301.6608               312.1201               334.7532
 Red. masses --     5.1971                 5.2273                 6.9043
 Frc consts  --     0.2786                 0.3000                 0.4558
 IR Inten    --     8.5931                10.2477                 1.2329
 Raman Activ --     1.1362                 0.5148                 4.5393

                    25                     26                     27
                     A                      A                      A
 Frequencies --   354.2127               367.6791               404.6297
 Red. masses --     5.1201                 7.0239                 4.7314
 Frc consts  --     0.3785                 0.5595                 0.4564
 IR Inten    --     9.9814                 6.9743                 1.3448
 Raman Activ --     0.2550                 0.5039                 5.6902

                    28                     29                     30
                     A                      A                      A
 Frequencies --   421.7427               429.3714               442.2032
 Red. masses --     5.9098                 5.6292                 5.2953
 Frc consts  --     0.6193                 0.6115                 0.6101
 IR Inten    --     1.7038                 1.9405                 4.1120
 Raman Activ --     4.0647                 0.6932                 1.0277

                    31                     32                     33
                     A                      A                      A
 Frequencies --   465.8314               478.1589               505.5378
 Red. masses --     4.4315                 4.2140                 3.6623
 Frc consts  --     0.5666                 0.5677                 0.5515
 IR Inten    --    24.6144                30.4159                 8.6994
 Raman Activ --     1.3420                 5.0531                 7.4069

                    34                     35                     36
                     A                      A                      A
 Frequencies --   535.0392               550.4936               581.6781
 Red. masses --     4.7475                 4.3669                 3.9355
 Frc consts  --     0.8007                 0.7797                 0.7845
 IR Inten    --    10.8821                 5.6796                16.8705
 Raman Activ --     0.4879                 0.9994                 1.1015

                    37                     38                     39
                     A                      A                      A
 Frequencies --   593.4925               616.8315               634.4583
 Red. masses --     3.7722                 3.0066                 1.1480
 Frc consts  --     0.7829                 0.6740                 0.2723
 IR Inten    --    14.5923                 8.6057               109.3918
 Raman Activ --     3.6872                 1.5563                 2.1332

                    40                     41                     42
                     A                      A                      A
 Frequencies --   654.6439               675.0263               687.1538
 Red. masses --     3.1215                 4.2140                 1.2140
 Frc consts  --     0.7882                 1.1313                 0.3377
 IR Inten    --    24.4286                 5.3344                49.8852
 Raman Activ --     2.3265                 0.7161                 1.5353

                    43                     44                     45
                     A                      A                      A
 Frequencies --   708.5525               719.1746               728.5406
 Red. masses --     1.1607                 2.4517                 1.0986
 Frc consts  --     0.3433                 0.7471                 0.3436
 IR Inten    --   125.3552                59.9697                97.9296
 Raman Activ --     1.2101                 0.4481                 2.3157

                    46                     47                     48
                     A                      A                      A
 Frequencies --   735.5324               842.0743               859.9588
 Red. masses --     1.0816                 3.1508                 2.5524
 Frc consts  --     0.3448                 1.3164                 1.1121
 IR Inten    --    79.2382                42.0693                 2.0947
 Raman Activ --     2.2191                 5.6759                 4.8280

                    49                     50                     51
                     A                      A                      A
 Frequencies --   875.1178               922.2686               929.8164
 Red. masses --     2.5656                 4.5895                 1.2304
 Frc consts  --     1.1576                 2.3000                 0.6267
 IR Inten    --     4.7620               261.2695                60.8610
 Raman Activ --     1.7159                 5.2677                 0.3434

                    52                     53                     54
                     A                      A                      A
 Frequencies --   944.0492               980.5894               983.8385
 Red. masses --     6.2265                 4.5213                 6.3505
 Frc consts  --     3.2695                 2.5615                 3.6217
 IR Inten    --    75.9705                54.3583               142.7497
 Raman Activ --     1.6329                 2.1496                 1.5222

                    55                     56                     57
                     A                      A                      A
 Frequencies --  1000.7289              1008.0528              1015.2138
 Red. masses --     3.7072                 5.2961                 3.5876
 Frc consts  --     2.1874                 3.1708                 2.1786
 IR Inten    --   143.2662               147.0001                18.7415
 Raman Activ --     1.8666                 1.7497                 3.0869

                    58                     59                     60
                     A                      A                      A
 Frequencies --  1027.9565              1035.6879              1048.5822
 Red. masses --     4.8554                 4.5247                 5.9036
 Frc consts  --     3.0229                 2.8595                 3.8245
 IR Inten    --   110.9366               235.0662               156.0855
 Raman Activ --    10.4447                 1.6896                12.8142

                    61                     62                     63
                     A                      A                      A
 Frequencies --  1055.3619              1063.4410              1078.0220
 Red. masses --     3.6441                 4.9478                 3.9947
 Frc consts  --     2.3913                 3.2968                 2.7352
 IR Inten    --    68.1656                79.1280                47.1064
 Raman Activ --     6.2249                 2.0194                 7.5598

                    64                     65                     66
                     A                      A                      A
 Frequencies --  1086.0976              1095.6509              1105.4346
 Red. masses --     3.5261                 3.0089                 3.8015
 Frc consts  --     2.4507                 2.1281                 2.7370
 IR Inten    --     3.0641                32.4787                46.7651
 Raman Activ --     8.4752                 5.2114                 3.8226

                    67                     68                     69
                     A                      A                      A
 Frequencies --  1115.4096              1127.5332              1129.6847
 Red. masses --     3.0443                 1.8934                 2.1848
 Frc consts  --     2.2315                 1.4183                 1.6428
 IR Inten    --     8.3122                45.8530                14.1630
 Raman Activ --     1.8156                 2.4947                 4.1297

                    70                     71                     72
                     A                      A                      A
 Frequencies --  1132.3547              1139.2046              1153.9510
 Red. masses --     1.9037                 2.1401                 1.9204
 Frc consts  --     1.4381                 1.6364                 1.5067
 IR Inten    --    10.3292                61.9518                 3.4317
 Raman Activ --     2.3522                 3.3665                 2.3640

                    73                     74                     75
                     A                      A                      A
 Frequencies --  1157.1148              1174.1537              1185.6828
 Red. masses --     2.0210                 1.8970                 1.5593
 Frc consts  --     1.5943                 1.5409                 1.2916
 IR Inten    --    15.2127                 9.4943                 7.9205
 Raman Activ --     4.9252                 4.0468                 1.5045

                    76                     77                     78
                     A                      A                      A
 Frequencies --  1198.1901              1225.4023              1229.6981
 Red. masses --     1.5282                 1.3562                 1.2984
 Frc consts  --     1.2927                 1.1998                 1.1568
 IR Inten    --    14.1499                12.9880                 4.0355
 Raman Activ --     1.1469                 0.6090                 1.9255

                    79                     80                     81
                     A                      A                      A
 Frequencies --  1233.5346              1244.8187              1249.6103
 Red. masses --     1.3432                 1.2750                 1.2321
 Frc consts  --     1.2042                 1.1641                 1.1336
 IR Inten    --     0.4883                17.5350                10.5348
 Raman Activ --     2.7695                 1.4649                 2.5980

                    82                     83                     84
                     A                      A                      A
 Frequencies --  1254.1899              1272.5907              1276.6126
 Red. masses --     1.2890                 1.3627                 1.2151
 Frc consts  --     1.1946                 1.3002                 1.1668
 IR Inten    --     1.1847                30.2473                30.5913
 Raman Activ --     2.0136                 2.2314                 3.3177

                    85                     86                     87
                     A                      A                      A
 Frequencies --  1280.5962              1282.6684              1305.3433
 Red. masses --     1.1236                 1.1752                 1.2645
 Frc consts  --     1.0857                 1.1392                 1.2694
 IR Inten    --     4.2270                 8.0261                14.7080
 Raman Activ --     9.8214                 3.1572                 2.1889

                    88                     89                     90
                     A                      A                      A
 Frequencies --  1314.3095              1319.1441              1321.4795
 Red. masses --     1.2733                 1.2949                 1.2688
 Frc consts  --     1.2960                 1.3276                 1.3054
 IR Inten    --     7.2918                94.7357                17.2519
 Raman Activ --     0.5974                 5.5705                 1.1461

                    91                     92                     93
                     A                      A                      A
 Frequencies --  1329.3171              1339.1519              1344.4173
 Red. masses --     1.2658                 1.2110                 1.3283
 Frc consts  --     1.3179                 1.2796                 1.4145
 IR Inten    --    21.1390                21.2669                31.5312
 Raman Activ --     5.1519                 8.7797                 1.1193

                    94                     95                     96
                     A                      A                      A
 Frequencies --  1349.4998              1355.1119              1368.3925
 Red. masses --     1.3597                 1.3465                 1.3850
 Frc consts  --     1.4590                 1.4568                 1.5280
 IR Inten    --    16.1619                11.8512                10.9144
 Raman Activ --     5.0399                 2.9719                 8.1813

                    97                     98                     99
                     A                      A                      A
 Frequencies --  1377.4808              1394.1578              1410.1882
 Red. masses --     1.5631                 1.5238                 1.7649
 Frc consts  --     1.7475                 1.7450                 2.0678
 IR Inten    --    15.3003                13.9592                16.5132
 Raman Activ --     6.4211                 0.8317                 5.5248

                   100                    101                    102
                     A                      A                      A
 Frequencies --  1424.1841              1426.9220              1430.4983
 Red. masses --     1.5521                 1.3689                 1.2722
 Frc consts  --     1.8549                 1.6422                 1.5339
 IR Inten    --    52.3075                30.1694                 9.8934
 Raman Activ --     2.0866                 3.1883                 7.1211

                   103                    104                    105
                     A                      A                      A
 Frequencies --  1433.8576              1453.3825              1458.1318
 Red. masses --     1.4752                 1.0627                 1.0727
 Frc consts  --     1.7870                 1.3225                 1.3437
 IR Inten    --    14.7430                 3.4510                14.5323
 Raman Activ --     0.8617                 6.9013                 5.8502

                   106                    107                    108
                     A                      A                      A
 Frequencies --  1493.0728              1525.3426              3231.5750
 Red. masses --     1.1880                 1.2484                 1.0678
 Frc consts  --     1.5604                 1.7113                 6.5698
 IR Inten    --    80.7700                33.6141              1104.6369
 Raman Activ --     2.1897                 1.9352               175.7491

                   109                    110                    111
                     A                      A                      A
 Frequencies --  3250.8562              3263.1550              3266.6963
 Red. masses --     1.0817                 1.0616                 1.0720
 Frc consts  --     6.7351                 6.6601                 6.7401
 IR Inten    --    25.5400                16.9813                40.6123
 Raman Activ --    86.2308                62.5384                25.5129

                   112                    113                    114
                     A                      A                      A
 Frequencies --  3270.1152              3276.2915              3276.9476
 Red. masses --     1.0684                 1.0831                 1.0818
 Frc consts  --     6.7313                 6.8497                 6.8444
 IR Inten    --    37.7075                22.6095                 2.7340
 Raman Activ --   170.3589                45.5203                15.9468

                   115                    116                    117
                     A                      A                      A
 Frequencies --  3282.4567              3284.4027              3291.3447
 Red. masses --     1.0850                 1.0817                 1.0853
 Frc consts  --     6.8876                 6.8748                 6.9268
 IR Inten    --     5.3783                31.1308                 6.5035
 Raman Activ --    25.7481               190.9608                95.4909

                   118                    119                    120
                     A                      A                      A
 Frequencies --  3298.0552              3301.0234              3310.1944
 Red. masses --     1.0858                 1.0857                 1.0880
 Frc consts  --     6.9588                 6.9703                 7.0243
 IR Inten    --    31.3962                47.6874                37.8463
 Raman Activ --     9.5919                 9.8432                 8.1089

                   121                    122                    123
                     A                      A                      A
 Frequencies --  3312.3408              3334.4144              3358.0748
 Red. masses --     1.1048                 1.1041                 1.0661
 Frc consts  --     7.1416                 7.2325                 7.0831
 IR Inten    --    17.8691                30.5344                 9.4388
 Raman Activ --    57.8793                41.4559               198.7036

                   124                    125                    126
                     A                      A                      A
 Frequencies --  3361.8564              3371.0981              3375.8921
 Red. masses --     1.0673                 1.0687                 1.0679
 Frc consts  --     7.1070                 7.1557                 7.1706
 IR Inten    --    30.7804                 8.3766                68.6068
 Raman Activ --   201.9412                42.7480               163.8375

                   127                    128                    129
                     A                      A                      A
 Frequencies --  3382.6810              3884.9728              3890.7309
 Red. masses --     1.0667                 1.0673                 1.0671
 Frc consts  --     7.1915                 9.4913                 9.5174
 IR Inten    --    52.9444                59.8438                83.6108
 Raman Activ --   119.9861               109.4444                99.5232

 - Thermochemistry -
 -------------------
 Temperature   298.150 Kelvin.  Pressure   1.00000 Atm.
 Atom     1 has atomic number  8 and mass  15.99491

 Molecular mass:   342.11621 amu.
 Principal axes and moments of inertia in atomic units:
                           1         2         3
     Eigenvalues --  4508.79905********************
           X            0.99999  -0.00250  -0.00290
           Y            0.00251   0.99999   0.00390
           Z            0.00289  -0.00391   0.99999
 This molecule is an asymmetric top.
 Rotational symmetry number  1.
 Warning -- assumption of classical behavior for rotation
           may cause significant error
 Rotational temperatures (Kelvin)      0.01921     0.00721     0.00548
 Rotational constants (GHZ):           0.40027     0.15025     0.11409
    8 imaginary frequencies ignored.
 Zero-point vibrational energy     971198.7 (Joules/Mol)
                                  232.12206 (Kcal/Mol)
 Warning -- explicit consideration of  30 degrees of freedom as
           vibrations may cause significant error
 Vibrational temperatures:     28.01    55.94   105.00   107.86   158.87
          (Kelvin)            198.43   246.24   271.23   300.33   327.78
                              379.59   390.76   399.19   434.02   449.07
                              481.63   509.63   529.01   582.17   606.79
                              617.77   636.23   670.23   687.96   727.36
                              769.80   792.04   836.90   853.90   887.48
                              912.84   941.89   971.21   988.66  1019.45
                             1034.73  1048.21  1058.27  1211.56  1237.29
                             1259.10  1326.94  1337.80  1358.27  1410.85
                             1415.52  1439.82  1450.36  1460.66  1479.00
                             1490.12  1508.67  1518.43  1530.05  1551.03
                             1562.65  1576.40  1590.47  1604.82  1622.27
                             1625.36  1629.20  1639.06  1660.28  1664.83
                             1689.34  1705.93  1723.93  1763.08  1769.26
                             1774.78  1791.01  1797.91  1804.50  1830.97
                             1836.76  1842.49  1845.47  1878.10  1891.00
                             1897.95  1901.31  1912.59  1926.74  1934.31
                             1941.63  1949.70  1968.81  1981.89  2005.88
                             2028.94  2049.08  2053.02  2058.17  2063.00
                             2091.09  2097.92  2148.20  2194.62  4649.51
                             4677.25  4694.95  4700.04  4704.96  4713.85
                             4714.79  4722.72  4725.52  4735.51  4745.16
                             4749.43  4762.63  4765.71  4797.47  4831.51
                             4836.96  4850.25  4857.15  4866.92  5589.60
                             5597.89

 Zero-point correction=                           0.369910 (Hartree/Particle)
 Thermal correction to Energy=                    0.387924
 Thermal correction to Enthalpy=                  0.388868
 Thermal correction to Gibbs Free Energy=         0.323220
 Sum of electronic and zero-point Energies=          -1297.583138
 Sum of electronic and thermal Energies=             -1297.565124
 Sum of electronic and thermal Enthalpies=           -1297.564180
 Sum of electronic and thermal Free Energies=        -1297.629828

                     E (Thermal)             CV                S
                      KCal/Mol        Cal/Mol-Kelvin    Cal/Mol-Kelvin
 Total                  243.426             74.211            138.167
 Electronic               0.000              0.000              0.000
 Translational            0.889              2.981             43.384
 Rotational               0.889              2.981             35.104
 Vibrational            241.648             68.250             59.679
 Vibration     1          0.593              1.986              6.688
 Vibration     2          0.594              1.981              5.316
 Vibration     3          0.599              1.967              4.071
 Vibration     4          0.599              1.966              4.019
 Vibration     5          0.606              1.941              3.262
 Vibration     6          0.614              1.915              2.833
 Vibration     7          0.626              1.878              2.423
 Vibration     8          0.633              1.856              2.242
 Vibration     9          0.642              1.827              2.055
 Vibration    10          0.651              1.799              1.896
 Vibration    11          0.670              1.739              1.636
 Vibration    12          0.675              1.726              1.586
 Vibration    13          0.678              1.715              1.549
 Vibration    14          0.694              1.671              1.408
 Vibration    15          0.700              1.651              1.351
 Vibration    16          0.716              1.606              1.237
 Vibration    17          0.730              1.567              1.147
 Vibration    18          0.740              1.539              1.089
 Vibration    19          0.770              1.460              0.946
 Vibration    20          0.784              1.423              0.886
 Vibration    21          0.791              1.406              0.861
 Vibration    22          0.802              1.378              0.820
 Vibration    23          0.823              1.326              0.749
 Vibration    24          0.835              1.299              0.715
 Vibration    25          0.861              1.238              0.644
 Vibration    26          0.890              1.173              0.576
 Vibration    27          0.906              1.139              0.543
 Vibration    28          0.938              1.071              0.482
 Vibration    29          0.951              1.046              0.461
 Vibration    30          0.977              0.996              0.422

 Normal termination of Gaussian 09 at Sat Apr  2 23:31:01 2016.
