 Gaussian 09, Revision B.01,
 Gaussian 09:  EM64L-G09RevB.01 12-Aug-2010

 -------------------------------------------------
 # freq=raman b3lyp/6-31+g(2d,p) geom=connectivity
 -------------------------------------------------

 -----------------
 483 8000/8000.com
 -----------------
 Symbolic Z-matrix:
 Charge =  0 Multiplicity = 1

                         Standard orientation:
 ---------------------------------------------------------------------
 Center     Atomic      Atomic             Coordinates (Angstroms)
 Number     Number       Type             X           Y           Z
 ---------------------------------------------------------------------
      1          8           0       -5.029325   -0.358592    0.410178
      2          6           0       -3.782666   -0.083943   -0.245803
      3          6           0       -3.252793    1.238741    0.284947
      4          8           0       -4.230350    2.241283   -0.027889
      5          1           0       -5.144713    1.842961    0.051065
      6          6           0       -1.874317    1.614504   -0.231562
      7          8           0       -1.356242    2.820314    0.348838
      8          1           0       -0.491169    2.983372   -0.126686
      9          6           0       -3.233167   -2.564045   -0.260571
     10          8           0       -4.209610   -3.276290    0.514170
     11          1           0       -4.118418   -4.251614    0.316293
     12          6           0       -2.783291   -1.166002    0.129227
     13          8           0       -1.490800   -0.849427   -0.409316
     14          6           0       -1.025065    0.402775    0.116109
     15          8           0        0.288112    0.513776   -0.450315
     16          6           0        1.565970    0.195644    0.121315
     17          6           0        2.108284   -1.124534   -0.402118
     18          8           0        1.172004   -2.208233   -0.310991
     19          1           0        0.308662   -1.763848   -0.548031
     20          6           0        3.429912   -1.525463    0.232867
     21          8           0        3.952535   -2.689500   -0.422840
     22          1           0        4.828424   -2.986440   -0.041016
     23          6           0        2.288211    2.706137    0.205263
     24          8           0        1.293590    3.310189   -0.633988
     25          1           0        1.438430    4.291409   -0.504190
     26          6           0        2.634732    1.255661   -0.086844
     27          8           0        3.854465    0.861122    0.559995
     28          6           0        4.385329   -0.361129    0.029274
     29          8           0        5.618555   -0.724267    0.669046
     30          1           0        6.261606   -0.978831    0.003252
     31          1           0        4.561687   -0.236085   -1.018658
     32          1           0        3.296262   -1.716624    1.277134
     33          1           0        2.303525   -0.978649   -1.443990
     34          1           0        1.424074    0.088184    1.176406
     35          1           0        2.849122    1.229786   -1.134827
     36          1           0        3.185404    3.283142    0.121536
     37          1           0        1.946850    2.766527    1.217550
     38          1           0       -5.696768   -0.570017   -0.246648
     39          1           0       -2.355559   -3.175353   -0.292311
     40          1           0       -3.614055   -2.500995   -1.258494
     41          1           0       -2.691718   -1.152685    1.195218
     42          1           0       -3.914129   -0.040856   -1.306822
     43          1           0       -3.191151    1.162190    1.350424
     44          1           0       -1.913952    1.724150   -1.295191
     45          1           0       -0.942712    0.327190    1.180254
 ---------------------------------------------------------------------

 SCF Done:  E(RB3LYP) =  -1297.99033233     A.U. after   13 cycles

 The electronic state is 1-A.
 Alpha  occ. eigenvalues --  -19.19126 -19.18635 -19.18347 -19.18045 -19.17588
 Alpha  occ. eigenvalues --  -19.17325 -19.16332 -19.16089 -19.14804 -19.14636
 Alpha  occ. eigenvalues --  -19.14157 -10.30862 -10.30516 -10.26401 -10.26020
 Alpha  occ. eigenvalues --  -10.25614 -10.25412 -10.25375 -10.24797 -10.24586
 Alpha  occ. eigenvalues --  -10.24253 -10.24250 -10.23993  -1.09711  -1.08931
 Alpha  occ. eigenvalues --   -1.05869  -1.05710  -1.04090  -1.03717  -1.02755
 Alpha  occ. eigenvalues --   -1.02481  -1.02101  -1.00696  -1.00418  -0.82448
 Alpha  occ. eigenvalues --   -0.80718  -0.79354  -0.78577  -0.72305  -0.70284
 Alpha  occ. eigenvalues --   -0.67422  -0.64461  -0.62850  -0.62439  -0.61438
 Alpha  occ. eigenvalues --   -0.60742  -0.56164  -0.55877  -0.55087  -0.54815
 Alpha  occ. eigenvalues --   -0.54154  -0.53491  -0.53127  -0.51433  -0.51069
 Alpha  occ. eigenvalues --   -0.50833  -0.50432  -0.49814  -0.48788  -0.46799
 Alpha  occ. eigenvalues --   -0.46093  -0.45437  -0.44617  -0.43895  -0.43190
 Alpha  occ. eigenvalues --   -0.42850  -0.42106  -0.41469  -0.40407  -0.39492
 Alpha  occ. eigenvalues --   -0.39355  -0.38131  -0.37455  -0.36589  -0.35979
 Alpha  occ. eigenvalues --   -0.35024  -0.34558  -0.34514  -0.33997  -0.33021
 Alpha  occ. eigenvalues --   -0.32457  -0.31510  -0.31063  -0.30790  -0.30131
 Alpha  occ. eigenvalues --   -0.29711  -0.28825  -0.28229  -0.28122  -0.26722
 Alpha  occ. eigenvalues --   -0.26510
 Alpha virt. eigenvalues --   -0.02178  -0.02047  -0.01881  -0.00319   0.00393
 Alpha virt. eigenvalues --    0.01001   0.01717   0.02152   0.03234   0.03429
 Alpha virt. eigenvalues --    0.03900   0.04110   0.04659   0.05145   0.05358

 Mulliken atomic charges:
              1
     1  O   -0.532589
     2  C   -0.090586
     3  C    0.280413
     4  O   -0.571201
     5  H    0.342523
     6  C   -0.159591
     7  O   -0.545168
     8  H    0.403994
     9  C   -0.297538
    10  O   -0.510710
    11  H    0.337257
    12  C    0.118759
    13  O   -0.254767
    14  C    0.366530
    15  O   -0.319406
    16  C    0.247632
    17  C    0.226309
    18  O   -0.559905
    19  H    0.376413
    20  C    0.070382
    21  O   -0.547871
    22  H    0.337002
    23  C   -0.327805
    24  O   -0.531132
    25  H    0.354919
    26  C   -0.045675
    27  O   -0.295523
    28  C    0.193703
    29  O   -0.571404
    30  H    0.341636
    31  H    0.127918
    32  H    0.131396
    33  H    0.115914
    34  H    0.112099
    35  H    0.118334
    36  H    0.150413
    37  H    0.157936
    38  H    0.341899
    39  H    0.146898
    40  H    0.132345
    41  H    0.120869
    42  H    0.127935
    43  H    0.123947
    44  H    0.132513
    45  H    0.122985
 Sum of Mulliken atomic charges =   0.00000

 Dipole moment (field-independent basis, Debye):
    X=              1.7457    Y=             -0.1161    Z=             -2.3074  Tot=              2.8957
 Quadrupole moment (field-independent basis, Debye-Ang):
   XX=           -117.6334   YY=           -134.4445   ZZ=           -141.4763
   XY=             15.7385   XZ=              3.7865   YZ=             -0.7647

  Exact polarizability: 233.686  -1.584 198.631   0.884   0.349 144.710
 Approx polarizability: 274.242  -1.595 258.560   0.581   0.374 240.159

 ******    6 imaginary frequencies (negative Signs) ******

                     1                      2                      3
                     A                      A                      A
 Frequencies --  -307.8325              -273.6052              -264.4876
 Red. masses --     1.7019                 1.1974                 1.7423
 Frc consts  --     0.0950                 0.0528                 0.0718
 IR Inten    --     6.5333               139.1738                 2.7460
 Raman Activ --     0.0981                 1.1983                 0.0541

                     4                      5                      6
                     A                      A                      A
 Frequencies --  -162.0527               -70.1347               -49.0963
 Red. masses --     1.2481                 6.6369                 6.1299
 Frc consts  --     0.0193                 0.0192                 0.0087
 IR Inten    --    97.4116                 0.5814                 1.5014
 Raman Activ --     0.7396                 0.0364                 0.0211

                     7                      8                      9
                     A                      A                      A
 Frequencies --    46.8972                59.2214                70.1128
 Red. masses --     7.1661                 5.6580                 5.9161
 Frc consts  --     0.0093                 0.0117                 0.0171
 IR Inten    --     0.6105                 4.0321                 6.6990
 Raman Activ --     0.1311                 0.0899                 0.1774

                    10                     11                     12
                     A                      A                      A
 Frequencies --    94.4794               111.8970               137.4904
 Red. masses --     6.7965                 6.6966                 5.6017
 Frc consts  --     0.0357                 0.0494                 0.0624
 IR Inten    --     0.2449                 0.8033                 1.7453
 Raman Activ --     0.0734                 0.1097                 0.0808

                    13                     14                     15
                     A                      A                      A
 Frequencies --   146.4644               168.1216               172.2008
 Red. masses --     6.4293                 6.3155                 6.4559
 Frc consts  --     0.0813                 0.1052                 0.1128
 IR Inten    --     2.8715                 4.2281                 0.7236
 Raman Activ --     0.4210                 0.8737                 0.4605

                    16                     17                     18
                     A                      A                      A
 Frequencies --   187.3806               221.5123               264.8766
 Red. masses --     6.5988                 5.9480                 4.3572
 Frc consts  --     0.1365                 0.1720                 0.1801
 IR Inten    --     0.8133                 1.4002                13.3666
 Raman Activ --     1.2727                 1.1110                 0.1706

                    19                     20                     21
                     A                      A                      A
 Frequencies --   278.9150               292.5550               297.8205
 Red. masses --     5.0166                 5.3872                 5.9249
 Frc consts  --     0.2299                 0.2717                 0.3096
 IR Inten    --     4.1150                 3.8723                 0.2555
 Raman Activ --     0.4829                 0.3946                 2.1827

                    22                     23                     24
                     A                      A                      A
 Frequencies --   307.2743               311.7577               323.7593
 Red. masses --     5.9527                 5.7708                 6.2474
 Frc consts  --     0.3311                 0.3305                 0.3858
 IR Inten    --     0.3405                 6.4378                11.1324
 Raman Activ --     1.5058                 0.9768                 2.7306

                    25                     26                     27
                     A                      A                      A
 Frequencies --   328.5045               340.2094               365.9281
 Red. masses --     4.7518                 5.2440                 5.9296
 Frc consts  --     0.3021                 0.3576                 0.4678
 IR Inten    --     0.5044                 9.5803                 1.8580
 Raman Activ --     2.8879                 0.6461                 1.7731

                    28                     29                     30
                     A                      A                      A
 Frequencies --   397.9664               417.0137               421.3213
 Red. masses --     4.0512                 6.3646                 4.4559
 Frc consts  --     0.3780                 0.6521                 0.4660
 IR Inten    --    10.8074                 4.4730                 3.0642
 Raman Activ --     3.9455                 3.5768                 0.9667

                    31                     32                     33
                     A                      A                      A
 Frequencies --   432.9406               463.6439               484.2655
 Red. masses --     6.1519                 3.6715                 4.5124
 Frc consts  --     0.6794                 0.4650                 0.6235
 IR Inten    --     0.1255                 3.9950                 8.4719
 Raman Activ --     3.9285                 4.0180                 0.4047

                    34                     35                     36
                     A                      A                      A
 Frequencies --   503.5984               525.3116               559.5370
 Red. masses --     4.2259                 3.5027                 4.2042
 Frc consts  --     0.6314                 0.5695                 0.7755
 IR Inten    --    14.8109                 7.6248                21.3901
 Raman Activ --     1.2616                 4.8389                 0.7473

                    37                     38                     39
                     A                      A                      A
 Frequencies --   567.3179               578.3441               592.8689
 Red. masses --     3.8116                 4.6137                 4.2081
 Frc consts  --     0.7228                 0.9092                 0.8715
 IR Inten    --    14.1898                16.8579                30.1542
 Raman Activ --     0.4726                 0.4752                 1.1671

                    40                     41                     42
                     A                      A                      A
 Frequencies --   599.2520               676.5821               686.2594
 Red. masses --     3.6909                 3.6812                 1.1705
 Frc consts  --     0.7809                 0.9929                 0.3248
 IR Inten    --    21.9410                37.8301                80.6501
 Raman Activ --     1.1715                 0.8881                 1.9640

                    43                     44                     45
                     A                      A                      A
 Frequencies --   731.9468               755.2167               757.6152
 Red. masses --     1.0561                 1.0954                 1.0587
 Frc consts  --     0.3334                 0.3681                 0.3580
 IR Inten    --    89.5657               102.7054                83.4020
 Raman Activ --     1.8243                 1.4311                 1.4862

                    46                     47                     48
                     A                      A                      A
 Frequencies --   807.5818               846.2719               850.2152
 Red. masses --     1.0810                 1.6780                 1.5348
 Frc consts  --     0.4154                 0.7081                 0.6537
 IR Inten    --    89.5824                15.4717                19.8528
 Raman Activ --     2.1242                 0.5355                 0.7664

                    49                     50                     51
                     A                      A                      A
 Frequencies --   867.2239               914.4585               962.3162
 Red. masses --     1.3579                 4.6927                 3.8848
 Frc consts  --     0.6017                 2.3121                 2.1196
 IR Inten    --    41.0255               117.3458               137.1007
 Raman Activ --     1.4775                 2.3559                 1.3977

                    52                     53                     54
                     A                      A                      A
 Frequencies --   972.2177               978.3504               984.2802
 Red. masses --     7.7037                 6.0975                 5.1096
 Frc consts  --     4.2902                 3.4386                 2.9166
 IR Inten    --    81.5395                84.7970               236.9988
 Raman Activ --     1.2453                 0.3909                 0.8793

                    55                     56                     57
                     A                      A                      A
 Frequencies --   997.0117              1009.6178              1017.5622
 Red. masses --     5.1160                 6.4199                 6.7810
 Frc consts  --     2.9962                 3.8556                 4.1368
 IR Inten    --   288.2961                74.3265               228.9223
 Raman Activ --     2.6769                 5.3391                 0.3769

                    58                     59                     60
                     A                      A                      A
 Frequencies --  1023.9123              1038.9332              1056.9723
 Red. masses --     7.3070                 7.0689                 6.2086
 Frc consts  --     4.5135                 4.4955                 4.0867
 IR Inten    --   228.4501               193.5839                68.9729
 Raman Activ --     3.0435                 1.4195                 3.2711

                    61                     62                     63
                     A                      A                      A
 Frequencies --  1065.5314              1071.2167              1081.3800
 Red. masses --     2.9397                 4.8458                 3.8868
 Frc consts  --     1.9664                 3.2762                 2.6779
 IR Inten    --    32.0215                 5.6817                16.8012
 Raman Activ --    12.4055                 4.0175                18.5339

                    64                     65                     66
                     A                      A                      A
 Frequencies --  1090.3770              1096.7567              1107.6437
 Red. masses --     2.5252                 2.1619                 3.5822
 Frc consts  --     1.7689                 1.5321                 2.5894
 IR Inten    --    91.9948                39.1739                28.3914
 Raman Activ --     4.6307                 4.1747                13.7046

                    67                     68                     69
                     A                      A                      A
 Frequencies --  1120.5903              1130.4332              1135.8388
 Red. masses --     2.6394                 2.6423                 3.0723
 Frc consts  --     1.9527                 1.9894                 2.3353
 IR Inten    --     5.7687                13.5245                46.4324
 Raman Activ --     2.7813                 7.1684                 4.1129

                    70                     71                     72
                     A                      A                      A
 Frequencies --  1141.7281              1150.5507              1153.3703
 Red. masses --     1.8254                 1.8849                 2.7229
 Frc consts  --     1.4019                 1.4701                 2.1341
 IR Inten    --     5.7715                 8.2820                 9.4662
 Raman Activ --     1.7575                 0.9801                 3.6044

                    73                     74                     75
                     A                      A                      A
 Frequencies --  1160.6231              1168.0414              1199.7179
 Red. masses --     1.9207                 1.8787                 1.8335
 Frc consts  --     1.5244                 1.5102                 1.5549
 IR Inten    --    10.1939                 6.6507                 2.5794
 Raman Activ --     3.2814                 2.5890                 1.8404

                    76                     77                     78
                     A                      A                      A
 Frequencies --  1202.2088              1215.0780              1221.7249
 Red. masses --     1.4714                 1.4723                 1.3170
 Frc consts  --     1.2529                 1.2807                 1.1582
 IR Inten    --    16.4108                 9.2901                 3.7536
 Raman Activ --     0.0975                 2.3906                 1.2205

                    79                     80                     81
                     A                      A                      A
 Frequencies --  1242.5440              1253.1435              1260.0230
 Red. masses --     1.3217                 1.1501                 1.2016
 Frc consts  --     1.2023                 1.0641                 1.1240
 IR Inten    --    21.1974                20.9055                19.9641
 Raman Activ --     1.2065                 1.1596                 0.5746

                    82                     83                     84
                     A                      A                      A
 Frequencies --  1277.0194              1283.5551              1289.2881
 Red. masses --     1.1931                 1.3147                 1.2227
 Frc consts  --     1.1464                 1.2761                 1.1975
 IR Inten    --     5.0082                18.1685                 2.6309
 Raman Activ --     0.7868                 4.5510                 0.7477

                    85                     86                     87
                     A                      A                      A
 Frequencies --  1294.0556              1297.0768              1312.5710
 Red. masses --     1.2581                 1.3134                 1.2614
 Frc consts  --     1.2413                 1.3019                 1.2804
 IR Inten    --    19.3412                41.2251                27.1705
 Raman Activ --     3.9247                 2.7311                 2.1311

                    88                     89                     90
                     A                      A                      A
 Frequencies --  1317.6973              1326.0530              1328.7351
 Red. masses --     1.2226                 1.2524                 1.3374
 Frc consts  --     1.2507                 1.2975                 1.3912
 IR Inten    --     5.1110                 4.6215                27.8138
 Raman Activ --    12.0972                 7.3521                 5.0750

                    91                     92                     93
                     A                      A                      A
 Frequencies --  1339.5983              1347.0855              1352.7105
 Red. masses --     1.2319                 1.2190                 1.1921
 Frc consts  --     1.3025                 1.3033                 1.2852
 IR Inten    --    30.7878                26.0362                30.7618
 Raman Activ --     4.3290                 3.1900                 1.0591

                    94                     95                     96
                     A                      A                      A
 Frequencies --  1355.5023              1366.5013              1371.5598
 Red. masses --     1.2746                 1.2903                 1.4768
 Frc consts  --     1.3799                 1.4196                 1.6368
 IR Inten    --    25.6200                 3.4573                 3.4803
 Raman Activ --     3.9186                11.2339                 4.7924

                    97                     98                     99
                     A                      A                      A
 Frequencies --  1381.3238              1384.4603              1392.3217
 Red. masses --     1.2780                 1.6102                 1.4421
 Frc consts  --     1.4367                 1.8184                 1.6471
 IR Inten    --    10.4698                 5.3883                13.3771
 Raman Activ --     0.5386                 6.1634                 4.2879

                   100                    101                    102
                     A                      A                      A
 Frequencies --  1400.8085              1435.0444              1463.8542
 Red. masses --     1.5699                 1.4646                 1.2525
 Frc consts  --     1.8151                 1.7771                 1.5813
 IR Inten    --    23.2774                53.3263                14.7917
 Raman Activ --     1.0186                 0.8545                 4.1423

                   103                    104                    105
                     A                      A                      A
 Frequencies --  1471.7057              1473.0725              1487.0738
 Red. masses --     1.1686                 1.0766                 1.3570
 Frc consts  --     1.4913                 1.3765                 1.7680
 IR Inten    --     9.5929                 5.2815                31.7918
 Raman Activ --     1.6154                 4.8913                 0.8426

                   106                    107                    108
                     A                      A                      A
 Frequencies --  1513.0375              1516.4841              3250.4307
 Red. masses --     1.2879                 1.2428                 1.0594
 Frc consts  --     1.7372                 1.6839                 6.5946
 IR Inten    --    44.5056                34.0085                29.1720
 Raman Activ --     1.5398                 0.7423                94.4000

                   109                    110                    111
                     A                      A                      A
 Frequencies --  3252.7795              3261.0205              3262.3754
 Red. masses --     1.0767                 1.0625                 1.0800
 Frc consts  --     6.7120                 6.6570                 6.7724
 IR Inten    --     6.4854                92.1551                 6.9687
 Raman Activ --    50.7254                29.0482                84.8013

                   112                    113                    114
                     A                      A                      A
 Frequencies --  3270.9066              3275.6565              3277.8804
 Red. masses --     1.0817                 1.0825                 1.0847
 Frc consts  --     6.8189                 6.8435                 6.8664
 IR Inten    --    11.3102                 6.0323                20.1985
 Raman Activ --     7.3108                60.9321                78.9594

                   115                    116                    117
                     A                      A                      A
 Frequencies --  3280.7388              3282.1722              3286.2882
 Red. masses --     1.0808                 1.0839                 1.0716
 Frc consts  --     6.8539                 6.8793                 6.8187
 IR Inten    --    75.2902                41.1756               380.8011
 Raman Activ --   299.7845                 6.9989               140.6575

                   118                    119                    120
                     A                      A                      A
 Frequencies --  3292.7551              3301.5453              3302.0853
 Red. masses --     1.0856                 1.0951                 1.0866
 Frc consts  --     6.9346                 7.0331                 6.9806
 IR Inten    --    20.9848                27.9093                62.8012
 Raman Activ --    27.9402                13.1660                17.0226

                   121                    122                    123
                     A                      A                      A
 Frequencies --  3306.2356              3316.8826              3341.2690
 Red. masses --     1.0950                 1.1067                 1.0660
 Frc consts  --     7.0526                 7.1734                 7.0121
 IR Inten    --    91.5834                45.3653               358.7605
 Raman Activ --    25.2535                45.8924               140.8606

                   124                    125                    126
                     A                      A                      A
 Frequencies --  3355.5185              3362.0148              3370.4674
 Red. masses --     1.0652                 1.0663                 1.0666
 Frc consts  --     7.0664                 7.1010                 7.1388
 IR Inten    --    39.5935                37.3665                57.2232
 Raman Activ --   102.3384               161.9439               127.0255

                   127                    128                    129
                     A                      A                      A
 Frequencies --  3376.8254              3889.9339              3892.3315
 Red. masses --     1.0677                 1.0676                 1.0674
 Frc consts  --     7.1734                 9.5177                 9.5281
 IR Inten    --    51.9991                75.9387                82.6456
 Raman Activ --   151.0334                89.0371                96.3264

 - Thermochemistry -
 -------------------
 Temperature   298.150 Kelvin.  Pressure   1.00000 Atm.
 Atom     1 has atomic number  8 and mass  15.99491

 Molecular mass:   342.11621 amu.
 Principal axes and moments of inertia in atomic units:
                           1         2         3
     Eigenvalues --  4493.04355********************
           X            0.99997   0.00762   0.00014
           Y           -0.00762   0.99997   0.00162
           Z           -0.00013  -0.00162   1.00000
 This molecule is an asymmetric top.
 Rotational symmetry number  1.
 Warning -- assumption of classical behavior for rotation
           may cause significant error
 Rotational temperatures (Kelvin)      0.01928     0.00678     0.00515
 Rotational constants (GHZ):           0.40167     0.14122     0.10734
    6 imaginary frequencies ignored.
 Zero-point vibrational energy     974119.9 (Joules/Mol)
                                  232.82025 (Kcal/Mol)
 Warning -- explicit consideration of  34 degrees of freedom as
           vibrations may cause significant error
 Vibrational temperatures:     67.47    85.21   100.88   135.93   160.99
          (Kelvin)            197.82   210.73   241.89   247.76   269.60
                              318.71   381.10   401.30   420.92   428.50
                              442.10   448.55   465.82   472.64   489.48
                              526.49   572.58   599.99   606.19   622.90
                              667.08   696.75   724.56   755.81   805.05
                              816.24   832.11   853.01   862.19   973.45
                              987.37  1053.11  1086.59  1090.04  1161.93
                             1217.59  1223.27  1247.74  1315.70  1384.56
                             1398.80  1407.63  1416.16  1434.48  1452.61
                             1464.04  1473.18  1494.79  1520.75  1533.06
                             1541.24  1555.86  1568.81  1577.99  1593.65
                             1612.28  1626.44  1634.22  1642.69  1655.38
                             1659.44  1669.88  1680.55  1726.12  1729.71
                             1748.22  1757.79  1787.74  1802.99  1812.89
                             1837.34  1846.75  1855.00  1861.86  1866.20
                             1888.49  1895.87  1907.89  1911.75  1927.38
                             1938.15  1946.25  1950.26  1966.09  1973.37
                             1987.41  1991.93  2003.24  2015.45  2064.71
                             2106.16  2117.45  2119.42  2139.56  2176.92
                             2181.88  4676.64  4680.02  4691.88  4693.82
                             4706.10  4712.93  4716.13  4720.25  4722.31
                             4728.23  4737.53  4750.18  4750.96  4756.93
                             4772.25  4807.33  4827.84  4837.18  4849.34
                             4858.49  5596.74  5600.19

 Zero-point correction=                           0.371023 (Hartree/Particle)
 Thermal correction to Energy=                    0.390290
 Thermal correction to Enthalpy=                  0.391234
 Thermal correction to Gibbs Free Energy=         0.324335
 Sum of electronic and zero-point Energies=          -1297.619310
 Sum of electronic and thermal Energies=             -1297.600042
 Sum of electronic and thermal Enthalpies=           -1297.599098
 Sum of electronic and thermal Free Energies=        -1297.665997

                     E (Thermal)             CV                S
                      KCal/Mol        Cal/Mol-Kelvin    Cal/Mol-Kelvin
 Total                  244.911             78.282            140.801
 Electronic               0.000              0.000              0.000
 Translational            0.889              2.981             43.384
 Rotational               0.889              2.981             35.222
 Vibrational            243.133             72.321             62.195
 Vibration     1          0.595              1.979              4.944
 Vibration     2          0.597              1.974              4.483
 Vibration     3          0.598              1.968              4.150
 Vibration     4          0.603              1.953              3.565
 Vibration     5          0.607              1.940              3.236
 Vibration     6          0.614              1.916              2.839
 Vibration     7          0.617              1.907              2.718
 Vibration     8          0.625              1.882              2.456
 Vibration     9          0.626              1.877              2.411
 Vibration    10          0.632              1.857              2.254
 Vibration    11          0.648              1.808              1.947
 Vibration    12          0.671              1.737              1.629
 Vibration    13          0.679              1.713              1.540
 Vibration    14          0.688              1.688              1.459
 Vibration    15          0.691              1.678              1.429
 Vibration    16          0.697              1.660              1.377
 Vibration    17          0.700              1.651              1.353
 Vibration    18          0.708              1.628              1.291
 Vibration    19          0.712              1.619              1.267
 Vibration    20          0.720              1.595              1.211
 Vibration    21          0.739              1.542              1.097
 Vibration    22          0.764              1.474              0.970
 Vibration    23          0.780              1.433              0.902
 Vibration    24          0.784              1.424              0.887
 Vibration    25          0.794              1.398              0.849
 Vibration    26          0.821              1.331              0.756
 Vibration    27          0.840              1.285              0.699
 Vibration    28          0.859              1.242              0.649
 Vibration    29          0.880              1.194              0.598
 Vibration    30          0.915              1.119              0.525
 Vibration    31          0.923              1.102              0.509
 Vibration    32          0.935              1.078              0.488
 Vibration    33          0.950              1.047              0.462
 Vibration    34          0.957              1.033              0.451

 Normal termination of Gaussian 09 at Thu Mar 31 02:28:11 2016.
