 Gaussian 09, Revision B.01,
 Gaussian 09:  EM64L-G09RevB.01 12-Aug-2010

 ------------------------------------------------
 # freq=raman b3lyp/6-31+g(d,p) geom=connectivity
 ------------------------------------------------

 ------------
 290 9000.com
 ------------
 Symbolic Z-matrix:
 Charge =  0 Multiplicity = 1

                         Standard orientation:
 ---------------------------------------------------------------------
 Center     Atomic      Atomic             Coordinates (Angstroms)
 Number     Number       Type             X           Y           Z
 ---------------------------------------------------------------------
      1          8           0        5.016031   -0.496233   -0.225145
      2          6           0        3.679839   -0.141005    0.161573
      3          6           0        3.293427    1.244739   -0.326462
      4          8           0        4.257516    2.290345   -0.134513
      5          1           0        5.132829    1.919394   -0.445995
      6          6           0        1.901858    1.616109    0.160450
      7          8           0        1.290211    2.860743   -0.208340
      8          1           0        0.322036    2.992050    0.003550
      9          6           0        2.980296   -2.590153    0.330122
     10          8           0        4.216809   -3.209995   -0.050117
     11          1           0        4.136272   -4.198557    0.077709
     12          6           0        2.705135   -1.222910   -0.276040
     13          8           0        1.382940   -0.804911    0.091265
     14          6           0        0.947356    0.514220   -0.268078
     15          8           0       -0.241042    0.643798    0.525121
     16          6           0       -1.509462    0.266810   -0.029799
     17          6           0       -1.954003   -1.149631    0.298705
     18          8           0       -0.976640   -2.154878   -0.004187
     19          1           0       -0.101492   -1.759181    0.274333
     20          6           0       -3.311811   -1.515518   -0.277607
     21          8           0       -3.829750   -2.774512    0.176165
     22          1           0       -4.667041   -2.903711   -0.353560
     23          6           0       -2.370943    2.651424   -0.075253
     24          8           0       -1.249335    3.376624    0.447673
     25          1           0       -1.449416    4.356010    0.411610
     26          6           0       -2.646344    1.211083    0.324288
     27          8           0       -3.878336    0.820316   -0.299452
     28          6           0       -4.346995   -0.472277    0.108972
     29          8           0       -5.585949   -0.761356   -0.543964
     30          1           0        5.545939   -0.651240    0.560201
     31          1           0        3.658765   -0.113340    1.231008
     32          1           0        3.201685    1.148080   -1.388131
     33          1           0        2.750747   -1.309371   -1.341565
     34          1           0        2.181003   -3.244384    0.050815
     35          1           0        2.973159   -2.488891    1.395296
     36          1           0        0.722126    0.577473   -1.312190
     37          1           0        1.939271    1.599923    1.229673
     38          1           0       -1.397077    0.311068   -1.092960
     39          1           0       -2.785128    1.180366    1.384805
     40          1           0       -3.246279    3.214130    0.173842
     41          1           0       -2.277621    2.664161   -1.141099
     42          1           0       -2.074369   -1.173868    1.361637
     43          1           0       -3.233855   -1.542247   -1.344429
     44          1           0       -4.489130   -0.483724    1.169427
     45          1           0       -6.272176   -0.891018    0.114732
 ---------------------------------------------------------------------

 SCF Done:  E(RB3LYP) =  -1297.94358798     A.U. after   14 cycles

 The electronic state is 1-A.
 Alpha  occ. eigenvalues --  -19.20289 -19.19688 -19.19288 -19.19168 -19.18949
 Alpha  occ. eigenvalues --  -19.17546 -19.17278 -19.16710 -19.16289 -19.14340
 Alpha  occ. eigenvalues --  -19.13515 -10.31321 -10.31304 -10.27128 -10.26243
 Alpha  occ. eigenvalues --  -10.26126 -10.26036 -10.25671 -10.25012 -10.24945
 Alpha  occ. eigenvalues --  -10.24902 -10.24883 -10.24563  -1.10171  -1.09464
 Alpha  occ. eigenvalues --   -1.06096  -1.05181  -1.04400  -1.03719  -1.02906
 Alpha  occ. eigenvalues --   -1.02749  -1.01876  -1.00567  -0.99472  -0.82617
 Alpha  occ. eigenvalues --   -0.80784  -0.79681  -0.78824  -0.72281  -0.70322
 Alpha  occ. eigenvalues --   -0.67548  -0.64859  -0.63294  -0.63159  -0.61410
 Alpha  occ. eigenvalues --   -0.60328  -0.56636  -0.56388  -0.55614  -0.54977
 Alpha  occ. eigenvalues --   -0.54347  -0.53569  -0.53107  -0.51970  -0.51256
 Alpha  occ. eigenvalues --   -0.50827  -0.50114  -0.49999  -0.49001  -0.46997
 Alpha  occ. eigenvalues --   -0.46417  -0.45528  -0.44884  -0.44024  -0.43619
 Alpha  occ. eigenvalues --   -0.42717  -0.41796  -0.41553  -0.40308  -0.39324
 Alpha  occ. eigenvalues --   -0.38783  -0.38054  -0.37772  -0.36382  -0.35694
 Alpha  occ. eigenvalues --   -0.35022  -0.34948  -0.34770  -0.33855  -0.33348
 Alpha  occ. eigenvalues --   -0.32499  -0.31650  -0.31048  -0.30294  -0.29996
 Alpha  occ. eigenvalues --   -0.29235  -0.28978  -0.27961  -0.27346  -0.26581
 Alpha  occ. eigenvalues --   -0.26354
 Alpha virt. eigenvalues --   -0.02340  -0.01917  -0.01849  -0.00083   0.00334
 Alpha virt. eigenvalues --    0.01091   0.01881   0.02034   0.03076   0.03253
 Alpha virt. eigenvalues --    0.03718   0.04412   0.04706   0.05384   0.05551

 Mulliken atomic charges:
              1
     1  O   -0.533404
     2  C   -0.054669
     3  C    0.032899
     4  O   -0.484423
     5  H    0.358499
     6  C   -0.019849
     7  O   -0.595864
     8  H    0.472459
     9  C   -0.086112
    10  O   -0.550457
    11  H    0.365476
    12  C    0.116298
    13  O   -0.437242
    14  C    0.372860
    15  O   -0.323770
    16  C   -0.172486
    17  C    0.009663
    18  O   -0.518045
    19  H    0.422497
    20  C    0.042092
    21  O   -0.491467
    22  H    0.356248
    23  C   -0.072456
    24  O   -0.618281
    25  H    0.394372
    26  C    0.047874
    27  O   -0.317442
    28  C    0.242405
    29  O   -0.579481
    30  H    0.372051
    31  H    0.126154
    32  H    0.117279
    33  H    0.139197
    34  H    0.145026
    35  H    0.134739
    36  H    0.130716
    37  H    0.137059
    38  H    0.120069
    39  H    0.137834
    40  H    0.139009
    41  H    0.149904
    42  H    0.128691
    43  H    0.148483
    44  H    0.126217
    45  H    0.369376
 Sum of Mulliken atomic charges =   0.00000

 Dipole moment (field-independent basis, Debye):
    X=             -2.8058    Y=             -0.1191    Z=              1.9888  Tot=              3.4412
 Quadrupole moment (field-independent basis, Debye-Ang):
   XX=           -121.0276   YY=           -137.4173   ZZ=           -137.5808
   XY=            -19.2914   XZ=             -0.3143   YZ=             -0.6540

  Exact polarizability: 229.756   0.792 194.402  -0.193  -0.451 141.444
 Approx polarizability: 266.964   0.245 249.984  -0.047   0.555 230.543

 ******    7 imaginary frequencies (negative Signs) ******

                     1                      2                      3
                     A                      A                      A
 Frequencies --  -314.2990              -284.0519              -247.8624
 Red. masses --     1.1702                 1.7264                 1.7181
 Frc consts  --     0.0681                 0.0821                 0.0622
 IR Inten    --   111.4982                 2.6719                 7.8456
 Raman Activ --     0.8391                 0.0106                 0.1788

                     4                      5                      6
                     A                      A                      A
 Frequencies --  -209.6105               -81.4714               -63.7761
 Red. masses --     1.1913                 7.1675                 6.2239
 Frc consts  --     0.0308                 0.0280                 0.0149
 IR Inten    --   124.1366                 1.9476                 1.5758
 Raman Activ --     0.8633                 0.0485                 0.0125

                     7                      8                      9
                     A                      A                      A
 Frequencies --   -47.9010                14.7790                55.5929
 Red. masses --     6.8442                 6.6566                 6.5171
 Frc consts  --     0.0093                 0.0009                 0.0119
 IR Inten    --     1.8155                 0.4585                 2.4637
 Raman Activ --     0.0490                 0.0061                 0.0321

                    10                     11                     12
                     A                      A                      A
 Frequencies --    84.2226                89.1598               127.0112
 Red. masses --     6.1958                 7.0065                 5.9573
 Frc consts  --     0.0259                 0.0328                 0.0566
 IR Inten    --     2.3871                 1.7360                 0.4247
 Raman Activ --     0.2935                 0.1236                 0.0560

                    13                     14                     15
                     A                      A                      A
 Frequencies --   156.0230               175.3965               189.5643
 Red. masses --     5.6320                 6.0254                 6.7543
 Frc consts  --     0.0808                 0.1092                 0.1430
 IR Inten    --    12.2293                 1.2722                 0.7087
 Raman Activ --     0.1992                 0.5280                 0.4048

                    16                     17                     18
                     A                      A                      A
 Frequencies --   207.8216               228.2882               244.1190
 Red. masses --     7.0700                 5.6613                 4.3979
 Frc consts  --     0.1799                 0.1738                 0.1544
 IR Inten    --     0.3324                 1.7556                20.6974
 Raman Activ --     3.4452                 0.2186                 0.1549

                    19                     20                     21
                     A                      A                      A
 Frequencies --   267.2205               284.6681               301.3417
 Red. masses --     4.8816                 5.1858                 4.3013
 Frc consts  --     0.2054                 0.2476                 0.2301
 IR Inten    --     1.2981                 3.0655                 2.9196
 Raman Activ --     0.2790                 0.0672                 0.1081

                    22                     23                     24
                     A                      A                      A
 Frequencies --   310.2483               312.9260               320.1582
 Red. masses --     5.6910                 6.4298                 6.5116
 Frc consts  --     0.3227                 0.3710                 0.3932
 IR Inten    --     0.2467                 8.5140                 0.6694
 Raman Activ --     3.7076                 0.6657                 2.5391

                    25                     26                     27
                     A                      A                      A
 Frequencies --   338.6739               349.5883               376.6048
 Red. masses --     6.6953                 4.7206                 5.0476
 Frc consts  --     0.4525                 0.3399                 0.4218
 IR Inten    --    11.0634                 3.0576                 4.0829
 Raman Activ --     4.1785                 0.2552                 0.3228

                    28                     29                     30
                     A                      A                      A
 Frequencies --   393.9873               415.2606               425.1127
 Red. masses --     5.2514                 6.3791                 4.3467
 Frc consts  --     0.4803                 0.6481                 0.4628
 IR Inten    --    18.6895                 3.0552                 2.3331
 Raman Activ --     2.7892                 8.2248                 1.0380

                    31                     32                     33
                     A                      A                      A
 Frequencies --   427.7793               461.8435               481.1208
 Red. masses --     6.1539                 4.4119                 4.0641
 Frc consts  --     0.6635                 0.5545                 0.5543
 IR Inten    --     1.8146                 4.2329                13.7378
 Raman Activ --     2.7986                 3.8998                 0.3539

                    34                     35                     36
                     A                      A                      A
 Frequencies --   500.9607               512.1813               568.3239
 Red. masses --     3.8927                 3.5065                 3.5657
 Frc consts  --     0.5756                 0.5420                 0.6786
 IR Inten    --     6.6906                13.9314                 7.7319
 Raman Activ --     5.4104                 2.5754                 0.7194

                    37                     38                     39
                     A                      A                      A
 Frequencies --   573.9740               597.3185               604.8326
 Red. masses --     2.8755                 6.4559                 5.0690
 Frc consts  --     0.5582                 1.3571                 1.0926
 IR Inten    --    42.6693                 3.9792                14.8661
 Raman Activ --     0.3631                 0.9607                 0.4622

                    40                     41                     42
                     A                      A                      A
 Frequencies --   624.2657               677.5095               684.7451
 Red. masses --     4.1341                 2.1988                 1.5439
 Frc consts  --     0.9492                 0.5947                 0.4265
 IR Inten    --    30.8053                49.0031                80.0180
 Raman Activ --     1.2411                 1.0938                 2.6050

                    43                     44                     45
                     A                      A                      A
 Frequencies --   706.5592               739.6285               743.4836
 Red. masses --     1.0837                 1.0774                 1.1005
 Frc consts  --     0.3188                 0.3473                 0.3584
 IR Inten    --   109.7309               106.1855               108.7069
 Raman Activ --     1.7020                 1.9841                 1.6485

                    46                     47                     48
                     A                      A                      A
 Frequencies --   773.2359               783.1713               847.4410
 Red. masses --     1.0831                 1.0760                 1.7886
 Frc consts  --     0.3815                 0.3889                 0.7568
 IR Inten    --    67.2164               125.3585                 2.5175
 Raman Activ --     0.9386                 2.3922                 0.4019

                    49                     50                     51
                     A                      A                      A
 Frequencies --   859.6689               925.7021               969.1450
 Red. masses --     1.6886                 6.0093                 4.5805
 Frc consts  --     0.7353                 3.0340                 2.5348
 IR Inten    --     4.0680                80.7429                48.0238
 Raman Activ --     0.3696                 2.0422                 0.5800

                    52                     53                     54
                     A                      A                      A
 Frequencies --   978.1770               988.8901               994.8088
 Red. masses --     5.0630                 4.5513                 5.5313
 Frc consts  --     2.8543                 2.6223                 3.2252
 IR Inten    --    67.2078                54.6499                86.6507
 Raman Activ --     1.0070                 3.0552                 1.0812

                    55                     56                     57
                     A                      A                      A
 Frequencies --  1009.1975              1018.1173              1035.8995
 Red. masses --     7.1377                 5.6377                 4.4134
 Frc consts  --     4.2831                 3.4431                 2.7903
 IR Inten    --   230.2603                90.2382               308.9696
 Raman Activ --     1.4580                 4.2109                 2.3292

                    58                     59                     60
                     A                      A                      A
 Frequencies --  1047.7823              1061.9903              1072.6504
 Red. masses --     6.6727                 2.6791                 5.1282
 Frc consts  --     4.3161                 1.7802                 3.4764
 IR Inten    --   429.8545                25.8118               111.8816
 Raman Activ --     0.9254                11.0910                 1.6000

                    61                     62                     63
                     A                      A                      A
 Frequencies --  1081.7746              1089.3207              1096.6175
 Red. masses --     4.4660                 3.8929                 5.5130
 Frc consts  --     3.0792                 2.7217                 3.9062
 IR Inten    --     0.6962                72.7506                63.3990
 Raman Activ --     1.7673                10.2222                 2.6536

                    64                     65                     66
                     A                      A                      A
 Frequencies --  1106.8814              1109.0785              1121.3730
 Red. masses --     2.4377                 2.6970                 2.9052
 Frc consts  --     1.7597                 1.9546                 2.1524
 IR Inten    --    20.9251                19.6749               202.6007
 Raman Activ --    17.4363                 5.6914                 3.0533

                    67                     68                     69
                     A                      A                      A
 Frequencies --  1126.9605              1138.7538              1149.0408
 Red. masses --     2.7287                 2.9186                 3.0236
 Frc consts  --     2.0419                 2.2299                 2.3521
 IR Inten    --     6.4097                16.6766                39.5396
 Raman Activ --     1.5318                11.3172                 2.4006

                    70                     71                     72
                     A                      A                      A
 Frequencies --  1153.1465              1160.7480              1169.3301
 Red. masses --     2.5853                 1.6254                 2.0842
 Frc consts  --     2.0255                 1.2903                 1.6791
 IR Inten    --    32.6453                 2.5363                 6.1652
 Raman Activ --     3.5469                 1.9165                 3.7745

                    73                     74                     75
                     A                      A                      A
 Frequencies --  1173.5608              1174.2801              1187.6360
 Red. masses --     1.9649                 1.6450                 2.1582
 Frc consts  --     1.5945                 1.3365                 1.7935
 IR Inten    --    31.6747                 8.6216                 6.0282
 Raman Activ --     6.6457                 3.9784                 2.2192

                    76                     77                     78
                     A                      A                      A
 Frequencies --  1209.0495              1218.8795              1233.5841
 Red. masses --     1.4480                 1.5068                 1.1421
 Frc consts  --     1.2471                 1.3189                 1.0240
 IR Inten    --    10.7918                 7.6220                 3.6778
 Raman Activ --     2.3713                 2.3898                 2.3402

                    79                     80                     81
                     A                      A                      A
 Frequencies --  1243.1934              1257.3616              1263.2710
 Red. masses --     1.3754                 1.2343                 1.3040
 Frc consts  --     1.2524                 1.1497                 1.2261
 IR Inten    --     1.5063                15.8759                17.0317
 Raman Activ --     1.3992                 1.7637                 0.7072

                    82                     83                     84
                     A                      A                      A
 Frequencies --  1279.9529              1287.6695              1289.9453
 Red. masses --     1.3052                 1.1571                 1.3982
 Frc consts  --     1.2598                 1.1304                 1.3707
 IR Inten    --     1.7707                 8.2408                26.9624
 Raman Activ --     2.0006                10.0053                 1.0589

                    85                     86                     87
                     A                      A                      A
 Frequencies --  1295.5705              1301.8795              1310.0089
 Red. masses --     1.2423                 1.2072                 1.2282
 Frc consts  --     1.2286                 1.2056                 1.2419
 IR Inten    --    12.0902                 8.8354                17.0768
 Raman Activ --     1.1761                 4.0782                 4.6611

                    88                     89                     90
                     A                      A                      A
 Frequencies --  1316.1576              1332.8051              1337.0836
 Red. masses --     1.3978                 1.1579                 1.3331
 Frc consts  --     1.4266                 1.2119                 1.4042
 IR Inten    --    26.3470                54.6197                36.2687
 Raman Activ --     3.2589                 3.9000                 5.7967

                    91                     92                     93
                     A                      A                      A
 Frequencies --  1344.0862              1353.2293              1357.1553
 Red. masses --     1.2513                 1.2396                 1.1890
 Frc consts  --     1.3319                 1.3375                 1.2903
 IR Inten    --     5.9332                28.2467                29.9324
 Raman Activ --     8.7388                 5.1399                 1.9419

                    94                     95                     96
                     A                      A                      A
 Frequencies --  1367.1815              1372.1226              1380.8914
 Red. masses --     1.3456                 1.4724                 1.3661
 Frc consts  --     1.4819                 1.6332                 1.5348
 IR Inten    --     3.8390                 5.7537                43.5322
 Raman Activ --     4.0886                 9.1782                 8.4518

                    97                     98                     99
                     A                      A                      A
 Frequencies --  1386.5009              1391.5420              1398.9438
 Red. masses --     1.4035                 1.4397                 1.3786
 Frc consts  --     1.5896                 1.6426                 1.5896
 IR Inten    --    15.7949                 6.4228                 2.3390
 Raman Activ --     3.9697                 4.5392                 6.5400

                   100                    101                    102
                     A                      A                      A
 Frequencies --  1410.1998              1447.3186              1451.7541
 Red. masses --     1.4212                 1.4821                 1.4247
 Frc consts  --     1.6652                 1.8291                 1.7692
 IR Inten    --    17.0840                34.9304                21.9062
 Raman Activ --     0.4865                 0.9965                 2.2205

                   103                    104                    105
                     A                      A                      A
 Frequencies --  1453.4100              1465.9948              1481.3809
 Red. masses --     1.4346                 1.3473                 1.1009
 Frc consts  --     1.7854                 1.7060                 1.4234
 IR Inten    --    16.8897                11.6387                 6.3006
 Raman Activ --     1.0887                 2.3209                 4.1830

                   106                    107                    108
                     A                      A                      A
 Frequencies --  1482.1640              1525.4381              3248.0419
 Red. masses --     1.0868                 1.2629                 1.0716
 Frc consts  --     1.4067                 1.7315                 6.6608
 IR Inten    --     3.4395                43.2940               946.5074
 Raman Activ --     4.4787                 1.5884               182.2447

                   109                    110                    111
                     A                      A                      A
 Frequencies --  3262.9957              3267.8471              3268.7368
 Red. masses --     1.0794                 1.0804                 1.0582
 Frc consts  --     6.7715                 6.7978                 6.6618
 IR Inten    --    46.1871                78.8330                41.8753
 Raman Activ --    59.7753                61.7661               119.8025

                   112                    113                    114
                     A                      A                      A
 Frequencies --  3274.7619              3279.5293              3282.4025
 Red. masses --     1.0612                 1.0821                 1.0829
 Frc consts  --     6.7048                 6.8571                 6.8743
 IR Inten    --    25.2979                 2.4209                23.2199
 Raman Activ --   186.6671                40.3622                45.4770

                   115                    116                    117
                     A                      A                      A
 Frequencies --  3292.1511              3293.0741              3294.2182
 Red. masses --     1.0832                 1.0855                 1.0846
 Frc consts  --     6.9169                 6.9358                 6.9347
 IR Inten    --    10.0409                22.3656                15.2697
 Raman Activ --    96.5223                 8.8453               159.6466

                   118                    119                    120
                     A                      A                      A
 Frequencies --  3300.5931              3309.9632              3310.9226
 Red. masses --     1.0865                 1.0862                 1.0817
 Frc consts  --     6.9737                 7.0114                 6.9864
 IR Inten    --    61.5010               113.6498               220.6534
 Raman Activ --    10.5285                 5.6757                22.8016

                   121                    122                    123
                     A                      A                      A
 Frequencies --  3319.8453              3327.2905              3327.6689
 Red. masses --     1.0745                 1.1059                 1.1055
 Frc consts  --     6.9772                 7.2138                 7.2124
 IR Inten    --   516.7820                24.2470                98.7387
 Raman Activ --   128.0359                48.8046                38.0633

                   124                    125                    126
                     A                      A                      A
 Frequencies --  3387.9153              3389.3198              3394.9198
 Red. masses --     1.0655                 1.0679                 1.0676
 Frc consts  --     7.2055                 7.2281                 7.2497
 IR Inten    --    34.2715                44.3469                71.9331
 Raman Activ --    93.9666               190.7232               151.4914

                   127                    128                    129
                     A                      A                      A
 Frequencies --  3400.6699              3920.4282              3920.5811
 Red. masses --     1.0653                 1.0678                 1.0677
 Frc consts  --     7.2586                 9.6694                 9.6692
 IR Inten    --    43.4761               111.2155                52.8624
 Raman Activ --   111.5090                45.9145               148.8619

 - Thermochemistry -
 -------------------
 Temperature   298.150 Kelvin.  Pressure   1.00000 Atm.
 Atom     1 has atomic number  8 and mass  15.99491

 Molecular mass:   342.11621 amu.
 Principal axes and moments of inertia in atomic units:
                           1         2         3
     Eigenvalues --  4481.55996********************
           X            0.99996  -0.00854  -0.00013
           Y            0.00854   0.99996  -0.00254
           Z            0.00016   0.00254   1.00000
 This molecule is an asymmetric top.
 Rotational symmetry number  1.
 Warning -- assumption of classical behavior for rotation
           may cause significant error
 Rotational temperatures (Kelvin)      0.01933     0.00699     0.00524
 Rotational constants (GHZ):           0.40270     0.14571     0.10910
    7 imaginary frequencies ignored.
 Zero-point vibrational energy     976728.6 (Joules/Mol)
                                  233.44374 (Kcal/Mol)
 Warning -- explicit consideration of  32 degrees of freedom as
           vibrations may cause significant error
 Vibrational temperatures:     21.26    79.99   121.18   128.28   182.74
          (Kelvin)            224.48   252.36   272.74   299.01   328.46
                              351.23   384.47   409.57   433.56   446.38
                              450.23   460.64   487.28   502.98   541.85
                              566.86   597.47   611.64   615.48   664.49
                              692.22   720.77   736.91   817.69   825.82
                              859.41   870.22   898.18   974.78   985.19
                             1016.58  1064.16  1069.71  1112.51  1126.81
                             1219.28  1236.87  1331.88  1394.38  1407.38
                             1422.79  1431.31  1452.01  1464.84  1490.43
                             1507.52  1527.97  1543.30  1556.43  1567.29
                             1577.79  1592.55  1595.71  1613.40  1621.44
                             1638.41  1653.21  1659.12  1670.06  1682.40
                             1688.49  1689.53  1708.74  1739.55  1753.69
                             1774.85  1788.68  1809.06  1817.56  1841.56
                             1852.67  1855.94  1864.03  1873.11  1884.81
                             1893.65  1917.61  1923.76  1933.84  1946.99
                             1952.64  1967.07  1974.18  1986.79  1994.86
                             2002.12  2012.77  2028.96  2082.37  2088.75
                             2091.13  2109.24  2131.37  2132.50  2194.76
                             4673.20  4694.72  4701.70  4702.98  4711.65
                             4718.51  4722.64  4736.67  4737.99  4739.64
                             4748.81  4762.29  4763.67  4776.51  4787.22
                             4787.77  4874.45  4876.47  4884.53  4892.80
                             5640.61  5640.83

 Zero-point correction=                           0.372016 (Hartree/Particle)
 Thermal correction to Energy=                    0.390559
 Thermal correction to Enthalpy=                  0.391503
 Thermal correction to Gibbs Free Energy=         0.325314
 Sum of electronic and zero-point Energies=          -1297.571572
 Sum of electronic and thermal Energies=             -1297.553029
 Sum of electronic and thermal Enthalpies=           -1297.552085
 Sum of electronic and thermal Free Energies=        -1297.618274

                     E (Thermal)             CV                S
                      KCal/Mol        Cal/Mol-Kelvin    Cal/Mol-Kelvin
 Total                  245.079             76.129            139.305
 Electronic               0.000              0.000              0.000
 Translational            0.889              2.981             43.384
 Rotational               0.889              2.981             35.172
 Vibrational            243.302             70.167             60.748
 Vibration     1          0.593              1.986              7.235
 Vibration     2          0.596              1.975              4.608
 Vibration     3          0.601              1.960              3.790
 Vibration     4          0.602              1.957              3.678
 Vibration     5          0.611              1.926              2.991
 Vibration     6          0.620              1.896              2.597
 Vibration     7          0.627              1.873              2.377
 Vibration     8          0.633              1.854              2.232
 Vibration     9          0.641              1.829              2.063
 Vibration    10          0.651              1.798              1.892
 Vibration    11          0.659              1.772              1.773
 Vibration    12          0.672              1.733              1.614
 Vibration    13          0.683              1.702              1.505
 Vibration    14          0.693              1.671              1.409
 Vibration    15          0.699              1.654              1.361
 Vibration    16          0.701              1.649              1.347
 Vibration    17          0.706              1.635              1.309
 Vibration    18          0.719              1.598              1.218
 Vibration    19          0.727              1.576              1.168
 Vibration    20          0.747              1.520              1.053
 Vibration    21          0.761              1.483              0.985
 Vibration    22          0.779              1.437              0.908
 Vibration    23          0.787              1.416              0.875
 Vibration    24          0.789              1.410              0.866
 Vibration    25          0.820              1.335              0.761
 Vibration    26          0.837              1.292              0.707
 Vibration    27          0.856              1.248              0.656
 Vibration    28          0.867              1.223              0.628
 Vibration    29          0.924              1.100              0.507
 Vibration    30          0.930              1.088              0.497
 Vibration    31          0.955              1.037              0.454
 Vibration    32          0.963              1.022              0.441

 Normal termination of Gaussian 09 at Thu Jan 21 04:58:02 2016.
