 Gaussian 09, Revision B.01,
 Gaussian 09:  EM64L-G09RevB.01 12-Aug-2010

 -------------------------------------------------
 # freq=raman b3lyp/6-31+g(2d,p) geom=connectivity
 -------------------------------------------------

 -----------------
 290 7752/7752.com
 -----------------
 Symbolic Z-matrix:
 Charge =  0 Multiplicity = 1

                         Standard orientation:
 ---------------------------------------------------------------------
 Center     Atomic      Atomic             Coordinates (Angstroms)
 Number     Number       Type             X           Y           Z
 ---------------------------------------------------------------------
      1          8           0       -5.070241   -0.310940    0.531935
      2          6           0       -3.751010   -0.129067   -0.002243
      3          6           0       -3.281157    1.292622    0.263412
      4          8           0       -4.110648    2.292943   -0.345355
      5          1           0       -5.059771    1.980230   -0.313663
      6          6           0       -1.869756    1.467178   -0.271086
      7          8           0       -1.322339    2.684958    0.254087
      8          1           0       -0.340665    2.746527    0.074920
      9          6           0       -2.887462   -2.582422   -0.243788
     10          8           0       -4.178227   -3.173968   -0.030711
     11          1           0       -4.112258   -4.165382   -0.141321
     12          6           0       -2.734489   -1.197718    0.364616
     13          8           0       -1.421768   -0.892802   -0.126723
     14          6           0       -0.956007    0.395078    0.300945
     15          8           0        0.285417    0.570550   -0.397823
     16          6           0        1.553376    0.165426    0.137987
     17          6           0        2.039845   -1.173937   -0.389916
     18          8           0        0.998038   -2.098217   -0.041769
     19          1           0        0.182159   -1.558013   -0.249552
     20          6           0        3.422225   -1.485409    0.158354
     21          8           0        3.810183   -2.791459   -0.292985
     22          1           0        4.649312   -2.957921    0.225103
     23          6           0        2.256542    2.592467    0.217166
     24          8           0        1.151264    3.283592   -0.382169
     25          1           0        1.404512    4.247781   -0.460458
     26          6           0        2.597392    1.193186   -0.267935
     27          8           0        3.935921    0.944982    0.187425
     28          6           0        4.361407   -0.358431   -0.236865
     29          8           0        5.441966   -0.553479    0.687213
     30          1           0        6.244501   -0.759363    0.202291
     31          1           0        4.676237   -0.396804   -1.258779
     32          1           0        3.360941   -1.507660    1.226366
     33          1           0        2.102667   -1.118153   -1.456612
     34          1           0        1.491119    0.124924    1.205406
     35          1           0        2.620990    1.218595   -1.337373
     36          1           0        3.126721    3.200050    0.081035
     37          1           0        2.064048    2.529755    1.267838
     38          1           0       -5.687472   -0.468061   -0.186354
     39          1           0       -2.144594   -3.224659    0.181159
     40          1           0       -2.715324   -2.511926   -1.297495
     41          1           0       -2.695777   -1.288175    1.430082
     42          1           0       -3.861990   -0.199741   -1.064122
     43          1           0       -3.269331    1.456085    1.320786
     44          1           0       -1.852868    1.462941   -1.340944
     45          1           0       -0.845113    0.465850    1.362827
 ---------------------------------------------------------------------

 SCF Done:  E(RB3LYP) =  -1297.98712176     A.U. after   13 cycles

 The electronic state is 1-A.
 Alpha  occ. eigenvalues --  -19.18677 -19.18573 -19.18276 -19.18213 -19.17668
 Alpha  occ. eigenvalues --  -19.16952 -19.16681 -19.15880 -19.15187 -19.13249
 Alpha  occ. eigenvalues --  -19.12029 -10.30809 -10.30416 -10.25623 -10.25578
 Alpha  occ. eigenvalues --  -10.25473 -10.25073 -10.24989 -10.24885 -10.23869
 Alpha  occ. eigenvalues --  -10.23829 -10.23681 -10.23496  -1.10309  -1.09674
 Alpha  occ. eigenvalues --   -1.05609  -1.05000  -1.04143  -1.03914  -1.02726
 Alpha  occ. eigenvalues --   -1.02257  -1.01728  -1.00550  -0.99152  -0.82431
 Alpha  occ. eigenvalues --   -0.79938  -0.79299  -0.78206  -0.71735  -0.69496
 Alpha  occ. eigenvalues --   -0.67535  -0.64580  -0.62991  -0.62523  -0.61402
 Alpha  occ. eigenvalues --   -0.60189  -0.56631  -0.56182  -0.55007  -0.54823
 Alpha  occ. eigenvalues --   -0.54315  -0.52958  -0.52716  -0.51548  -0.51109
 Alpha  occ. eigenvalues --   -0.50768  -0.49738  -0.49122  -0.48283  -0.46641
 Alpha  occ. eigenvalues --   -0.45696  -0.45022  -0.43983  -0.43415  -0.43094
 Alpha  occ. eigenvalues --   -0.42269  -0.41623  -0.40463  -0.40427  -0.39565
 Alpha  occ. eigenvalues --   -0.39142  -0.38625  -0.37663  -0.36064  -0.35908
 Alpha  occ. eigenvalues --   -0.35394  -0.35027  -0.34390  -0.33777  -0.32990
 Alpha  occ. eigenvalues --   -0.32901  -0.31156  -0.30803  -0.30099  -0.29794
 Alpha  occ. eigenvalues --   -0.29530  -0.28730  -0.28551  -0.27662  -0.26193
 Alpha  occ. eigenvalues --   -0.26016
 Alpha virt. eigenvalues --   -0.01850  -0.01739  -0.01655  -0.00227   0.00084
 Alpha virt. eigenvalues --    0.01008   0.02059   0.02465   0.02802   0.03418
 Alpha virt. eigenvalues --    0.04174   0.04449   0.04728   0.05569   0.05811

 Mulliken atomic charges:
              1
     1  O   -0.536384
     2  C   -0.203435
     3  C    0.256841
     4  O   -0.555364
     5  H    0.331963
     6  C    0.183651
     7  O   -0.604616
     8  H    0.441251
     9  C   -0.210630
    10  O   -0.547603
    11  H    0.339778
    12  C    0.175422
    13  O   -0.201366
    14  C    0.026749
    15  O   -0.299615
    16  C    0.121904
    17  C    0.152488
    18  O   -0.572732
    19  H    0.408876
    20  C    0.020500
    21  O   -0.531041
    22  H    0.330214
    23  C   -0.306166
    24  O   -0.561380
    25  H    0.360646
    26  C    0.012503
    27  O   -0.242574
    28  C    0.203779
    29  O   -0.529193
    30  H    0.328534
    31  H    0.140803
    32  H    0.137877
    33  H    0.118874
    34  H    0.120844
    35  H    0.121668
    36  H    0.141281
    37  H    0.154243
    38  H    0.342439
    39  H    0.155527
    40  H    0.145278
    41  H    0.109126
    42  H    0.114258
    43  H    0.125383
    44  H    0.135381
    45  H    0.144016
 Sum of Mulliken atomic charges =   0.00000

 Dipole moment (field-independent basis, Debye):
    X=              3.1110    Y=             -0.3749    Z=             -1.5955  Tot=              3.5163
 Quadrupole moment (field-independent basis, Debye-Ang):
   XX=           -116.4983   YY=           -137.4720   ZZ=           -137.8794
   XY=             14.3015   XZ=              1.5406   YZ=             -1.2951

  Exact polarizability: 234.524  -1.829 196.269   0.832   0.385 143.700
 Approx polarizability: 275.202  -0.992 257.159   1.560   0.415 239.093

 ******    8 imaginary frequencies (negative Signs) ******

                     1                      2                      3
                     A                      A                      A
 Frequencies --  -255.9414              -252.7365              -233.3903
 Red. masses --     1.1902                 1.6940                 1.3244
 Frc consts  --     0.0459                 0.0638                 0.0425
 IR Inten    --   104.4699                 1.6753                91.1985
 Raman Activ --     1.1389                 0.0465                 0.4361

                     4                      5                      6
                     A                      A                      A
 Frequencies --  -208.5315               -78.1306               -58.6083
 Red. masses --     1.6403                 5.9180                 6.7961
 Frc consts  --     0.0420                 0.0213                 0.0138
 IR Inten    --    22.9936                 1.3330                 1.2441
 Raman Activ --     0.2955                 0.0540                 0.0254

                     7                      8                      9
                     A                      A                      A
 Frequencies --   -51.5760               -39.1063                67.0197
 Red. masses --     6.4483                 6.6137                 6.2646
 Frc consts  --     0.0101                 0.0060                 0.0166
 IR Inten    --     1.0130                 0.2851                 1.6353
 Raman Activ --     0.0273                 0.0196                 0.0560

                    10                     11                     12
                     A                      A                      A
 Frequencies --    75.8615                85.0920                89.8947
 Red. masses --     6.3381                 6.3852                 6.1507
 Frc consts  --     0.0215                 0.0272                 0.0293
 IR Inten    --     1.5683                 0.3528                 0.2423
 Raman Activ --     0.2232                 0.0389                 0.1167

                    13                     14                     15
                     A                      A                      A
 Frequencies --   159.9699               171.2724               188.8758
 Red. masses --     6.1908                 5.9669                 7.8380
 Frc consts  --     0.0933                 0.1031                 0.1647
 IR Inten    --     5.2378                 1.7107                 0.9791
 Raman Activ --     0.2042                 0.1830                 0.9330

                    16                     17                     18
                     A                      A                      A
 Frequencies --   211.8451               235.6813               264.3399
 Red. masses --     7.1181                 5.9371                 4.3984
 Frc consts  --     0.1882                 0.1943                 0.1811
 IR Inten    --     0.4194                 1.9943                21.5269
 Raman Activ --     3.3518                 0.1233                 0.2928

                    19                     20                     21
                     A                      A                      A
 Frequencies --   268.5980               290.2902               299.9134
 Red. masses --     5.0234                 4.3091                 5.1298
 Frc consts  --     0.2135                 0.2139                 0.2719
 IR Inten    --     0.3188                 3.8962                 4.8904
 Raman Activ --     0.1445                 0.2414                 0.9600

                    22                     23                     24
                     A                      A                      A
 Frequencies --   311.9106               330.7721               340.4095
 Red. masses --     4.6962                 5.8111                 6.5049
 Frc consts  --     0.2692                 0.3746                 0.4441
 IR Inten    --     2.0651                 0.6010                 4.5425
 Raman Activ --     0.1704                 1.7267                 4.2024

                    25                     26                     27
                     A                      A                      A
 Frequencies --   353.3810               364.6573               382.3998
 Red. masses --     6.3023                 5.0381                 4.4542
 Frc consts  --     0.4637                 0.3947                 0.3838
 IR Inten    --     5.5967                 2.9955                 2.8591
 Raman Activ --     0.7340                 0.3236                 0.7148

                    28                     29                     30
                     A                      A                      A
 Frequencies --   407.7136               437.2653               443.5671
 Red. masses --     5.1578                 6.5425                 4.6901
 Frc consts  --     0.5052                 0.7370                 0.5437
 IR Inten    --    14.8684                 0.1235                 1.2652
 Raman Activ --     2.4995                 9.6755                 2.7290

                    31                     32                     33
                     A                      A                      A
 Frequencies --   452.3823               472.8312               488.0024
 Red. masses --     5.7310                 4.7759                 4.3299
 Frc consts  --     0.6910                 0.6291                 0.6075
 IR Inten    --     2.2540                 3.6444                 8.9554
 Raman Activ --     0.2352                 5.3569                 0.8481

                    34                     35                     36
                     A                      A                      A
 Frequencies --   522.5367               525.5262               573.4277
 Red. masses --     3.0030                 4.0400                 3.7908
 Frc consts  --     0.4831                 0.6574                 0.7344
 IR Inten    --     6.1073                 6.6833                18.5124
 Raman Activ --     3.1393                 1.1027                 1.3983

                    37                     38                     39
                     A                      A                      A
 Frequencies --   595.6932               614.6260               628.5510
 Red. masses --     2.8590                 4.8759                 4.8347
 Frc consts  --     0.5977                 1.0853                 1.1254
 IR Inten    --    39.8841                 6.9366                 4.1381
 Raman Activ --     0.2776                 0.5956                 0.5836

                    40                     41                     42
                     A                      A                      A
 Frequencies --   639.5320               689.1519               703.0356
 Red. masses --     4.6707                 4.4921                 1.0923
 Frc consts  --     1.1255                 1.2570                 0.3181
 IR Inten    --    44.0105                16.4085                92.1925
 Raman Activ --     1.2023                 1.5126                 2.1898

                    43                     44                     45
                     A                      A                      A
 Frequencies --   709.5701               719.6414               772.4785
 Red. masses --     1.0931                 1.0739                 1.1047
 Frc consts  --     0.3243                 0.3277                 0.3884
 IR Inten    --   103.0516                96.8268                85.3774
 Raman Activ --     1.7478                 1.5032                 1.5853

                    46                     47                     48
                     A                      A                      A
 Frequencies --   842.8254               853.8043               858.4114
 Red. masses --     1.3445                 1.6840                 1.1860
 Frc consts  --     0.5627                 0.7233                 0.5149
 IR Inten    --    27.8353                17.3060                56.3911
 Raman Activ --     1.1994                 1.6023                 0.7136

                    49                     50                     51
                     A                      A                      A
 Frequencies --   879.0616               914.7108               958.7612
 Red. masses --     1.2720                 5.0967                 5.4398
 Frc consts  --     0.5791                 2.5125                 2.9461
 IR Inten    --    73.0226                44.7322               156.2991
 Raman Activ --     0.8851                 1.6813                 0.4583

                    52                     53                     54
                     A                      A                      A
 Frequencies --   974.7012               987.2220               990.9631
 Red. masses --     4.7003                 5.8813                 6.0407
 Frc consts  --     2.6310                 3.3772                 3.4951
 IR Inten    --    13.0884                19.4672               171.5609
 Raman Activ --     2.3260                 2.7158                 1.9187

                    55                     56                     57
                     A                      A                      A
 Frequencies --  1009.3219              1009.8952              1019.8285
 Red. masses --     6.6628                 5.1620                 6.2797
 Frc consts  --     3.9991                 3.1019                 3.8481
 IR Inten    --   125.0270               224.7556               144.5185
 Raman Activ --     2.3358                 3.0489                 1.2506

                    58                     59                     60
                     A                      A                      A
 Frequencies --  1043.8904              1057.7162              1063.4375
 Red. masses --     5.4201                 5.8972                 3.0104
 Frc consts  --     3.4799                 3.8872                 2.0058
 IR Inten    --   211.4257               229.1305                 7.1679
 Raman Activ --     5.4689                 8.2506                18.6173

                    61                     62                     63
                     A                      A                      A
 Frequencies --  1064.6638              1069.3799              1084.6550
 Red. masses --     3.0260                 5.0181                 4.9728
 Frc consts  --     2.0209                 3.3811                 3.4469
 IR Inten    --    15.4527                92.9267                40.5439
 Raman Activ --     8.2126                 0.3594                 4.6232

                    64                     65                     66
                     A                      A                      A
 Frequencies --  1089.6358              1095.0190              1098.3770
 Red. masses --     2.1229                 2.4120                 2.9481
 Frc consts  --     1.4850                 1.7040                 2.0955
 IR Inten    --   132.1320                15.0239                48.6181
 Raman Activ --     7.3272                 1.7160                 5.3923

                    67                     68                     69
                     A                      A                      A
 Frequencies --  1113.9333              1121.8681              1127.5337
 Red. masses --     2.8368                 2.9440                 2.7311
 Frc consts  --     2.0740                 2.1831                 2.0458
 IR Inten    --     1.6226                11.0077                16.0086
 Raman Activ --     5.4926                10.8646                 2.6134

                    70                     71                     72
                     A                      A                      A
 Frequencies --  1138.4310              1140.5826              1151.5729
 Red. masses --     2.0557                 2.5037                 2.1284
 Frc consts  --     1.5697                 1.9191                 1.6630
 IR Inten    --     9.7404                67.0596                10.0811
 Raman Activ --     9.5681                 5.5628                 1.4146

                    73                     74                     75
                     A                      A                      A
 Frequencies --  1165.7019              1170.7540              1177.5995
 Red. masses --     1.7990                 1.8586                 1.8569
 Frc consts  --     1.4403                 1.5009                 1.5171
 IR Inten    --     2.8640                 0.4934                 6.9477
 Raman Activ --     5.2242                 0.6887                 3.6221

                    76                     77                     78
                     A                      A                      A
 Frequencies --  1189.8464              1203.5102              1213.0108
 Red. masses --     1.4102                 1.3448                 1.1567
 Frc consts  --     1.1763                 1.1477                 1.0027
 IR Inten    --    24.8129                 3.0415                18.2823
 Raman Activ --     4.1491                 0.7754                 2.8008

                    79                     80                     81
                     A                      A                      A
 Frequencies --  1221.3980              1226.6951              1252.5689
 Red. masses --     1.2009                 1.3002                 1.3356
 Frc consts  --     1.0556                 1.1528                 1.2346
 IR Inten    --     6.4199                 2.7150                12.2620
 Raman Activ --     2.1469                 1.0642                 1.2871

                    82                     83                     84
                     A                      A                      A
 Frequencies --  1255.3041              1277.2548              1280.0279
 Red. masses --     1.2075                 1.3204                 1.2626
 Frc consts  --     1.1211                 1.2691                 1.2189
 IR Inten    --     4.6904                 4.9928                40.0216
 Raman Activ --     2.9241                 2.4959                 2.4367

                    85                     86                     87
                     A                      A                      A
 Frequencies --  1287.9314              1291.2665              1296.1350
 Red. masses --     1.3179                 1.2772                 1.2790
 Frc consts  --     1.2880                 1.2547                 1.2660
 IR Inten    --    24.4980                20.6482                18.9072
 Raman Activ --     4.6325                 5.6670                 1.3888

                    88                     89                     90
                     A                      A                      A
 Frequencies --  1304.8161              1309.2943              1324.7758
 Red. masses --     1.2858                 1.4227                 1.1761
 Frc consts  --     1.2898                 1.4369                 1.2161
 IR Inten    --     8.7990                 5.9391                31.3395
 Raman Activ --     4.2872                 4.6919                 2.6453

                    91                     92                     93
                     A                      A                      A
 Frequencies --  1327.7546              1341.3277              1343.0850
 Red. masses --     1.3270                 1.2918                 1.2215
 Frc consts  --     1.3784                 1.3694                 1.2982
 IR Inten    --    41.5047                22.6697                22.7466
 Raman Activ --     3.5944                 6.6499                 2.3859

                    94                     95                     96
                     A                      A                      A
 Frequencies --  1350.7187              1357.5475              1365.6292
 Red. masses --     1.4158                 1.4657                 1.2845
 Frc consts  --     1.5219                 1.5915                 1.4114
 IR Inten    --    15.2432                 8.2641                33.0698
 Raman Activ --     9.3346                 3.3965                 5.1212

                    97                     98                     99
                     A                      A                      A
 Frequencies --  1369.7761              1387.6998              1407.1200
 Red. masses --     1.5474                 1.5716                 1.3117
 Frc consts  --     1.7107                 1.7832                 1.5302
 IR Inten    --    16.5538                 1.2561                 8.3766
 Raman Activ --     5.5231                 4.7966                 5.8789

                   100                    101                    102
                     A                      A                      A
 Frequencies --  1423.4696              1455.5088              1459.6488
 Red. masses --     1.3937                 1.4318                 1.3734
 Frc consts  --     1.6639                 1.7872                 1.7241
 IR Inten    --    44.2140                54.0838                21.4154
 Raman Activ --     2.6491                 0.8057                 2.4802

                   103                    104                    105
                     A                      A                      A
 Frequencies --  1466.4944              1469.3186              1474.3198
 Red. masses --     1.2510                 1.3341                 1.1252
 Frc consts  --     1.5851                 1.6969                 1.4409
 IR Inten    --    25.4235                21.0185                20.6073
 Raman Activ --     1.9288                 2.5272                 2.8476

                   106                    107                    108
                     A                      A                      A
 Frequencies --  1475.8230              1524.5539              3248.8264
 Red. masses --     1.1107                 1.2691                 1.0658
 Frc consts  --     1.4254                 1.7379                 6.6277
 IR Inten    --     2.6284                93.1570               665.7307
 Raman Activ --     3.5607                 4.2579                85.3295

                   109                    110                    111
                     A                      A                      A
 Frequencies --  3261.7537              3262.5932              3263.6900
 Red. masses --     1.0586                 1.0789                 1.0660
 Frc consts  --     6.6358                 6.7662                 6.6901
 IR Inten    --    24.0861                 4.1869               171.4843
 Raman Activ --    46.8224               110.4966               238.6567

                   112                    113                    114
                     A                      A                      A
 Frequencies --  3267.0479              3273.0194              3278.9090
 Red. masses --     1.0783                 1.0804                 1.0835
 Frc consts  --     6.7811                 6.8195                 6.8636
 IR Inten    --    29.0846                67.3671                43.3287
 Raman Activ --    78.3751               107.8191                11.3172

                   115                    116                    117
                     A                      A                      A
 Frequencies --  3286.0088              3288.2965              3293.5178
 Red. masses --     1.0845                 1.0851                 1.0842
 Frc consts  --     6.8997                 6.9131                 6.9291
 IR Inten    --     9.4290                24.9369                56.2491
 Raman Activ --    24.2084                80.6191                49.3099

                   118                    119                    120
                     A                      A                      A
 Frequencies --  3296.8886              3302.8696              3305.8390
 Red. masses --     1.0810                 1.0795                 1.0845
 Frc consts  --     6.9230                 6.9385                 6.9829
 IR Inten    --   181.9355               403.3594               130.5583
 Raman Activ --    42.5180               125.4105                20.8267

                   121                    122                    123
                     A                      A                      A
 Frequencies --  3310.6972              3316.9408              3322.3043
 Red. masses --     1.0852                 1.1052                 1.1077
 Frc consts  --     7.0079                 7.1639                 7.2035
 IR Inten    --   102.9532                50.2301                50.1330
 Raman Activ --    42.6065                31.2590                36.0080

                   124                    125                    126
                     A                      A                      A
 Frequencies --  3367.9289              3368.0140              3372.1478
 Red. masses --     1.0650                 1.0655                 1.0678
 Frc consts  --     7.1175                 7.1215                 7.1538
 IR Inten    --    33.7314                19.0464                40.4783
 Raman Activ --    93.2628               155.1787               174.3430

                   127                    128                    129
                     A                      A                      A
 Frequencies --  3375.2506              3886.4046              3888.8998
 Red. masses --     1.0685                 1.0678                 1.0673
 Frc consts  --     7.1720                 9.5025                 9.5099
 IR Inten    --    59.8953                78.6501                52.9026
 Raman Activ --   160.9756                77.3870               141.6594

 - Thermochemistry -
 -------------------
 Temperature   298.150 Kelvin.  Pressure   1.00000 Atm.
 Atom     1 has atomic number  8 and mass  15.99491

 Molecular mass:   342.11621 amu.
 Principal axes and moments of inertia in atomic units:
                           1         2         3
     Eigenvalues --  4326.42326********************
           X            0.99998   0.00686   0.00047
           Y           -0.00686   0.99998   0.00160
           Z           -0.00046  -0.00161   1.00000
 This molecule is an asymmetric top.
 Rotational symmetry number  1.
 Warning -- assumption of classical behavior for rotation
           may cause significant error
 Rotational temperatures (Kelvin)      0.02002     0.00704     0.00533
 Rotational constants (GHZ):           0.41714     0.14667     0.11103
    8 imaginary frequencies ignored.
 Zero-point vibrational energy     974558.5 (Joules/Mol)
                                  232.92506 (Kcal/Mol)
 Warning -- explicit consideration of  30 degrees of freedom as
           vibrations may cause significant error
 Vibrational temperatures:     96.43   109.15   122.43   129.34   230.16
          (Kelvin)            246.42   271.75   304.80   339.09   380.33
                              386.45   417.66   431.51   448.77   475.91
                              489.77   508.44   524.66   550.19   586.61
                              629.13   638.19   650.88   680.30   702.13
                              751.81   756.11   825.03   857.07   884.31
                              904.34   920.14   991.53  1011.51  1020.91
                             1035.40  1111.42  1212.64  1228.43  1235.06
                             1264.77  1316.06  1379.44  1402.38  1420.39
                             1425.77  1452.19  1453.01  1467.30  1501.92
                             1521.82  1530.05  1531.81  1538.60  1560.57
                             1567.74  1575.49  1580.32  1602.70  1614.12
                             1622.27  1637.95  1641.04  1656.85  1677.18
                             1684.45  1694.30  1711.92  1731.58  1745.25
                             1757.32  1764.94  1802.17  1806.10  1837.68
                             1841.67  1853.04  1857.84  1864.85  1877.34
                             1883.78  1906.05  1910.34  1929.87  1932.40
                             1943.38  1953.21  1964.83  1970.80  1996.59
                             2024.53  2048.05  2094.15  2100.11  2109.96
                             2114.02  2121.21  2123.38  2193.49  4674.33
                             4692.93  4694.14  4695.72  4700.55  4709.14
                             4717.61  4727.83  4731.12  4738.63  4743.48
                             4752.09  4756.36  4763.35  4772.33  4780.05
                             4845.69  4845.81  4851.76  4856.23  5591.66
                             5595.25

 Zero-point correction=                           0.371190 (Hartree/Particle)
 Thermal correction to Energy=                    0.388585
 Thermal correction to Enthalpy=                  0.389529
 Thermal correction to Gibbs Free Energy=         0.327094
 Sum of electronic and zero-point Energies=          -1297.615932
 Sum of electronic and thermal Energies=             -1297.598537
 Sum of electronic and thermal Enthalpies=           -1297.597592
 Sum of electronic and thermal Free Energies=        -1297.660028

                     E (Thermal)             CV                S
                      KCal/Mol        Cal/Mol-Kelvin    Cal/Mol-Kelvin
 Total                  243.841             73.577            131.407
 Electronic               0.000              0.000              0.000
 Translational            0.889              2.981             43.384
 Rotational               0.889              2.981             35.113
 Vibrational            242.063             67.615             52.909
 Vibration     1          0.598              1.970              4.239
 Vibration     2          0.599              1.965              3.995
 Vibration     3          0.601              1.960              3.770
 Vibration     4          0.602              1.956              3.662
 Vibration     5          0.622              1.891              2.550
 Vibration     6          0.626              1.878              2.421
 Vibration     7          0.633              1.855              2.239
 Vibration     8          0.643              1.823              2.028
 Vibration     9          0.655              1.786              1.835
 Vibration    10          0.671              1.738              1.633
 Vibration    11          0.673              1.731              1.605
 Vibration    12          0.686              1.692              1.472
 Vibration    13          0.692              1.674              1.417
 Vibration    14          0.700              1.651              1.352
 Vibration    15          0.713              1.614              1.256
 Vibration    16          0.720              1.595              1.210
 Vibration    17          0.730              1.568              1.151
 Vibration    18          0.738              1.545              1.102
 Vibration    19          0.752              1.508              1.030
 Vibration    20          0.772              1.453              0.935
 Vibration    21          0.798              1.389              0.835
 Vibration    22          0.803              1.375              0.815
 Vibration    23          0.811              1.356              0.789
 Vibration    24          0.830              1.310              0.730
 Vibration    25          0.844              1.277              0.689
 Vibration    26          0.878              1.200              0.604
 Vibration    27          0.880              1.193              0.597
 Vibration    28          0.930              1.089              0.498
 Vibration    29          0.953              1.041              0.457
 Vibration    30          0.974              1.001              0.425

 Normal termination of Gaussian 09 at Mon Mar 21 21:51:12 2016.
