 Gaussian 09, Revision B.01,
 Gaussian 09:  EM64L-G09RevB.01 12-Aug-2010

 ------------------------------------------------
 # freq=raman b3lyp/6-31+g(d,p) geom=connectivity
 ------------------------------------------------

 ------------
 350 5000.com
 ------------
 Symbolic Z-matrix:
 Charge =  0 Multiplicity = 1

                         Standard orientation:
 ---------------------------------------------------------------------
 Center     Atomic      Atomic             Coordinates (Angstroms)
 Number     Number       Type             X           Y           Z
 ---------------------------------------------------------------------
      1          8           0        5.099225   -0.241018   -0.280426
      2          6           0        3.759571   -0.059346    0.201126
      3          6           0        3.150133    1.226080   -0.335287
      4          8           0        4.086852    2.293077   -0.130473
      5          1           0        4.992432    1.950693    0.118598
      6          6           0        1.809216    1.582271    0.285291
      7          8           0        1.224915    2.811273   -0.171809
      8          1           0        0.239052    2.851138   -0.010366
      9          6           0        3.223097   -2.461548    0.299433
     10          8           0        4.292024   -3.176165   -0.337011
     11          1           0        4.009551   -4.097187   -0.605760
     12          6           0        2.765119   -1.117644   -0.246044
     13          8           0        1.471916   -0.832805    0.306724
     14          6           0        0.894898    0.423855   -0.077747
     15          8           0       -0.320524    0.556157    0.672039
     16          6           0       -1.461496    0.195040   -0.119510
     17          6           0       -2.010042   -1.151798    0.322037
     18          8           0       -1.078712   -2.187009   -0.025451
     19          1           0       -0.250493   -2.042192    0.514835
     20          6           0       -3.356365   -1.566661   -0.247801
     21          8           0       -3.729550   -2.865500    0.234812
     22          1           0       -4.615932   -3.077508   -0.177222
     23          6           0       -2.479353    2.573617   -0.236348
     24          8           0       -1.357256    3.291592    0.296308
     25          1           0       -1.499546    4.250310    0.049875
     26          6           0       -2.583804    1.143440    0.268672
     27          8           0       -3.843799    0.829146   -0.341950
     28          6           0       -4.285871   -0.437475    0.167299
     29          8           0       -5.508109   -0.628867   -0.559214
     30          1           0        5.688107   -0.394484    0.462048
     31          1           0        2.370107   -3.107537    0.301566
     32          1           0        3.511182   -2.306069    1.318125
     33          1           0        2.712903   -1.149675   -1.314289
     34          1           0        3.774075   -0.021357    1.270353
     35          1           0        3.005616    1.108934   -1.388991
     36          1           0        1.916898    1.622251    1.349108
     37          1           0        0.685594    0.430575   -1.127055
     38          1           0       -6.224169   -0.796804    0.057760
     39          1           0       -4.448572   -0.412971    1.224572
     40          1           0       -3.292579   -1.594324   -1.315540
     41          1           0       -2.098770   -1.133252    1.388191
     42          1           0       -1.255150    0.223939   -1.169027
     43          1           0       -2.694586    1.148225    1.332911
     44          1           0       -3.375284    3.095381    0.028171
     45          1           0       -2.396903    2.553871   -1.302984
 ---------------------------------------------------------------------

 SCF Done:  E(RB3LYP) =  -1297.94345175     A.U. after   14 cycles

 The electronic state is 1-A.
 Alpha  occ. eigenvalues --  -19.19615 -19.19548 -19.19287 -19.19121 -19.18577
 Alpha  occ. eigenvalues --  -19.18339 -19.17749 -19.17115 -19.15092 -19.14568
 Alpha  occ. eigenvalues --  -19.13496 -10.31100 -10.30674 -10.26259 -10.26217
 Alpha  occ. eigenvalues --  -10.25713 -10.25593 -10.25366 -10.25332 -10.24803
 Alpha  occ. eigenvalues --  -10.24443 -10.24087 -10.23992  -1.10217  -1.09581
 Alpha  occ. eigenvalues --   -1.05826  -1.05522  -1.04389  -1.03960  -1.03059
 Alpha  occ. eigenvalues --   -1.02507  -1.01088  -1.00853  -0.99166  -0.82385
 Alpha  occ. eigenvalues --   -0.80671  -0.79874  -0.78410  -0.71940  -0.69848
 Alpha  occ. eigenvalues --   -0.67096  -0.64939  -0.63443  -0.62535  -0.61897
 Alpha  occ. eigenvalues --   -0.60817  -0.56872  -0.56035  -0.54974  -0.54785
 Alpha  occ. eigenvalues --   -0.54096  -0.53409  -0.53322  -0.52174  -0.51154
 Alpha  occ. eigenvalues --   -0.50857  -0.49767  -0.49424  -0.48710  -0.46559
 Alpha  occ. eigenvalues --   -0.45629  -0.45269  -0.44488  -0.43339  -0.43240
 Alpha  occ. eigenvalues --   -0.42580  -0.41538  -0.41465  -0.40245  -0.39726
 Alpha  occ. eigenvalues --   -0.38660  -0.38426  -0.37674  -0.37330  -0.36033
 Alpha  occ. eigenvalues --   -0.35785  -0.34911  -0.34479  -0.33609  -0.32902
 Alpha  occ. eigenvalues --   -0.32709  -0.31466  -0.31408  -0.30900  -0.30103
 Alpha  occ. eigenvalues --   -0.29656  -0.28791  -0.28397  -0.26813  -0.26448
 Alpha  occ. eigenvalues --   -0.26263
 Alpha virt. eigenvalues --   -0.02088  -0.02062  -0.01746  -0.00587   0.00007
 Alpha virt. eigenvalues --    0.00644   0.01567   0.02283   0.02879   0.03560
 Alpha virt. eigenvalues --    0.03893   0.04202   0.05037   0.05288   0.05406

 Mulliken atomic charges:
              1
     1  O   -0.517656
     2  C   -0.389744
     3  C    0.070832
     4  O   -0.498757
     5  H    0.351053
     6  C    0.088727
     7  O   -0.560901
     8  H    0.464300
     9  C   -0.284239
    10  O   -0.535360
    11  H    0.360411
    12  C    0.514728
    13  O   -0.426055
    14  C    0.245954
    15  O   -0.303204
    16  C    0.260678
    17  C   -0.197535
    18  O   -0.484030
    19  H    0.380029
    20  C    0.064537
    21  O   -0.492420
    22  H    0.351346
    23  C    0.023600
    24  O   -0.600266
    25  H    0.381164
    26  C   -0.309136
    27  O   -0.285751
    28  C    0.262295
    29  O   -0.564570
    30  H    0.372897
    31  H    0.128090
    32  H    0.128826
    33  H    0.139212
    34  H    0.138208
    35  H    0.125297
    36  H    0.132568
    37  H    0.113432
    38  H    0.357915
    39  H    0.132781
    40  H    0.153336
    41  H    0.142945
    42  H    0.128900
    43  H    0.143906
    44  H    0.142983
    45  H    0.148672
 Sum of Mulliken atomic charges =   0.00000

 Dipole moment (field-independent basis, Debye):
    X=             -3.5284    Y=             -1.0930    Z=              2.2745  Tot=              4.3380
 Quadrupole moment (field-independent basis, Debye-Ang):
   XX=           -122.3828   YY=           -140.1974   ZZ=           -137.2722
   XY=            -15.1023   XZ=              3.3413   YZ=              1.1018

  Exact polarizability: 227.282  -0.225 191.904   2.047   0.076 141.091
 Approx polarizability: 264.967  -1.378 247.019   4.545   0.622 231.665

 ******    6 imaginary frequencies (negative Signs) ******

                     1                      2                      3
                     A                      A                      A
 Frequencies --  -302.6056              -297.3688              -256.6186
 Red. masses --     1.1571                 1.2720                 1.5486
 Frc consts  --     0.0624                 0.0663                 0.0601
 IR Inten    --   105.4772               115.9103                16.9847
 Raman Activ --     1.1888                 0.7750                 0.2324

                     4                      5                      6
                     A                      A                      A
 Frequencies --  -207.7454               -71.0279               -66.4283
 Red. masses --     1.9161                 6.8334                 6.1404
 Frc consts  --     0.0487                 0.0203                 0.0160
 IR Inten    --     2.7828                 1.1914                 0.3855
 Raman Activ --     0.1286                 0.0355                 0.0323

                     7                      8                      9
                     A                      A                      A
 Frequencies --    29.7188                48.9827                74.9322
 Red. masses --     6.7957                 6.7564                 6.5515
 Frc consts  --     0.0035                 0.0096                 0.0217
 IR Inten    --     1.8506                 1.1488                 0.3221
 Raman Activ --     0.0266                 0.0648                 0.2589

                    10                     11                     12
                     A                      A                      A
 Frequencies --    76.3129                90.9905               122.7383
 Red. masses --     7.3051                 6.7093                 5.2664
 Frc consts  --     0.0251                 0.0327                 0.0467
 IR Inten    --     0.4288                 0.5522                 1.4106
 Raman Activ --     0.0384                 0.0395                 0.0657

                    13                     14                     15
                     A                      A                      A
 Frequencies --   153.0394               177.8863               197.5529
 Red. masses --     6.3056                 7.7592                 6.0518
 Frc consts  --     0.0870                 0.1447                 0.1392
 IR Inten    --     2.9847                 0.6176                 3.4334
 Raman Activ --     0.4698                 0.3224                 1.0890

                    16                     17                     18
                     A                      A                      A
 Frequencies --   215.0067               230.7437               267.5148
 Red. masses --     6.5136                 6.2573                 4.1494
 Frc consts  --     0.1774                 0.1963                 0.1750
 IR Inten    --     0.8336                 2.1596                27.9120
 Raman Activ --     1.4570                 1.0568                 0.1632

                    19                     20                     21
                     A                      A                      A
 Frequencies --   280.9865               294.1889               308.9950
 Red. masses --     5.1988                 5.2091                 5.7116
 Frc consts  --     0.2418                 0.2656                 0.3213
 IR Inten    --     4.6165                 1.5851                 1.7550
 Raman Activ --     0.2336                 0.8234                 1.1223

                    22                     23                     24
                     A                      A                      A
 Frequencies --   313.5499               327.2279               332.2644
 Red. masses --     5.6713                 5.3335                 4.8195
 Frc consts  --     0.3285                 0.3365                 0.3135
 IR Inten    --     1.6380                 3.1376                 0.5219
 Raman Activ --     0.9868                 1.9557                 1.6756

                    25                     26                     27
                     A                      A                      A
 Frequencies --   355.5683               365.5900               384.9810
 Red. masses --     5.8093                 4.3853                 7.8171
 Frc consts  --     0.4327                 0.3453                 0.6826
 IR Inten    --     9.6073                 4.3461                 2.4933
 Raman Activ --     2.5194                 0.5033                 1.8396

                    28                     29                     30
                     A                      A                      A
 Frequencies --   411.7242               419.5291               437.9351
 Red. masses --     5.9619                 4.5729                 5.1730
 Frc consts  --     0.5954                 0.4742                 0.5845
 IR Inten    --     8.4145                 7.3837                 2.7222
 Raman Activ --     3.0001                 3.4250                 5.0311

                    31                     32                     33
                     A                      A                      A
 Frequencies --   447.5901               493.8524               499.0506
 Red. masses --     4.6769                 4.8454                 3.5388
 Frc consts  --     0.5520                 0.6963                 0.5193
 IR Inten    --     4.4435                 9.3141                19.9845
 Raman Activ --     1.9490                 2.9908                 0.5415

                    34                     35                     36
                     A                      A                      A
 Frequencies --   517.6583               541.6747               573.5418
 Red. masses --     4.0520                 2.9766                 4.2185
 Frc consts  --     0.6397                 0.5146                 0.8176
 IR Inten    --     5.5911                 1.0546                17.5447
 Raman Activ --     2.4797                 3.8749                 1.1466

                    37                     38                     39
                     A                      A                      A
 Frequencies --   595.5256               598.2396               621.9522
 Red. masses --     3.4233                 3.4771                 2.0066
 Frc consts  --     0.7153                 0.7332                 0.4573
 IR Inten    --    40.0140                39.0715                39.3726
 Raman Activ --     1.0657                 0.4397                 0.9985

                    40                     41                     42
                     A                      A                      A
 Frequencies --   627.3696               646.7185               656.6721
 Red. masses --     3.5853                 1.1648                 1.7178
 Frc consts  --     0.8314                 0.2870                 0.4364
 IR Inten    --    10.1006                35.2303                97.1032
 Raman Activ --     0.5140                 2.3125                 1.2390

                    43                     44                     45
                     A                      A                      A
 Frequencies --   691.9068               730.7248               741.6003
 Red. masses --     4.9029                 1.0834                 1.0906
 Frc consts  --     1.3829                 0.3408                 0.3534
 IR Inten    --    14.7768               103.8517               165.5704
 Raman Activ --     0.6402                 1.9554                 5.1748

                    46                     47                     48
                     A                      A                      A
 Frequencies --   760.7175               818.9220               853.8663
 Red. masses --     1.1001                 1.0785                 1.7744
 Frc consts  --     0.3751                 0.4262                 0.7622
 IR Inten    --   115.6323                83.1117                 3.3304
 Raman Activ --     1.5764                 0.5781                 0.5438

                    49                     50                     51
                     A                      A                      A
 Frequencies --   879.4640               952.5870               975.0332
 Red. masses --     1.5757                 5.7809                 4.6427
 Frc consts  --     0.7181                 3.0907                 2.6005
 IR Inten    --    17.5086                91.9117                45.1701
 Raman Activ --     1.1526                 3.3143                 0.5507

                    52                     53                     54
                     A                      A                      A
 Frequencies --   986.5355               997.4715              1000.2873
 Red. masses --     4.8649                 4.9842                 4.7914
 Frc consts  --     2.7896                 2.9218                 2.8247
 IR Inten    --    89.0012               105.5348                32.1460
 Raman Activ --     1.2542                 3.2241                 0.7466

                    55                     56                     57
                     A                      A                      A
 Frequencies --  1018.9250              1027.4765              1039.3198
 Red. masses --     6.5458                 5.3337                 5.4430
 Frc consts  --     4.0041                 3.3176                 3.4641
 IR Inten    --   297.9712                58.7554               143.0311
 Raman Activ --     0.5291                 2.2400                 2.6733

                    58                     59                     60
                     A                      A                      A
 Frequencies --  1050.0332              1064.0185              1069.8312
 Red. masses --     4.6086                 2.9360                 2.4971
 Frc consts  --     2.9938                 1.9584                 1.6839
 IR Inten    --   322.4269                81.8825                23.3221
 Raman Activ --     1.9329                 9.8722                10.5685

                    61                     62                     63
                     A                      A                      A
 Frequencies --  1075.1432              1083.5413              1088.0312
 Red. masses --     4.6740                 3.1289                 4.0247
 Frc consts  --     3.1833                 2.1644                 2.8071
 IR Inten    --    32.2275                55.4235                45.9438
 Raman Activ --     0.9152                 3.4303                 8.3985

                    64                     65                     66
                     A                      A                      A
 Frequencies --  1096.3327              1101.5651              1106.9282
 Red. masses --     3.7244                 2.2735                 3.3926
 Frc consts  --     2.6375                 1.6254                 2.4492
 IR Inten    --   162.1904                94.7634                22.5891
 Raman Activ --     1.0119                 3.7607                20.1797

                    67                     68                     69
                     A                      A                      A
 Frequencies --  1110.7871              1120.7800              1130.3825
 Red. masses --     2.3761                 2.4433                 2.4863
 Frc consts  --     1.7273                 1.8083                 1.8718
 IR Inten    --    59.5157                31.1750                35.5116
 Raman Activ --     4.5027                 4.9073                10.2988

                    70                     71                     72
                     A                      A                      A
 Frequencies --  1140.4650              1147.1288              1153.5893
 Red. masses --     2.2449                 1.8751                 1.7107
 Frc consts  --     1.7203                 1.4538                 1.3413
 IR Inten    --    23.3853                 4.0404                11.5871
 Raman Activ --     4.4316                 1.9466                 1.3169

                    73                     74                     75
                     A                      A                      A
 Frequencies --  1159.1411              1164.1011              1179.2707
 Red. masses --     2.0595                 2.4667                 1.9408
 Frc consts  --     1.6303                 1.9694                 1.5902
 IR Inten    --    29.8358                17.1718                 4.5940
 Raman Activ --     5.3517                 2.7985                 1.3565

                    76                     77                     78
                     A                      A                      A
 Frequencies --  1195.8573              1204.2356              1219.9905
 Red. masses --     1.6061                 1.4390                 1.2970
 Frc consts  --     1.3532                 1.2296                 1.1374
 IR Inten    --     9.4695                16.0241                12.5513
 Raman Activ --     5.9207                 0.4596                 3.6336

                    79                     80                     81
                     A                      A                      A
 Frequencies --  1225.2153              1244.2323              1255.2437
 Red. masses --     1.3345                 1.2650                 1.2808
 Frc consts  --     1.1803                 1.1539                 1.1891
 IR Inten    --    20.8881                20.0956                16.9806
 Raman Activ --     2.2747                 1.0794                 1.2863

                    82                     83                     84
                     A                      A                      A
 Frequencies --  1267.0448              1277.6312              1283.8457
 Red. masses --     1.2718                 1.1890                 1.2341
 Frc consts  --     1.2030                 1.1435                 1.1985
 IR Inten    --     3.2742                 2.6939                 5.5552
 Raman Activ --     6.0929                 5.1559                 2.8466

                    85                     86                     87
                     A                      A                      A
 Frequencies --  1284.9355              1288.5641              1300.3844
 Red. masses --     1.3267                 1.3100                 1.2868
 Frc consts  --     1.2906                 1.2815                 1.2820
 IR Inten    --    11.3813                17.3291                55.9499
 Raman Activ --     2.1156                 0.2495                 4.8048

                    88                     89                     90
                     A                      A                      A
 Frequencies --  1307.4709              1315.1303              1328.7472
 Red. masses --     1.3123                 1.3051                 1.1968
 Frc consts  --     1.3217                 1.3299                 1.2449
 IR Inten    --     7.0625                 1.7451                41.2703
 Raman Activ --     7.2284                 6.2118                 7.3317

                    91                     92                     93
                     A                      A                      A
 Frequencies --  1336.9162              1342.5057              1348.1106
 Red. masses --     1.3070                 1.4731                 1.2081
 Frc consts  --     1.3764                 1.5643                 1.2937
 IR Inten    --     8.6759                49.9362                43.5844
 Raman Activ --     1.0035                 4.5009                 5.1673

                    94                     95                     96
                     A                      A                      A
 Frequencies --  1359.7161              1363.8238              1370.8270
 Red. masses --     1.5611                 1.5117                 1.2132
 Frc consts  --     1.7005                 1.6566                 1.3432
 IR Inten    --     6.9237                18.6169                37.5845
 Raman Activ --     6.7524                 4.2038                 5.1738

                    97                     98                     99
                     A                      A                      A
 Frequencies --  1374.5113              1395.6521              1406.2827
 Red. masses --     1.4775                 1.4157                 1.4351
 Frc consts  --     1.6446                 1.6247                 1.6721
 IR Inten    --     7.8191                13.3663                 1.1044
 Raman Activ --     6.6053                 3.9368                 9.5135

                   100                    101                    102
                     A                      A                      A
 Frequencies --  1414.2243              1424.2179              1431.2306
 Red. masses --     1.4674                 1.3654                 1.3641
 Frc consts  --     1.7291                 1.6318                 1.6463
 IR Inten    --    67.9691                22.9380                11.3589
 Raman Activ --     1.4983                 2.3234                 2.3112

                   103                    104                    105
                     A                      A                      A
 Frequencies --  1446.2501              1472.5423              1475.9430
 Red. masses --     1.4333                 1.1416                 1.2809
 Frc consts  --     1.7663                 1.4585                 1.6440
 IR Inten    --    49.8061                14.9281                 8.7853
 Raman Activ --     1.1705                 2.7194                 3.2056

                   106                    107                    108
                     A                      A                      A
 Frequencies --  1478.7333              1484.1720              3260.7326
 Red. masses --     1.2585                 1.1607                 1.0683
 Frc consts  --     1.6213                 1.5064                 6.6921
 IR Inten    --    17.1971                15.1537               918.6957
 Raman Activ --     3.8839                 2.7856                99.5426

                   109                    110                    111
                     A                      A                      A
 Frequencies --  3266.8155              3278.2495              3284.3941
 Red. masses --     1.0585                 1.0607                 1.0827
 Frc consts  --     6.6555                 6.7164                 6.8812
 IR Inten    --    37.6520                93.5705                53.7783
 Raman Activ --    73.8045               260.4466                37.2055

                   112                    113                    114
                     A                      A                      A
 Frequencies --  3287.5956              3294.0401              3296.9147
 Red. masses --     1.0839                 1.0844                 1.0850
 Frc consts  --     6.9021                 6.9325                 6.9487
 IR Inten    --     6.6898                26.2492                 1.8371
 Raman Activ --    24.8817                 9.8897                36.9558

                   115                    116                    117
                     A                      A                      A
 Frequencies --  3299.6264              3303.9948              3304.2779
 Red. masses --     1.0852                 1.0863                 1.0860
 Frc consts  --     6.9616                 6.9866                 6.9862
 IR Inten    --     6.1585                 5.1278                 5.0493
 Raman Activ --   115.8789               155.3968                64.2741

                   118                    119                    120
                     A                      A                      A
 Frequencies --  3312.1714              3314.8915              3322.1097
 Red. masses --     1.0887                 1.0872                 1.0881
 Frc consts  --     7.0371                 7.0387                 7.0756
 IR Inten    --    66.6303                 0.1388                47.9176
 Raman Activ --     4.1264                23.4065                15.5394

                   121                    122                    123
                     A                      A                      A
 Frequencies --  3324.7468              3337.4067              3385.1665
 Red. masses --     1.1016                 1.1089                 1.0664
 Frc consts  --     7.1743                 7.2772                 7.2001
 IR Inten    --    87.1652                39.8042               188.6993
 Raman Activ --    21.5350                51.0233               156.5698

                   124                    125                    126
                     A                      A                      A
 Frequencies --  3385.4068              3389.6398              3391.0029
 Red. masses --     1.0663                 1.0702                 1.0659
 Frc consts  --     7.2006                 7.2445                 7.2213
 IR Inten    --    31.1997                40.9425                33.0847
 Raman Activ --    86.8424               114.8081               149.2054

                   127                    128                    129
                     A                      A                      A
 Frequencies --  3395.3134              3918.5564              3920.6846
 Red. masses --     1.0663                 1.0679                 1.0675
 Frc consts  --     7.2427                 9.6614                 9.6680
 IR Inten    --    52.3033                78.7584                57.6263
 Raman Activ --   147.3658                87.0708               125.5016

 - Thermochemistry -
 -------------------
 Temperature   298.150 Kelvin.  Pressure   1.00000 Atm.
 Atom     1 has atomic number  8 and mass  15.99491

 Molecular mass:   342.11621 amu.
 Principal axes and moments of inertia in atomic units:
                           1         2         3
     Eigenvalues --  4370.83270********************
           X            0.99997  -0.00765   0.00064
           Y            0.00765   0.99997  -0.00189
           Z           -0.00062   0.00189   1.00000
 This molecule is an asymmetric top.
 Rotational symmetry number  1.
 Warning -- assumption of classical behavior for rotation
           may cause significant error
 Rotational temperatures (Kelvin)      0.01982     0.00699     0.00528
 Rotational constants (GHZ):           0.41291     0.14560     0.11007
    6 imaginary frequencies ignored.
 Zero-point vibrational energy     977657.9 (Joules/Mol)
                                  233.66585 (Kcal/Mol)
 Warning -- explicit consideration of  32 degrees of freedom as
           vibrations may cause significant error
 Vibrational temperatures:     42.76    70.48   107.81   109.80   130.91
          (Kelvin)            176.59   220.19   255.94   284.23   309.35
                              331.99   384.89   404.28   423.27   444.57
                              451.13   470.81   478.05   511.58   526.00
                              553.90   592.38   603.61   630.09   643.98
                              710.54   718.02   744.79   779.35   825.20
                              856.83   860.73   894.85   902.64   930.48
                              944.80   995.50  1051.35  1067.00  1094.50
                             1178.24  1228.52  1265.35  1370.56  1402.85
                             1419.40  1435.14  1439.19  1466.00  1478.31
                             1495.35  1510.76  1530.88  1539.25  1546.89
                             1558.97  1565.43  1577.38  1584.90  1592.62
                             1598.17  1612.55  1626.37  1640.87  1650.46
                             1659.76  1667.74  1674.88  1696.71  1720.57
                             1732.62  1755.29  1762.81  1790.17  1806.01
                             1822.99  1838.22  1847.17  1848.73  1853.95
                             1870.96  1881.16  1892.18  1911.77  1923.52
                             1931.56  1939.63  1956.33  1962.24  1972.31
                             1977.61  2008.03  2023.32  2034.75  2049.13
                             2059.22  2080.83  2118.66  2123.55  2127.56
                             2135.39  4691.46  4700.21  4716.66  4725.50
                             4730.11  4739.38  4743.52  4747.42  4753.71
                             4754.11  4765.47  4769.38  4779.77  4783.56
                             4801.78  4870.49  4870.84  4876.93  4878.89
                             4885.09  5637.92  5640.98

 Zero-point correction=                           0.372370 (Hartree/Particle)
 Thermal correction to Energy=                    0.391411
 Thermal correction to Enthalpy=                  0.392356
 Thermal correction to Gibbs Free Energy=         0.325286
 Sum of electronic and zero-point Energies=          -1297.571082
 Sum of electronic and thermal Energies=             -1297.552040
 Sum of electronic and thermal Enthalpies=           -1297.551096
 Sum of electronic and thermal Free Energies=        -1297.618166

                     E (Thermal)             CV                S
                      KCal/Mol        Cal/Mol-Kelvin    Cal/Mol-Kelvin
 Total                  245.614             77.688            141.159
 Electronic               0.000              0.000              0.000
 Translational            0.889              2.981             43.384
 Rotational               0.889              2.981             35.140
 Vibrational            243.837             71.727             62.636
 Vibration     1          0.594              1.984              5.848
 Vibration     2          0.595              1.978              4.858
 Vibration     3          0.599              1.966              4.019
 Vibration     4          0.599              1.965              3.984
 Vibration     5          0.602              1.956              3.639
 Vibration     6          0.610              1.930              3.057
 Vibration     7          0.619              1.899              2.634
 Vibration     8          0.628              1.870              2.350
 Vibration     9          0.637              1.843              2.156
 Vibration    10          0.645              1.818              2.001
 Vibration    11          0.652              1.794              1.873
 Vibration    12          0.673              1.733              1.612
 Vibration    13          0.681              1.709              1.528
 Vibration    14          0.689              1.685              1.450
 Vibration    15          0.698              1.657              1.368
 Vibration    16          0.701              1.648              1.344
 Vibration    17          0.711              1.621              1.274
 Vibration    18          0.714              1.611              1.249
 Vibration    19          0.731              1.564              1.141
 Vibration    20          0.739              1.543              1.098
 Vibration    21          0.754              1.502              1.020
 Vibration    22          0.776              1.445              0.921
 Vibration    23          0.782              1.428              0.894
 Vibration    24          0.798              1.387              0.833
 Vibration    25          0.807              1.366              0.803
 Vibration    26          0.850              1.264              0.674
 Vibration    27          0.854              1.252              0.661
 Vibration    28          0.873              1.211              0.615
 Vibration    29          0.897              1.158              0.562
 Vibration    30          0.930              1.088              0.497
 Vibration    31          0.953              1.041              0.457
 Vibration    32          0.956              1.036              0.453

 Normal termination of Gaussian 09 at Tue Mar  1 16:00:00 2016.
