 Gaussian 09, Revision B.01,
 Gaussian 09:  EM64L-G09RevB.01 12-Aug-2010

 -------------------------------------------------
 # freq=raman b3lyp/6-31+g(2d,p) geom=connectivity
 -------------------------------------------------

 -----------------
 423 5397/5397.com
 -----------------
 Symbolic Z-matrix:
 Charge =  0 Multiplicity = 1

                         Standard orientation:
 ---------------------------------------------------------------------
 Center     Atomic      Atomic             Coordinates (Angstroms)
 Number     Number       Type             X           Y           Z
 ---------------------------------------------------------------------
      1          8           0       -5.033582   -0.177832    0.451997
      2          6           0       -3.744626   -0.117790   -0.176128
      3          6           0       -3.147498    1.207249    0.271124
      4          8           0       -4.064560    2.245473   -0.102858
      5          1           0       -5.025008    1.995369    0.022105
      6          6           0       -1.767427    1.612250   -0.220995
      7          8           0       -1.328101    2.739489    0.549899
      8          1           0       -0.452696    3.087211    0.214978
      9          6           0       -3.095695   -2.535770   -0.205752
     10          8           0       -4.355091   -3.185150    0.020692
     11          1           0       -4.293859   -4.155205   -0.216166
     12          6           0       -2.737844   -1.149615    0.304354
     13          8           0       -1.427629   -0.898188   -0.224794
     14          6           0       -0.930908    0.396423    0.142873
     15          8           0        0.326919    0.528094   -0.534720
     16          6           0        1.549358    0.197280    0.140854
     17          6           0        1.966818   -1.165219   -0.388312
     18          8           0        1.011017   -2.167919   -0.014139
     19          1           0        0.157609   -1.715000   -0.269010
     20          6           0        3.316311   -1.539573    0.202382
     21          8           0        3.845504   -2.794163   -0.251256
     22          1           0        4.635969   -2.999921    0.324862
     23          6           0        2.404441    2.617225   -0.076505
     24          8           0        1.224602    3.371583   -0.388995
     25          1           0        1.428098    4.349641   -0.351167
     26          6           0        2.602440    1.146451   -0.407747
     27          8           0        3.865490    0.856415    0.206592
     28          6           0        4.344675   -0.461568   -0.099681
     29          8           0        5.448633   -0.637824    0.799032
     30          1           0        6.245042   -0.821510    0.295453
     31          1           0        3.218861    3.136821   -0.536549
     32          1           0        2.539797    2.703542    0.981383
     33          1           0        2.681246    1.023490   -1.467733
     34          1           0        4.671335   -0.520474   -1.116895
     35          1           0        3.202848   -1.597309    1.264782
     36          1           0        2.043016   -1.125514   -1.454857
     37          1           0        1.466575    0.229011    1.207175
     38          1           0       -5.712562   -0.275805   -0.219559
     39          1           0       -2.347515   -3.196328    0.179979
     40          1           0       -2.964458   -2.504489   -1.267213
     41          1           0       -2.703210   -1.153764    1.373786
     42          1           0       -3.839462   -0.147421   -1.241505
     43          1           0       -3.105738    1.187341    1.340124
     44          1           0       -1.756712    1.809243   -1.272650
     45          1           0       -0.755051    0.407188    1.198268
 ---------------------------------------------------------------------

 SCF Done:  E(RB3LYP) =  -1297.98839369     A.U. after   13 cycles

 The electronic state is 1-A.
 Alpha  occ. eigenvalues --  -19.19207 -19.18579 -19.17779 -19.17700 -19.17530
 Alpha  occ. eigenvalues --  -19.17302 -19.16048 -19.16032 -19.13874 -19.13700
 Alpha  occ. eigenvalues --  -19.13647 -10.30190 -10.30136 -10.26093 -10.25887
 Alpha  occ. eigenvalues --  -10.25415 -10.25176 -10.25022 -10.24374 -10.24268
 Alpha  occ. eigenvalues --  -10.23890 -10.23725 -10.23404  -1.10149  -1.09030
 Alpha  occ. eigenvalues --   -1.05558  -1.05141  -1.04275  -1.03420  -1.02529
 Alpha  occ. eigenvalues --   -1.02308  -1.01489  -1.00542  -0.99493  -0.82392
 Alpha  occ. eigenvalues --   -0.80496  -0.79165  -0.78259  -0.71754  -0.69924
 Alpha  occ. eigenvalues --   -0.67175  -0.64163  -0.62821  -0.62556  -0.61289
 Alpha  occ. eigenvalues --   -0.60325  -0.56315  -0.55593  -0.55083  -0.54453
 Alpha  occ. eigenvalues --   -0.54174  -0.53393  -0.52594  -0.51819  -0.51369
 Alpha  occ. eigenvalues --   -0.50289  -0.49893  -0.49189  -0.48716  -0.46637
 Alpha  occ. eigenvalues --   -0.45786  -0.45064  -0.43957  -0.43343  -0.43162
 Alpha  occ. eigenvalues --   -0.42365  -0.41854  -0.41360  -0.40514  -0.39527
 Alpha  occ. eigenvalues --   -0.38771  -0.37852  -0.37467  -0.36553  -0.35784
 Alpha  occ. eigenvalues --   -0.34966  -0.34622  -0.33902  -0.33632  -0.33024
 Alpha  occ. eigenvalues --   -0.32755  -0.31046  -0.30670  -0.30517  -0.29743
 Alpha  occ. eigenvalues --   -0.29399  -0.28508  -0.28216  -0.27822  -0.26384
 Alpha  occ. eigenvalues --   -0.25983
 Alpha virt. eigenvalues --   -0.02166  -0.01827  -0.01583  -0.00214   0.00205
 Alpha virt. eigenvalues --    0.01254   0.01952   0.02490   0.02959   0.03617
 Alpha virt. eigenvalues --    0.04144   0.04410   0.05055   0.05483   0.05805

 Mulliken atomic charges:
              1
     1  O   -0.542059
     2  C   -0.124407
     3  C    0.351446
     4  O   -0.589922
     5  H    0.340773
     6  C   -0.050878
     7  O   -0.565083
     8  H    0.403103
     9  C   -0.273302
    10  O   -0.547441
    11  H    0.340762
    12  C    0.199864
    13  O   -0.237385
    14  C    0.131280
    15  O   -0.245843
    16  C    0.091792
    17  C    0.154786
    18  O   -0.572984
    19  H    0.395447
    20  C    0.100233
    21  O   -0.544940
    22  H    0.336247
    23  C   -0.296874
    24  O   -0.584722
    25  H    0.361243
    26  C    0.083111
    27  O   -0.245067
    28  C    0.134079
    29  O   -0.537641
    30  H    0.333620
    31  H    0.144206
    32  H    0.156262
    33  H    0.123098
    34  H    0.130573
    35  H    0.131617
    36  H    0.122737
    37  H    0.129478
    38  H    0.343471
    39  H    0.145504
    40  H    0.140941
    41  H    0.119673
    42  H    0.125723
    43  H    0.125275
    44  H    0.136861
    45  H    0.125344
 Sum of Mulliken atomic charges =   0.00000

 Dipole moment (field-independent basis, Debye):
    X=              2.3928    Y=              0.3005    Z=             -2.2871  Tot=              3.3237
 Quadrupole moment (field-independent basis, Debye-Ang):
   XX=           -117.2142   YY=           -135.4207   ZZ=           -138.7188
   XY=             14.6196   XZ=              3.2420   YZ=             -2.3789

  Exact polarizability: 233.729  -1.322 197.647   1.340   0.017 143.010
 Approx polarizability: 274.188  -1.205 257.306   1.733   0.228 238.246

 ******    6 imaginary frequencies (negative Signs) ******

                     1                      2                      3
                     A                      A                      A
 Frequencies --  -312.9222              -298.8872              -218.2177
 Red. masses --     1.7348                 1.7204                 1.1669
 Frc consts  --     0.1001                 0.0906                 0.0327
 IR Inten    --     5.1963                 2.4881               102.9504
 Raman Activ --     0.0312                 0.0511                 0.7813

                     4                      5                      6
                     A                      A                      A
 Frequencies --  -207.9499               -66.3856               -41.5078
 Red. masses --     1.1919                 7.0519                 6.3087
 Frc consts  --     0.0304                 0.0183                 0.0064
 IR Inten    --   115.2393                 1.3708                 0.1625
 Raman Activ --     0.8613                 0.0217                 0.0287

                     7                      8                      9
                     A                      A                      A
 Frequencies --    44.4067                54.6017                71.5852
 Red. masses --     6.6205                 6.5635                 6.2129
 Frc consts  --     0.0077                 0.0115                 0.0188
 IR Inten    --     1.2224                 1.4983                 2.9563
 Raman Activ --     0.0511                 0.0781                 0.1171

                    10                     11                     12
                     A                      A                      A
 Frequencies --    87.9791                99.8061               122.8483
 Red. masses --     6.5088                 7.0725                 5.7641
 Frc consts  --     0.0297                 0.0415                 0.0513
 IR Inten    --     0.6733                 0.7449                 2.0892
 Raman Activ --     0.1896                 0.0746                 0.0759

                    13                     14                     15
                     A                      A                      A
 Frequencies --   154.6241               175.2059               182.4199
 Red. masses --     6.4022                 7.2804                 6.1540
 Frc consts  --     0.0902                 0.1317                 0.1207
 IR Inten    --     3.3525                 0.1578                 2.2949
 Raman Activ --     0.3065                 0.6259                 0.5541

                    16                     17                     18
                     A                      A                      A
 Frequencies --   200.3496               231.3968               276.1379
 Red. masses --     6.8005                 6.1108                 4.4115
 Frc consts  --     0.1608                 0.1928                 0.1982
 IR Inten    --     0.3601                 1.2023                17.2493
 Raman Activ --     1.7749                 0.4955                 0.4823

                    19                     20                     21
                     A                      A                      A
 Frequencies --   283.4757               303.7434               311.9119
 Red. masses --     5.1107                 5.8113                 5.7819
 Frc consts  --     0.2420                 0.3159                 0.3314
 IR Inten    --     0.6533                 2.7786                 8.1998
 Raman Activ --     0.1919                 0.3012                 1.1009

                    22                     23                     24
                     A                      A                      A
 Frequencies --   314.5080               320.0126               330.2653
 Red. masses --     6.5286                 5.0754                 5.4003
 Frc consts  --     0.3805                 0.3062                 0.3471
 IR Inten    --     1.4227                 3.0061                 4.2478
 Raman Activ --     1.9776                 3.2837                 2.4618

                    25                     26                     27
                     A                      A                      A
 Frequencies --   350.9613               364.4690               379.3934
 Red. masses --     5.3892                 5.1421                 5.8498
 Frc consts  --     0.3911                 0.4025                 0.4961
 IR Inten    --     4.9028                 5.3333                 1.5923
 Raman Activ --     1.4697                 0.9646                 1.6035

                    28                     29                     30
                     A                      A                      A
 Frequencies --   412.4715               417.9763               441.7495
 Red. masses --     4.1730                 5.9647                 5.7460
 Frc consts  --     0.4183                 0.6140                 0.6606
 IR Inten    --    16.2455                 1.6616                 2.0467
 Raman Activ --     1.4333                 6.5456                 1.3938

                    31                     32                     33
                     A                      A                      A
 Frequencies --   445.5846               487.7927               490.8526
 Red. masses --     4.8260                 4.4341                 4.3092
 Frc consts  --     0.5645                 0.6216                 0.6117
 IR Inten    --     4.2753                 5.6918                11.3015
 Raman Activ --     1.1273                 4.9593                 0.1203

                    34                     35                     36
                     A                      A                      A
 Frequencies --   519.6555               535.8000               574.5836
 Red. masses --     3.7403                 3.3731                 3.8433
 Frc consts  --     0.5951                 0.5705                 0.7476
 IR Inten    --     6.8514                12.0350                 7.3021
 Raman Activ --     3.3182                 3.3897                 0.8008

                    37                     38                     39
                     A                      A                      A
 Frequencies --   592.3372               599.9888               612.3432
 Red. masses --     5.9947                 2.8526                 5.2341
 Frc consts  --     1.2392                 0.6050                 1.1563
 IR Inten    --    16.4070                28.8105                20.5963
 Raman Activ --     0.7313                 0.2554                 0.8530

                    40                     41                     42
                     A                      A                      A
 Frequencies --   629.9011               676.3372               685.8361
 Red. masses --     3.8040                 1.0715                 5.1548
 Frc consts  --     0.8893                 0.2888                 1.4286
 IR Inten    --    33.8077               107.8937                 7.2234
 Raman Activ --     1.9510                 1.9157                 0.6195

                    43                     44                     45
                     A                      A                      A
 Frequencies --   700.5649               741.7450               752.2620
 Red. masses --     1.0719                 1.0852                 1.0499
 Frc consts  --     0.3100                 0.3518                 0.3501
 IR Inten    --   113.9241                88.4432                87.3347
 Raman Activ --     1.6350                 1.6424                 1.9046

                    46                     47                     48
                     A                      A                      A
 Frequencies --   828.6489               845.4284               850.7886
 Red. masses --     1.1470                 1.1243                 1.6855
 Frc consts  --     0.4640                 0.4735                 0.7188
 IR Inten    --    77.0064                73.9392                 3.5687
 Raman Activ --     0.6050                 2.6272                 0.7624

                    49                     50                     51
                     A                      A                      A
 Frequencies --   861.3242               921.6694               950.8847
 Red. masses --     1.5620                 5.4706                 5.2171
 Frc consts  --     0.6827                 2.7380                 2.7793
 IR Inten    --    10.4210                83.2222                46.8733
 Raman Activ --     0.8659                 2.5446                 0.7790

                    52                     53                     54
                     A                      A                      A
 Frequencies --   976.3077               981.9261               983.9534
 Red. masses --     6.6782                 6.7359                 4.6845
 Frc consts  --     3.7504                 3.8265                 2.6722
 IR Inten    --    15.5711               265.0949                19.9115
 Raman Activ --     4.0988                 1.7902                 0.7743

                    55                     56                     57
                     A                      A                      A
 Frequencies --  1004.6146              1010.5146              1019.6341
 Red. masses --     6.0171                 6.0512                 6.4023
 Frc consts  --     3.5779                 3.6406                 3.9217
 IR Inten    --   454.1590                20.0091               141.2507
 Raman Activ --     1.1483                 1.2823                 5.3585

                    58                     59                     60
                     A                      A                      A
 Frequencies --  1030.6572              1045.4845              1051.7718
 Red. masses --     4.9905                 6.1249                 4.5691
 Frc consts  --     3.1233                 3.9444                 2.9780
 IR Inten    --   230.6115                51.3943               178.7560
 Raman Activ --     2.9665                 0.7153                 2.5303

                    61                     62                     63
                     A                      A                      A
 Frequencies --  1064.6749              1067.7718              1072.7990
 Red. masses --     2.8768                 3.8504                 3.1860
 Frc consts  --     1.9213                 2.5865                 2.1604
 IR Inten    --    18.9038               102.6735                11.6889
 Raman Activ --     9.0145                 1.5932                23.7266

                    64                     65                     66
                     A                      A                      A
 Frequencies --  1087.7615              1098.5765              1100.9095
 Red. masses --     2.9138                 2.7417                 2.6537
 Frc consts  --     2.0313                 1.9495                 1.8950
 IR Inten    --    11.1184                12.5454                14.5702
 Raman Activ --     9.7614                 4.3381                14.3574

                    67                     68                     69
                     A                      A                      A
 Frequencies --  1113.8773              1114.7198              1119.7050
 Red. masses --     2.5576                 2.3483                 2.0262
 Frc consts  --     1.8697                 1.7192                 1.4968
 IR Inten    --    42.3910                15.7249                85.9005
 Raman Activ --     8.6237                 4.1418                 3.1296

                    70                     71                     72
                     A                      A                      A
 Frequencies --  1133.7722              1139.1457              1147.2635
 Red. masses --     2.3761                 1.8626                 2.4172
 Frc consts  --     1.7996                 1.4241                 1.8745
 IR Inten    --    20.4254                10.6378                 4.9313
 Raman Activ --     3.3837                 3.1130                 1.0643

                    73                     74                     75
                     A                      A                      A
 Frequencies --  1155.3007              1166.6080              1175.7709
 Red. masses --     2.2398                 1.9323                 1.8886
 Frc consts  --     1.7614                 1.5495                 1.5383
 IR Inten    --    18.2634                20.7927                37.8941
 Raman Activ --     4.3006                 2.9591                 2.0692

                    76                     77                     78
                     A                      A                      A
 Frequencies --  1199.3194              1203.8632              1212.5956
 Red. masses --     1.4306                 1.3184                 1.2831
 Frc consts  --     1.2123                 1.1258                 1.1116
 IR Inten    --     6.2967                 7.5570                 7.6185
 Raman Activ --     2.8226                 0.4843                 1.5518

                    79                     80                     81
                     A                      A                      A
 Frequencies --  1235.9661              1240.3831              1251.9547
 Red. masses --     1.2193                 1.3509                 1.2658
 Frc consts  --     1.0974                 1.2246                 1.1689
 IR Inten    --    14.3440                18.0297                 7.4989
 Raman Activ --     2.3888                 2.8194                 0.6314

                    82                     83                     84
                     A                      A                      A
 Frequencies --  1258.2963              1274.4469              1286.1948
 Red. masses --     1.2259                 1.3161                 1.3958
 Frc consts  --     1.1436                 1.2594                 1.3604
 IR Inten    --     9.2799                 7.6742                35.8396
 Raman Activ --     0.9700                 0.4589                 0.6619

                    85                     86                     87
                     A                      A                      A
 Frequencies --  1291.9412              1301.2889              1303.7148
 Red. masses --     1.3048                 1.3886                 1.2152
 Frc consts  --     1.2831                 1.3854                 1.2169
 IR Inten    --    73.4255                 8.5602                17.7883
 Raman Activ --     3.5609                 9.2597                 4.3596

                    88                     89                     90
                     A                      A                      A
 Frequencies --  1311.1014              1321.0309              1328.3386
 Red. masses --     1.1921                 1.2339                 1.4273
 Frc consts  --     1.2074                 1.2687                 1.4839
 IR Inten    --    12.7630                 2.5583                36.2032
 Raman Activ --    10.9940                 7.8950                 5.9805

                    91                     92                     93
                     A                      A                      A
 Frequencies --  1334.0949              1336.9343              1342.6994
 Red. masses --     1.2898                 1.1655                 1.1428
 Frc consts  --     1.3526                 1.2274                 1.2139
 IR Inten    --    19.3553                35.9170                30.4841
 Raman Activ --     2.0557                 2.8201                 1.3659

                    94                     95                     96
                     A                      A                      A
 Frequencies --  1354.8183              1358.8224              1363.2872
 Red. masses --     1.3983                 1.1102                 1.4336
 Frc consts  --     1.5122                 1.2078                 1.5699
 IR Inten    --     3.7545                26.2075                11.5279
 Raman Activ --     9.0512                 3.5922                 4.4028

                    97                     98                     99
                     A                      A                      A
 Frequencies --  1373.0033              1392.6857              1399.3357
 Red. masses --     1.4836                 1.6444                 1.6265
 Frc consts  --     1.6479                 1.8791                 1.8765
 IR Inten    --     6.8571                19.2579                15.0510
 Raman Activ --     4.1476                 2.8649                 4.9506

                   100                    101                    102
                     A                      A                      A
 Frequencies --  1405.6764              1446.8231              1453.5233
 Red. masses --     1.6396                 1.3833                 1.3439
 Frc consts  --     1.9088                 1.7061                 1.6729
 IR Inten    --    18.4690                28.3704                27.2508
 Raman Activ --     1.8990                 1.8287                 1.3180

                   103                    104                    105
                     A                      A                      A
 Frequencies --  1463.5327              1472.1859              1477.8764
 Red. masses --     1.2829                 1.0886                 1.1417
 Frc consts  --     1.6190                 1.3900                 1.4692
 IR Inten    --    12.9596                 1.2686                 2.1722
 Raman Activ --     3.0846                 4.3288                 2.5226

                   106                    107                    108
                     A                      A                      A
 Frequencies --  1490.3855              1534.5152              3253.6870
 Red. masses --     1.2951                 1.2536                 1.0581
 Frc consts  --     1.6949                 1.7392                 6.6000
 IR Inten    --    34.0069                55.4647                31.1284
 Raman Activ --     1.0708                 1.8842                78.7329

                   109                    110                    111
                     A                      A                      A
 Frequencies --  3259.5139              3271.8186              3274.3288
 Red. masses --     1.0590                 1.0837                 1.0829
 Frc consts  --     6.6294                 6.8348                 6.8404
 IR Inten    --   107.8818                13.2324                19.6389
 Raman Activ --    55.7755                23.2448                36.6063

                   112                    113                    114
                     A                      A                      A
 Frequencies --  3281.0978              3282.6860              3283.4976
 Red. masses --     1.0850                 1.0837                 1.0845
 Frc consts  --     6.8820                 6.8807                 6.8889
 IR Inten    --     4.8026                13.4304                 3.4229
 Raman Activ --    59.8373               144.0636                20.2265

                   115                    116                    117
                     A                      A                      A
 Frequencies --  3286.6362              3287.6069              3296.1884
 Red. masses --     1.0817                 1.0726                 1.0917
 Frc consts  --     6.8844                 6.8303                 6.9882
 IR Inten    --   138.0504               361.4284                 9.9272
 Raman Activ --   271.1966               183.0530                17.8671

                   118                    119                    120
                     A                      A                      A
 Frequencies --  3296.6074              3305.9615              3307.7129
 Red. masses --     1.0868                 1.0951                 1.0920
 Frc consts  --     6.9591                 7.0516                 7.0390
 IR Inten    --    47.1791                15.5717                20.0024
 Raman Activ --    52.1457                16.5798                18.3933

                   121                    122                    123
                     A                      A                      A
 Frequencies --  3311.2130              3313.6831              3319.5885
 Red. masses --     1.0877                 1.0976                 1.0701
 Frc consts  --     7.0261                 7.1010                 6.9475
 IR Inten    --    95.4723               126.0979               627.1172
 Raman Activ --    13.2199                41.7108               127.5983

                   124                    125                    126
                     A                      A                      A
 Frequencies --  3359.5971              3362.7964              3374.0949
 Red. masses --     1.0652                 1.0677                 1.0671
 Frc consts  --     7.0838                 7.1140                 7.1579
 IR Inten    --    31.9503                59.3278                69.7110
 Raman Activ --   122.7630               165.0586               137.3401

                   127                    128                    129
                     A                      A                      A
 Frequencies --  3375.6108              3889.3378              3890.8418
 Red. masses --     1.0658                 1.0676                 1.0674
 Frc consts  --     7.1553                 9.5151                 9.5207
 IR Inten    --    32.3749                84.8473                68.3444
 Raman Activ --   145.0353                85.7291               125.3412

 - Thermochemistry -
 -------------------
 Temperature   298.150 Kelvin.  Pressure   1.00000 Atm.
 Atom     1 has atomic number  8 and mass  15.99491

 Molecular mass:   342.11621 amu.
 Principal axes and moments of inertia in atomic units:
                           1         2         3
     Eigenvalues --  4411.74475********************
           X            0.99997   0.00736   0.00024
           Y           -0.00736   0.99997   0.00027
           Z           -0.00024  -0.00027   1.00000
 This molecule is an asymmetric top.
 Rotational symmetry number  1.
 Warning -- assumption of classical behavior for rotation
           may cause significant error
 Rotational temperatures (Kelvin)      0.01963     0.00701     0.00529
 Rotational constants (GHZ):           0.40908     0.14604     0.11029
    6 imaginary frequencies ignored.
 Zero-point vibrational energy     974985.8 (Joules/Mol)
                                  233.02719 (Kcal/Mol)
 Warning -- explicit consideration of  33 degrees of freedom as
           vibrations may cause significant error
 Vibrational temperatures:     63.89    78.56   103.00   126.58   143.60
          (Kelvin)            176.75   222.47   252.08   262.46   288.26
                              332.93   397.30   407.86   437.02   448.77
                              452.51   460.43   475.18   504.95   524.39
                              545.86   593.45   601.37   635.58   641.10
                              701.82   706.23   747.67   770.90   826.70
                              852.24   863.25   881.02   906.29   973.10
                              986.76  1007.96  1067.20  1082.34  1192.24
                             1216.38  1224.09  1239.25  1326.08  1368.11
                             1404.69  1412.77  1415.69  1445.41  1453.90
                             1467.02  1482.88  1504.22  1513.26  1531.83
                             1536.28  1543.52  1565.04  1580.60  1583.96
                             1602.62  1603.83  1611.00  1631.24  1638.97
                             1650.65  1662.22  1678.49  1691.67  1725.55
                             1732.09  1744.65  1778.28  1784.63  1801.28
                             1810.41  1833.64  1850.55  1858.81  1872.26
                             1875.75  1886.38  1900.67  1911.18  1919.46
                             1923.55  1931.84  1949.28  1955.04  1961.46
                             1975.44  2003.76  2013.33  2022.45  2081.65
                             2091.29  2105.69  2118.14  2126.33  2144.33
                             2207.82  4681.32  4689.71  4707.41  4711.02
                             4720.76  4723.05  4724.21  4728.73  4730.13
                             4742.47  4743.08  4756.54  4759.06  4764.09
                             4767.64  4776.14  4833.70  4838.31  4854.56
                             4856.74  5595.88  5598.05

 Zero-point correction=                           0.371352 (Hartree/Particle)
 Thermal correction to Energy=                    0.390349
 Thermal correction to Enthalpy=                  0.391293
 Thermal correction to Gibbs Free Energy=         0.324780
 Sum of electronic and zero-point Energies=          -1297.617041
 Sum of electronic and thermal Energies=             -1297.598045
 Sum of electronic and thermal Enthalpies=           -1297.597100
 Sum of electronic and thermal Free Energies=        -1297.663613

                     E (Thermal)             CV                S
                      KCal/Mol        Cal/Mol-Kelvin    Cal/Mol-Kelvin
 Total                  244.948             77.746            139.988
 Electronic               0.000              0.000              0.000
 Translational            0.889              2.981             43.384
 Rotational               0.889              2.981             35.144
 Vibrational            243.170             71.784             61.460
 Vibration     1          0.595              1.980              5.052
 Vibration     2          0.596              1.976              4.643
 Vibration     3          0.598              1.968              4.109
 Vibration     4          0.601              1.958              3.705
 Vibration     5          0.604              1.949              3.458
 Vibration     6          0.610              1.930              3.055
 Vibration     7          0.620              1.898              2.615
 Vibration     8          0.627              1.873              2.379
 Vibration     9          0.630              1.864              2.304
 Vibration    10          0.638              1.839              2.130
 Vibration    11          0.653              1.793              1.868
 Vibration    12          0.678              1.718              1.557
 Vibration    13          0.682              1.704              1.513
 Vibration    14          0.695              1.667              1.396
 Vibration    15          0.700              1.651              1.352
 Vibration    16          0.702              1.646              1.339
 Vibration    17          0.706              1.635              1.310
 Vibration    18          0.713              1.615              1.259
 Vibration    19          0.728              1.573              1.162
 Vibration    20          0.738              1.545              1.103
 Vibration    21          0.749              1.514              1.042
 Vibration    22          0.776              1.443              0.918
 Vibration    23          0.781              1.431              0.899
 Vibration    24          0.802              1.379              0.821
 Vibration    25          0.805              1.371              0.809
 Vibration    26          0.844              1.277              0.689
 Vibration    27          0.847              1.270              0.681
 Vibration    28          0.875              1.206              0.611
 Vibration    29          0.891              1.171              0.574
 Vibration    30          0.931              1.086              0.496
 Vibration    31          0.950              1.048              0.463
 Vibration    32          0.958              1.032              0.450
 Vibration    33          0.972              1.006              0.429

 Normal termination of Gaussian 09 at Sun Mar 27 03:23:03 2016.
