 Gaussian 09, Revision B.01,
 Gaussian 09:  EM64L-G09RevB.01 12-Aug-2010

 -------------------------------------------------
 # freq=raman b3lyp/6-31+g(2d,p) geom=connectivity
 -------------------------------------------------

 -----------------
 280 6474/6474.com
 -----------------
 Symbolic Z-matrix:
 Charge =  0 Multiplicity = 1

                         Standard orientation:
 ---------------------------------------------------------------------
 Center     Atomic      Atomic             Coordinates (Angstroms)
 Number     Number       Type             X           Y           Z
 ---------------------------------------------------------------------
      1          8           0       -5.022600   -0.485088    0.271097
      2          6           0       -3.702856   -0.118295   -0.157391
      3          6           0       -3.244350    1.263983    0.276644
      4          8           0       -4.122931    2.347331   -0.060877
      5          1           0       -5.026034    1.935641    0.057456
      6          6           0       -1.809638    1.588258   -0.105009
      7          8           0       -1.338070    2.813438    0.476560
      8          1           0       -0.432645    3.010028    0.100616
      9          6           0       -3.011043   -2.599760   -0.185424
     10          8           0       -4.204219   -3.290481    0.212215
     11          1           0       -3.969748   -4.261639    0.248280
     12          6           0       -2.704830   -1.182008    0.270071
     13          8           0       -1.410959   -0.803848   -0.219911
     14          6           0       -0.872165    0.443359    0.241465
     15          8           0        0.280694    0.485191   -0.612768
     16          6           0        1.525451    0.251005    0.061389
     17          6           0        2.034445   -1.132067   -0.307982
     18          8           0        1.111669   -2.214783   -0.117559
     19          1           0        0.296257   -1.902926   -0.605737
     20          6           0        3.391457   -1.488595    0.276681
     21          8           0        3.809411   -2.662027   -0.436656
     22          1           0        4.761284   -2.894130   -0.235668
     23          6           0        2.145399    2.646724    0.022965
     24          8           0        0.996734    3.257316   -0.582881
     25          1           0        1.095336    4.244562   -0.452956
     26          6           0        2.625257    1.239818   -0.291035
     27          8           0        3.804689    0.787740    0.390981
     28          6           0        4.417252   -0.423490   -0.074894
     29          8           0        5.548327   -0.520718    0.801177
     30          1           0        6.346239   -0.641979    0.281337
     31          1           0       -5.562272   -0.691151   -0.495644
     32          1           0       -2.186878   -3.206821    0.126233
     33          1           0       -3.006760   -2.585872   -1.255325
     34          1           0       -2.665322   -1.183183    1.339341
     35          1           0       -3.715592   -0.116349   -1.227314
     36          1           0       -3.246423    1.229581    1.346089
     37          1           0       -1.783918    1.710460   -1.167697
     38          1           0        2.971092    3.296397   -0.179662
     39          1           0        1.977584    2.676556    1.079302
     40          1           0        2.806013    1.178319   -1.343862
     41          1           0        1.356583    0.285922    1.117403
     42          1           0        2.192435   -1.088690   -1.365365
     43          1           0        3.339890   -1.662125    1.331256
     44          1           0        4.675834   -0.396289   -1.112822
     45          1           0       -0.611178    0.417539    1.278827
 ---------------------------------------------------------------------

 SCF Done:  E(RB3LYP) =  -1297.96970362     A.U. after   13 cycles

 The electronic state is 1-A.
 Alpha  occ. eigenvalues --  -19.20093 -19.18626 -19.17706 -19.17580 -19.17193
 Alpha  occ. eigenvalues --  -19.16592 -19.16137 -19.15712 -19.15034 -19.14203
 Alpha  occ. eigenvalues --  -19.12703 -10.31181 -10.30020 -10.26608 -10.26065
 Alpha  occ. eigenvalues --  -10.24980 -10.24894 -10.24698 -10.24635 -10.23916
 Alpha  occ. eigenvalues --  -10.23726 -10.23700 -10.23670  -1.09812  -1.09272
 Alpha  occ. eigenvalues --   -1.06850  -1.04803  -1.03606  -1.03253  -1.02759
 Alpha  occ. eigenvalues --   -1.02350  -1.01832  -1.00537  -0.99623  -0.82255
 Alpha  occ. eigenvalues --   -0.79746  -0.79264  -0.77882  -0.72173  -0.70054
 Alpha  occ. eigenvalues --   -0.67133  -0.64715  -0.63268  -0.62138  -0.61430
 Alpha  occ. eigenvalues --   -0.59608  -0.56815  -0.56014  -0.55174  -0.54406
 Alpha  occ. eigenvalues --   -0.53615  -0.53370  -0.52924  -0.51712  -0.51063
 Alpha  occ. eigenvalues --   -0.50804  -0.49825  -0.49053  -0.48415  -0.46762
 Alpha  occ. eigenvalues --   -0.46608  -0.45125  -0.44340  -0.43619  -0.42901
 Alpha  occ. eigenvalues --   -0.42475  -0.41429  -0.40547  -0.40095  -0.39205
 Alpha  occ. eigenvalues --   -0.38396  -0.37813  -0.37522  -0.36157  -0.35841
 Alpha  occ. eigenvalues --   -0.35012  -0.34735  -0.34560  -0.34118  -0.33867
 Alpha  occ. eigenvalues --   -0.32946  -0.31618  -0.31020  -0.30166  -0.29268
 Alpha  occ. eigenvalues --   -0.28729  -0.28445  -0.27801  -0.26974  -0.26264
 Alpha  occ. eigenvalues --   -0.26048
 Alpha virt. eigenvalues --   -0.02580  -0.02361  -0.01603  -0.00033   0.00283
 Alpha virt. eigenvalues --    0.00788   0.01987   0.02292   0.03133   0.03479
 Alpha virt. eigenvalues --    0.03725   0.04150   0.04717   0.05298   0.05789

 Mulliken atomic charges:
              1
     1  O   -0.536206
     2  C   -0.080443
     3  C    0.259354
     4  O   -0.547541
     5  H    0.338673
     6  C   -0.078758
     7  O   -0.601328
     8  H    0.436593
     9  C   -0.311969
    10  O   -0.520156
    11  H    0.338402
    12  C    0.215694
    13  O   -0.227644
    14  C    0.247783
    15  O   -0.186701
    16  C    0.201586
    17  C    0.024649
    18  O   -0.527762
    19  H    0.357967
    20  C    0.156639
    21  O   -0.538391
    22  H    0.327104
    23  C   -0.356063
    24  O   -0.569706
    25  H    0.370587
    26  C    0.035879
    27  O   -0.251658
    28  C    0.072474
    29  O   -0.512841
    30  H    0.330538
    31  H    0.343017
    32  H    0.147137
    33  H    0.139010
    34  H    0.106100
    35  H    0.111433
    36  H    0.111441
    37  H    0.128380
    38  H    0.142907
    39  H    0.160432
    40  H    0.119740
    41  H    0.103885
    42  H    0.111345
    43  H    0.134815
    44  H    0.146556
    45  H    0.127048
 Sum of Mulliken atomic charges =   0.00000

 Dipole moment (field-independent basis, Debye):
    X=              4.1288    Y=             -0.0204    Z=             -2.2329  Tot=              4.6940
 Quadrupole moment (field-independent basis, Debye-Ang):
   XX=           -118.7319   YY=           -134.8638   ZZ=           -139.8346
   XY=             14.5904   XZ=             -0.4588   YZ=             -1.7190

  Exact polarizability: 233.654  -0.930 198.524   0.755   0.646 144.211
 Approx polarizability: 274.295  -0.490 258.491   0.932   0.630 241.412

 ******    6 imaginary frequencies (negative Signs) ******

                     1                      2                      3
                     A                      A                      A
 Frequencies --  -313.2493              -304.4072              -249.1641
 Red. masses --     1.6781                 1.6747                 1.1931
 Frc consts  --     0.0970                 0.0914                 0.0436
 IR Inten    --     3.0751                 5.4205                95.4905
 Raman Activ --     0.0079                 0.0835                 0.7776

                     4                      5                      6
                     A                      A                      A
 Frequencies --  -197.4008               -77.5079               -46.5475
 Red. masses --     1.2288                 6.5368                 6.2860
 Frc consts  --     0.0282                 0.0231                 0.0080
 IR Inten    --    98.9239                 0.9672                 1.1615
 Raman Activ --     0.8475                 0.0244                 0.0351

                     7                      8                      9
                     A                      A                      A
 Frequencies --    11.6205                33.4544                48.8624
 Red. masses --     6.3492                 6.9199                 6.7079
 Frc consts  --     0.0005                 0.0046                 0.0094
 IR Inten    --     0.5689                 0.7329                 0.4315
 Raman Activ --     0.0396                 0.0841                 0.0344

                    10                     11                     12
                     A                      A                      A
 Frequencies --    76.2737                88.0348               127.8708
 Red. masses --     5.4212                 6.4793                 5.7271
 Frc consts  --     0.0186                 0.0296                 0.0552
 IR Inten    --     6.1675                 0.4279                 0.9887
 Raman Activ --     0.1075                 0.3255                 0.1000

                    13                     14                     15
                     A                      A                      A
 Frequencies --   155.2774               166.3827               180.1493
 Red. masses --     6.1566                 5.7363                 7.6590
 Frc consts  --     0.0875                 0.0936                 0.1464
 IR Inten    --     2.9464                 4.8481                 0.3792
 Raman Activ --     0.3316                 0.3185                 0.5628

                    16                     17                     18
                     A                      A                      A
 Frequencies --   216.8268               227.3879               255.2601
 Red. masses --     6.8427                 5.5090                 4.6815
 Frc consts  --     0.1895                 0.1678                 0.1797
 IR Inten    --     0.5545                 4.5032                14.7392
 Raman Activ --     2.7677                 0.3282                 0.7362

                    19                     20                     21
                     A                      A                      A
 Frequencies --   262.6877               279.8246               296.5770
 Red. masses --     4.4818                 4.8840                 5.3566
 Frc consts  --     0.1822                 0.2253                 0.2776
 IR Inten    --     1.1969                 0.6666                 3.0204
 Raman Activ --     0.0231                 0.4771                 0.4789

                    22                     23                     24
                     A                      A                      A
 Frequencies --   299.8978               314.3708               315.5721
 Red. masses --     6.1911                 6.6357                 5.1627
 Frc consts  --     0.3281                 0.3864                 0.3029
 IR Inten    --     2.2678                 1.4836                 3.1242
 Raman Activ --     4.2970                 4.1937                 0.9006

                    25                     26                     27
                     A                      A                      A
 Frequencies --   344.6619               361.1218               377.0840
 Red. masses --     5.5484                 5.2012                 6.2258
 Frc consts  --     0.3883                 0.3996                 0.5216
 IR Inten    --    14.8725                 0.5607                 1.7200
 Raman Activ --     1.2314                 2.0509                 0.8693

                    28                     29                     30
                     A                      A                      A
 Frequencies --   402.1895               416.2088               421.8040
 Red. masses --     4.3303                 5.3119                 5.4169
 Frc consts  --     0.4127                 0.5422                 0.5678
 IR Inten    --    19.9593                 1.6875                 1.3572
 Raman Activ --     2.0579                 5.2350                 1.1893

                    31                     32                     33
                     A                      A                      A
 Frequencies --   437.7800               466.5857               482.3791
 Red. masses --     4.6759                 4.8135                 4.7489
 Frc consts  --     0.5280                 0.6174                 0.6511
 IR Inten    --     3.6659                 3.6364                 8.9541
 Raman Activ --     1.9665                 5.2300                 1.4191

                    34                     35                     36
                     A                      A                      A
 Frequencies --   507.3246               521.5602               563.4659
 Red. masses --     3.3634                 3.1203                 4.1737
 Frc consts  --     0.5100                 0.5001                 0.7807
 IR Inten    --    24.6049                 7.5969                20.4531
 Raman Activ --     2.1189                 3.4340                 1.3573

                    37                     38                     39
                     A                      A                      A
 Frequencies --   592.0308               601.5300               624.3961
 Red. masses --     3.5709                 5.3516                 5.4492
 Frc consts  --     0.7374                 1.1409                 1.2517
 IR Inten    --    16.2122                16.8305                37.0820
 Raman Activ --     0.3233                 0.8923                 1.1617

                    40                     41                     42
                     A                      A                      A
 Frequencies --   635.8541               690.2268               697.0604
 Red. masses --     3.9505                 1.5704                 2.1482
 Frc consts  --     0.9411                 0.4408                 0.6150
 IR Inten    --     8.4033                74.9699                33.2051
 Raman Activ --     0.0995                 0.8193                 2.3309

                    43                     44                     45
                     A                      A                      A
 Frequencies --   726.2282               753.4599               753.8760
 Red. masses --     1.0605                 1.0806                 1.1056
 Frc consts  --     0.3296                 0.3614                 0.3702
 IR Inten    --   103.8358               136.7841                89.7882
 Raman Activ --     2.4089                 1.9499                 4.3722

                    46                     47                     48
                     A                      A                      A
 Frequencies --   760.9160               835.6808               847.5213
 Red. masses --     1.0960                 1.8093                 1.5611
 Frc consts  --     0.3739                 0.7444                 0.6607
 IR Inten    --   140.8395                 4.6025                10.7683
 Raman Activ --     1.8402                 0.4950                 0.1773

                    49                     50                     51
                     A                      A                      A
 Frequencies --   907.2653               910.3162               930.5239
 Red. masses --     5.4360                 1.2842                 4.2730
 Frc consts  --     2.6363                 0.6270                 2.1799
 IR Inten    --   220.9029                58.7755                14.4901
 Raman Activ --     4.4371                 0.5575                 0.2559

                    52                     53                     54
                     A                      A                      A
 Frequencies --   975.7842               981.4951               988.4326
 Red. masses --     6.5178                 5.0510                 4.7080
 Frc consts  --     3.6564                 2.8669                 2.7101
 IR Inten    --   126.6564                71.3710               169.4626
 Raman Activ --     1.7850                 5.0341                 2.7410

                    55                     56                     57
                     A                      A                      A
 Frequencies --   998.8112              1006.8470              1015.0528
 Red. masses --     7.4516                 5.9106                 5.4273
 Frc consts  --     4.3799                 3.5303                 3.2946
 IR Inten    --   150.2323                21.9061                97.7174
 Raman Activ --     2.7675                 1.2425                 2.5576

                    58                     59                     60
                     A                      A                      A
 Frequencies --  1031.7685              1050.2856              1065.9896
 Red. masses --     5.6653                 4.0649                 3.9936
 Frc consts  --     3.5534                 2.6419                 2.6738
 IR Inten    --   421.6958                87.4027                16.7061
 Raman Activ --     3.0249                 3.5470                 7.5532

                    61                     62                     63
                     A                      A                      A
 Frequencies --  1068.1650              1078.1157              1080.5762
 Red. masses --     4.7683                 2.5522                 4.2430
 Frc consts  --     3.2055                 1.7478                 2.9190
 IR Inten    --   122.1524                90.8414                25.8728
 Raman Activ --     2.4665                 7.7387                 7.8707

                    64                     65                     66
                     A                      A                      A
 Frequencies --  1085.5184              1102.5214              1108.7987
 Red. masses --     3.8207                 3.5003                 3.2295
 Frc consts  --     2.6526                 2.5069                 2.3393
 IR Inten    --    27.1250                48.9233                28.5910
 Raman Activ --    10.4680                11.6205                 2.2089

                    67                     68                     69
                     A                      A                      A
 Frequencies --  1124.9536              1126.2903              1134.0655
 Red. masses --     2.2869                 2.1638                 2.5826
 Frc consts  --     1.7051                 1.6172                 1.9569
 IR Inten    --    41.9951                17.2422                17.4544
 Raman Activ --     2.1743                 2.1961                 4.4662

                    70                     71                     72
                     A                      A                      A
 Frequencies --  1142.2650              1149.4408              1168.1778
 Red. masses --     1.8892                 2.7140                 2.1775
 Frc consts  --     1.4523                 2.1127                 1.7507
 IR Inten    --    12.6708                39.7581                 2.6127
 Raman Activ --     7.7288                 4.5188                 2.6800

                    73                     74                     75
                     A                      A                      A
 Frequencies --  1169.3609              1176.5997              1188.7983
 Red. masses --     1.6965                 2.2076                 1.7549
 Frc consts  --     1.3668                 1.8006                 1.4612
 IR Inten    --     4.8244                11.6354                10.2988
 Raman Activ --     3.6885                 3.1228                 2.0932

                    76                     77                     78
                     A                      A                      A
 Frequencies --  1201.2232              1214.2397              1218.7114
 Red. masses --     1.4943                 1.3257                 1.3263
 Frc consts  --     1.2704                 1.1516                 1.1606
 IR Inten    --     9.2038                28.7742                 9.1449
 Raman Activ --     1.2586                 4.7580                 2.0021

                    79                     80                     81
                     A                      A                      A
 Frequencies --  1223.1039              1241.5837              1249.5865
 Red. masses --     1.2574                 1.3109                 1.3592
 Frc consts  --     1.1082                 1.1906                 1.2505
 IR Inten    --     1.8987                10.0003                18.7888
 Raman Activ --     0.8038                 1.9527                 1.2914

                    82                     83                     84
                     A                      A                      A
 Frequencies --  1277.3625              1281.0726              1294.1959
 Red. masses --     1.4313                 1.2382                 1.2922
 Frc consts  --     1.3760                 1.1973                 1.2752
 IR Inten    --    41.4159                 3.0622                17.5759
 Raman Activ --     3.3852                 2.4170                 4.4275

                    85                     86                     87
                     A                      A                      A
 Frequencies --  1298.2292              1308.2375              1311.8930
 Red. masses --     1.2941                 1.2638                 1.3021
 Frc consts  --     1.2851                 1.2744                 1.3203
 IR Inten    --     6.1446                 7.8861                22.5541
 Raman Activ --     1.7978                 0.6714                 2.2575

                    88                     89                     90
                     A                      A                      A
 Frequencies --  1319.5072              1321.6610              1331.0375
 Red. masses --     1.2914                 1.3323                 1.2150
 Frc consts  --     1.3248                 1.3712                 1.2683
 IR Inten    --     0.7436                34.6740                 8.9810
 Raman Activ --     8.9999                 2.3747                11.4517

                    91                     92                     93
                     A                      A                      A
 Frequencies --  1355.3039              1358.6276              1361.5510
 Red. masses --     1.1968                 1.4387                 1.1408
 Frc consts  --     1.2952                 1.5647                 1.2461
 IR Inten    --    20.5255                 3.9732                27.6476
 Raman Activ --     3.8699                 5.1399                 2.0626

                    94                     95                     96
                     A                      A                      A
 Frequencies --  1363.0360              1371.7577              1375.3615
 Red. masses --     1.2456                 1.3953                 1.1639
 Frc consts  --     1.3635                 1.5470                 1.2972
 IR Inten    --    43.1447                11.4693                14.8814
 Raman Activ --     3.7062                 8.4954                 3.9090

                    97                     98                     99
                     A                      A                      A
 Frequencies --  1382.5176              1396.1924              1397.5583
 Red. masses --     1.5461                 1.3339                 1.3752
 Frc consts  --     1.7412                 1.5320                 1.5826
 IR Inten    --    23.6031                 7.6249                 1.7807
 Raman Activ --     4.9182                 1.4599                 7.7070

                   100                    101                    102
                     A                      A                      A
 Frequencies --  1413.8040              1465.4754              1467.5628
 Red. masses --     1.5201                 1.2642                 1.1179
 Frc consts  --     1.7902                 1.5997                 1.4185
 IR Inten    --    32.3838                43.7160                 6.9453
 Raman Activ --     1.3308                 1.3974                 6.2250

                   103                    104                    105
                     A                      A                      A
 Frequencies --  1474.1039              1476.4621              1478.0259
 Red. masses --     1.1933                 1.2440                 1.3505
 Frc consts  --     1.5278                 1.5978                 1.7383
 IR Inten    --    21.4654                 4.3930                26.7759
 Raman Activ --     2.7111                 1.4491                 1.2169

                   106                    107                    108
                     A                      A                      A
 Frequencies --  1510.5339              1535.1383              3209.7389
 Red. masses --     1.3073                 1.2164                 1.0683
 Frc consts  --     1.7574                 1.6890                 6.4846
 IR Inten    --    36.5738                35.7705              1184.3106
 Raman Activ --     1.3320                 1.0270               156.6207

                   109                    110                    111
                     A                      A                      A
 Frequencies --  3252.6208              3254.9626              3257.5753
 Red. masses --     1.0727                 1.0648                 1.0723
 Frc consts  --     6.6867                 6.6468                 6.7042
 IR Inten    --    13.2505                29.3484                32.7217
 Raman Activ --    15.2993               210.1346                26.0954

                   112                    113                    114
                     A                      A                      A
 Frequencies --  3259.4007              3265.1604              3268.6669
 Red. masses --     1.0684                 1.0815                 1.0819
 Frc consts  --     6.6877                 6.7935                 6.8102
 IR Inten    --     6.6022                 5.8824                 7.6942
 Raman Activ --   163.3195                61.9448                64.9316

                   115                    116                    117
                     A                      A                      A
 Frequencies --  3278.4503              3283.6009              3288.1831
 Red. masses --     1.0846                 1.0870                 1.0860
 Frc consts  --     6.8683                 6.9054                 6.9185
 IR Inten    --     5.6199                43.8578                23.2275
 Raman Activ --    44.2553                26.2230                17.3277

                   118                    119                    120
                     A                      A                      A
 Frequencies --  3299.4347              3301.0852              3307.3522
 Red. masses --     1.0871                 1.0875                 1.1036
 Frc consts  --     6.9728                 6.9824                 7.1126
 IR Inten    --     8.9613                25.8685                35.1366
 Raman Activ --    89.3587                53.9982                28.7467

                   121                    122                    123
                     A                      A                      A
 Frequencies --  3307.6331              3310.1594              3346.8163
 Red. masses --     1.0990                 1.0903                 1.0654
 Frc consts  --     7.0844                 7.0387                 7.0315
 IR Inten    --    33.9672                96.8880               237.2201
 Raman Activ --    29.4488                19.6835               121.5022

                   124                    125                    126
                     A                      A                      A
 Frequencies --  3360.8429              3366.0850              3371.4871
 Red. masses --     1.0664                 1.0666                 1.0651
 Frc consts  --     7.0966                 7.1204                 7.1329
 IR Inten    --    23.4205                80.3441                28.2348
 Raman Activ --   166.1374               132.2701                79.9455

                   127                    128                    129
                     A                      A                      A
 Frequencies --  3373.2609              3888.4015              3893.2100
 Red. masses --     1.0681                 1.0677                 1.0674
 Frc consts  --     7.1608                 9.5114                 9.5324
 IR Inten    --    48.4162                79.6087                70.1745
 Raman Activ --   156.9949                80.9148               130.0661

 - Thermochemistry -
 -------------------
 Temperature   298.150 Kelvin.  Pressure   1.00000 Atm.
 Atom     1 has atomic number  8 and mass  15.99491

 Molecular mass:   342.11621 amu.
 Principal axes and moments of inertia in atomic units:
                           1         2         3
     Eigenvalues --  4457.79676********************
           X            0.99997   0.00724  -0.00046
           Y           -0.00724   0.99997   0.00155
           Z            0.00047  -0.00155   1.00000
 This molecule is an asymmetric top.
 Rotational symmetry number  1.
 Warning -- assumption of classical behavior for rotation
           may cause significant error
 Rotational temperatures (Kelvin)      0.01943     0.00704     0.00531
 Rotational constants (GHZ):           0.40485     0.14679     0.11057
    6 imaginary frequencies ignored.
 Zero-point vibrational energy     974730.9 (Joules/Mol)
                                  232.96628 (Kcal/Mol)
 Warning -- explicit consideration of  32 degrees of freedom as
           vibrations may cause significant error
 Vibrational temperatures:     16.72    48.13    70.30   109.74   126.66
          (Kelvin)            183.98   223.41   239.39   259.19   311.96
                              327.16   367.26   377.95   402.60   426.71
                              431.49   452.31   454.04   495.89   519.57
                              542.54   578.66   598.83   606.88   629.87
                              671.31   694.04   729.93   750.41   810.70
                              851.80   865.47   898.37   914.85   993.08
                             1002.91  1044.88  1084.06  1084.66  1094.79
                             1202.36  1219.39  1305.35  1309.74  1338.81
                             1403.93  1412.15  1422.13  1437.06  1448.63
                             1460.43  1484.48  1511.12  1533.72  1536.85
                             1551.17  1554.71  1561.82  1586.28  1595.31
                             1618.56  1620.48  1631.67  1643.46  1653.79
                             1680.75  1682.45  1692.86  1710.41  1728.29
                             1747.02  1753.45  1759.77  1786.36  1797.87
                             1837.84  1843.18  1862.06  1867.86  1882.26
                             1887.52  1898.47  1901.57  1915.06  1949.98
                             1954.76  1958.97  1961.10  1973.65  1978.84
                             1989.13  2008.81  2010.77  2034.15  2108.49
                             2111.49  2120.90  2124.30  2126.55  2173.32
                             2208.72  4618.09  4679.79  4683.16  4686.92
                             4689.54  4697.83  4702.88  4716.95  4724.36
                             4730.96  4747.14  4749.52  4758.54  4758.94
                             4762.58  4815.32  4835.50  4843.04  4850.81
                             4853.36  5594.54  5601.45

 Zero-point correction=                           0.371255 (Hartree/Particle)
 Thermal correction to Energy=                    0.390656
 Thermal correction to Enthalpy=                  0.391600
 Thermal correction to Gibbs Free Energy=         0.322357
 Sum of electronic and zero-point Energies=          -1297.598448
 Sum of electronic and thermal Energies=             -1297.579048
 Sum of electronic and thermal Enthalpies=           -1297.578103
 Sum of electronic and thermal Free Energies=        -1297.647346

                     E (Thermal)             CV                S
                      KCal/Mol        Cal/Mol-Kelvin    Cal/Mol-Kelvin
 Total                  245.140             77.974            145.734
 Electronic               0.000              0.000              0.000
 Translational            0.889              2.981             43.384
 Rotational               0.889              2.981             35.146
 Vibrational            243.363             72.012             67.203
 Vibration     1          0.593              1.987              7.713
 Vibration     2          0.594              1.983              5.613
 Vibration     3          0.595              1.978              4.863
 Vibration     4          0.599              1.965              3.985
 Vibration     5          0.601              1.958              3.703
 Vibration     6          0.611              1.925              2.978
 Vibration     7          0.620              1.897              2.607
 Vibration     8          0.624              1.884              2.476
 Vibration     9          0.629              1.867              2.327
 Vibration    10          0.646              1.815              1.985
 Vibration    11          0.651              1.799              1.899
 Vibration    12          0.666              1.754              1.694
 Vibration    13          0.670              1.741              1.644
 Vibration    14          0.680              1.711              1.535
 Vibration    15          0.690              1.680              1.436
 Vibration    16          0.692              1.674              1.417
 Vibration    17          0.702              1.646              1.339
 Vibration    18          0.703              1.644              1.333
 Vibration    19          0.723              1.586              1.190
 Vibration    20          0.735              1.552              1.117
 Vibration    21          0.748              1.519              1.051
 Vibration    22          0.768              1.465              0.955
 Vibration    23          0.779              1.435              0.905
 Vibration    24          0.784              1.423              0.886
 Vibration    25          0.798              1.388              0.834
 Vibration    26          0.824              1.324              0.747
 Vibration    27          0.839              1.289              0.704
 Vibration    28          0.863              1.234              0.640
 Vibration    29          0.877              1.202              0.606
 Vibration    30          0.919              1.110              0.517
 Vibration    31          0.950              1.049              0.464
 Vibration    32          0.960              1.029              0.447

 Normal termination of Gaussian 09 at Mon Mar 21 23:20:55 2016.
