 Gaussian 09, Revision B.01,
 Gaussian 09:  EM64L-G09RevB.01 12-Aug-2010

 -------------------------------------------------
 # freq=raman b3lyp/6-31+g(2d,p) geom=connectivity
 -------------------------------------------------

 -----------------
 350 7524/7524.com
 -----------------
 Symbolic Z-matrix:
 Charge =  0 Multiplicity = 1

                         Standard orientation:
 ---------------------------------------------------------------------
 Center     Atomic      Atomic             Coordinates (Angstroms)
 Number     Number       Type             X           Y           Z
 ---------------------------------------------------------------------
      1          8           0       -4.993737   -0.240022    0.600952
      2          6           0       -3.761561   -0.089043   -0.117918
      3          6           0       -3.302097    1.277785    0.362846
      4          8           0       -4.127296    2.234874   -0.316331
      5          1           0       -5.087797    2.077379   -0.084093
      6          6           0       -1.854106    1.548578   -0.011933
      7          8           0       -1.117104    2.703614    0.417826
      8          1           0       -0.261110    2.678076   -0.096657
      9          6           0       -3.115659   -2.437360   -0.349137
     10          8           0       -4.261712   -3.212588    0.032270
     11          1           0       -4.030959   -4.138201   -0.267558
     12          6           0       -2.702031   -1.109745    0.264712
     13          8           0       -1.378468   -0.775328   -0.176569
     14          6           0       -0.882729    0.449167    0.384185
     15          8           0        0.196163    0.642246   -0.542343
     16          6           0        1.459045    0.221520   -0.006580
     17          6           0        1.966448   -1.166856   -0.359780
     18          8           0        0.957455   -2.173706   -0.190446
     19          1           0        0.050026   -2.022788   -0.583410
     20          6           0        3.262470   -1.522017    0.350353
     21          8           0        3.668642   -2.794588   -0.175519
     22          1           0        4.575712   -2.966115    0.208717
     23          6           0        2.447903    2.568651    0.099945
     24          8           0        1.467316    3.397046   -0.540623
     25          1           0        1.619884    4.377440   -0.412740
     26          6           0        2.616066    1.135412   -0.375902
     27          8           0        3.847642    0.784785    0.272675
     28          6           0        4.320357   -0.521781   -0.085619
     29          8           0        5.528763   -0.721311    0.662466
     30          1           0        6.250713   -0.912344    0.059229
     31          1           0        3.395653    3.054655   -0.002372
     32          1           0        2.209110    2.535354    1.142427
     33          1           0        2.755261    1.125057   -1.436759
     34          1           0        1.363475    0.253935    1.058650
     35          1           0        2.194732   -1.144730   -1.404911
     36          1           0        3.145128   -1.545978    1.413629
     37          1           0        4.503535   -0.588530   -1.137708
     38          1           0       -5.710569   -0.387940   -0.020234
     39          1           0       -2.272863   -3.086774   -0.235750
     40          1           0       -3.223270   -2.253417   -1.397700
     41          1           0       -2.692631   -1.211501    1.329821
     42          1           0       -3.930966   -0.085398   -1.174417
     43          1           0       -3.433122    1.361561    1.421484
     44          1           0       -1.844602    1.582438   -1.081355
     45          1           0       -0.601304    0.411788    1.415835
 ---------------------------------------------------------------------

 SCF Done:  E(RB3LYP) =  -1297.96040125     A.U. after   13 cycles

 The electronic state is 1-A.
 Alpha  occ. eigenvalues --  -19.18595 -19.18218 -19.17876 -19.17788 -19.17248
 Alpha  occ. eigenvalues --  -19.17085 -19.16619 -19.16054 -19.15031 -19.13308
 Alpha  occ. eigenvalues --  -19.13248 -10.30722 -10.30252 -10.25759 -10.25258
 Alpha  occ. eigenvalues --  -10.25054 -10.24940 -10.24879 -10.24367 -10.24279
 Alpha  occ. eigenvalues --  -10.24140 -10.23992 -10.23530  -1.10416  -1.09264
 Alpha  occ. eigenvalues --   -1.05591  -1.04317  -1.03594  -1.03294  -1.03059
 Alpha  occ. eigenvalues --   -1.02847  -1.01712  -1.00311  -0.99673  -0.82102
 Alpha  occ. eigenvalues --   -0.80243  -0.79409  -0.77960  -0.71291  -0.69601
 Alpha  occ. eigenvalues --   -0.67221  -0.65085  -0.62872  -0.62498  -0.61678
 Alpha  occ. eigenvalues --   -0.60131  -0.56625  -0.55670  -0.55054  -0.54364
 Alpha  occ. eigenvalues --   -0.54255  -0.53171  -0.52534  -0.51640  -0.50874
 Alpha  occ. eigenvalues --   -0.50364  -0.50149  -0.49165  -0.48283  -0.46356
 Alpha  occ. eigenvalues --   -0.45561  -0.44597  -0.44527  -0.43754  -0.43575
 Alpha  occ. eigenvalues --   -0.42258  -0.41704  -0.41020  -0.40426  -0.39104
 Alpha  occ. eigenvalues --   -0.38928  -0.38349  -0.36566  -0.36110  -0.35889
 Alpha  occ. eigenvalues --   -0.35766  -0.35301  -0.34422  -0.33470  -0.33215
 Alpha  occ. eigenvalues --   -0.32491  -0.30831  -0.30428  -0.30168  -0.29864
 Alpha  occ. eigenvalues --   -0.29273  -0.28793  -0.28014  -0.27104  -0.26176
 Alpha  occ. eigenvalues --   -0.25885
 Alpha virt. eigenvalues --   -0.02032  -0.01956  -0.01185  -0.00435   0.00337
 Alpha virt. eigenvalues --    0.01033   0.01728   0.02244   0.03076   0.03409
 Alpha virt. eigenvalues --    0.03764   0.04142   0.04804   0.05514   0.05762

 Mulliken atomic charges:
              1
     1  O   -0.542388
     2  C   -0.073831
     3  C    0.314001
     4  O   -0.563351
     5  H    0.337141
     6  C   -0.179014
     7  O   -0.572466
     8  H    0.416914
     9  C   -0.312103
    10  O   -0.523050
    11  H    0.335051
    12  C    0.267251
    13  O   -0.218692
    14  C    0.321661
    15  O   -0.249229
    16  C    0.221450
    17  C   -0.036268
    18  O   -0.555862
    19  H    0.362988
    20  C    0.167698
    21  O   -0.528921
    22  H    0.333727
    23  C   -0.262255
    24  O   -0.576240
    25  H    0.354758
    26  C   -0.053001
    27  O   -0.232680
    28  C    0.104585
    29  O   -0.551142
    30  H    0.336953
    31  H    0.143857
    32  H    0.152597
    33  H    0.124093
    34  H    0.094069
    35  H    0.108044
    36  H    0.132094
    37  H    0.136876
    38  H    0.338333
    39  H    0.131077
    40  H    0.134586
    41  H    0.117265
    42  H    0.131079
    43  H    0.130091
    44  H    0.137892
    45  H    0.144362
 Sum of Mulliken atomic charges =   0.00000

 Dipole moment (field-independent basis, Debye):
    X=              2.0832    Y=             -0.5687    Z=             -1.8180  Tot=              2.8228
 Quadrupole moment (field-independent basis, Debye-Ang):
   XX=           -113.1709   YY=           -139.7340   ZZ=           -138.6250
   XY=              9.9229   XZ=              0.0646   YZ=              2.9225

  Exact polarizability: 234.348  -0.803 196.122   1.147   1.116 143.498
 Approx polarizability: 276.683   0.081 254.311   1.818   1.656 240.240

 ******    7 imaginary frequencies (negative Signs) ******

                     1                      2                      3
                     A                      A                      A
 Frequencies --  -327.7596              -251.3732              -195.7022
 Red. masses --     1.7146                 1.8403                 1.1911
 Frc consts  --     0.1085                 0.0685                 0.0269
 IR Inten    --     4.3789                 7.0564               105.1808
 Raman Activ --     0.0552                 0.0541                 0.8115

                     4                      5                      6
                     A                      A                      A
 Frequencies --  -169.8953               -80.5847               -44.1067
 Red. masses --     1.2327                 7.1443                 5.9064
 Frc consts  --     0.0210                 0.0273                 0.0068
 IR Inten    --   106.2477                 1.8260                 1.8246
 Raman Activ --     0.6207                 0.0388                 0.0669

                     7                      8                      9
                     A                      A                      A
 Frequencies --    -9.9566                36.6763                51.4561
 Red. masses --     6.5764                 6.6510                 6.5232
 Frc consts  --     0.0004                 0.0053                 0.0102
 IR Inten    --     0.2473                 2.5749                 0.2683
 Raman Activ --     0.0251                 0.0125                 0.0317

                    10                     11                     12
                     A                      A                      A
 Frequencies --    74.3985                93.8012               135.8052
 Red. masses --     6.7499                 6.5872                 6.2588
 Frc consts  --     0.0220                 0.0341                 0.0680
 IR Inten    --     3.4232                 0.2645                 4.6816
 Raman Activ --     0.2294                 0.1133                 0.1088

                    13                     14                     15
                     A                      A                      A
 Frequencies --   143.0814               168.7791               183.8762
 Red. masses --     6.0679                 7.3737                 5.8836
 Frc consts  --     0.0732                 0.1238                 0.1172
 IR Inten    --     3.8587                 0.3764                 3.6912
 Raman Activ --     0.1507                 0.1625                 0.5252

                    16                     17                     18
                     A                      A                      A
 Frequencies --   202.5050               229.0618               272.1432
 Red. masses --     6.3420                 6.5824                 4.8980
 Frc consts  --     0.1532                 0.2035                 0.2137
 IR Inten    --     0.5956                 2.5635                14.0199
 Raman Activ --     1.3452                 2.3720                 0.2614

                    19                     20                     21
                     A                      A                      A
 Frequencies --   275.6695               295.7294               303.7820
 Red. masses --     5.3627                 4.6377                 5.1576
 Frc consts  --     0.2401                 0.2390                 0.2804
 IR Inten    --     3.4010                 1.0151                 4.4598
 Raman Activ --     0.2151                 0.3360                 0.5144

                    22                     23                     24
                     A                      A                      A
 Frequencies --   311.4268               320.1901               326.2166
 Red. masses --     6.5626                 5.3848                 4.2639
 Frc consts  --     0.3750                 0.3253                 0.2673
 IR Inten    --     4.6552                 2.5402                 5.3373
 Raman Activ --     4.0652                 0.7068                 1.5006

                    25                     26                     27
                     A                      A                      A
 Frequencies --   341.6525               365.5992               395.3154
 Red. masses --     6.7887                 4.3490                 5.6089
 Frc consts  --     0.4669                 0.3425                 0.5164
 IR Inten    --     8.5253                 4.3674                 3.4739
 Raman Activ --     3.3126                 0.6874                 1.2888

                    28                     29                     30
                     A                      A                      A
 Frequencies --   415.2399               428.4945               438.2786
 Red. masses --     5.8459                 6.8953                 4.8437
 Frc consts  --     0.5939                 0.7459                 0.5482
 IR Inten    --     8.1537                 7.9314                 2.8370
 Raman Activ --     1.2744                 8.4944                 1.9999

                    31                     32                     33
                     A                      A                      A
 Frequencies --   446.7277               491.3159               498.2594
 Red. masses --     4.1749                 3.5837                 4.1321
 Frc consts  --     0.4909                 0.5097                 0.6044
 IR Inten    --     5.8461                22.6784                15.7517
 Raman Activ --     4.1176                 0.7791                 0.9203

                    34                     35                     36
                     A                      A                      A
 Frequencies --   513.8730               540.9424               586.5558
 Red. masses --     4.3776                 3.0391                 3.8830
 Frc consts  --     0.6811                 0.5240                 0.7871
 IR Inten    --     1.9396                 4.1243                 8.5444
 Raman Activ --     2.6432                 4.8866                 0.8656

                    37                     38                     39
                     A                      A                      A
 Frequencies --   594.6664               618.1625               624.4857
 Red. masses --     3.1513                 1.9942                 1.8651
 Frc consts  --     0.6566                 0.4490                 0.4285
 IR Inten    --    23.7721                80.0708               167.6249
 Raman Activ --     0.8041                 1.8017                 2.2864

                    40                     41                     42
                     A                      A                      A
 Frequencies --   634.5299               656.6690               678.7738
 Red. masses --     4.6263                 3.4508                 1.0950
 Frc consts  --     1.0975                 0.8767                 0.2972
 IR Inten    --     5.3107                23.8974               130.8616
 Raman Activ --     1.4201                 0.6337                 1.8492

                    43                     44                     45
                     A                      A                      A
 Frequencies --   698.1674               709.9929               760.9541
 Red. masses --     5.2648                 1.0760                 1.0604
 Frc consts  --     1.5120                 0.3196                 0.3618
 IR Inten    --    13.6679                98.0356                96.7169
 Raman Activ --     2.8654                 1.5816                 1.7646

                    46                     47                     48
                     A                      A                      A
 Frequencies --   771.4514               844.8765               857.9807
 Red. masses --     1.0843                 1.7703                 1.4840
 Frc consts  --     0.3802                 0.7445                 0.6436
 IR Inten    --    96.6005                10.4680                23.6105
 Raman Activ --     1.8126                 0.6318                 0.1312

                    49                     50                     51
                     A                      A                      A
 Frequencies --   878.1426               928.6187               945.0852
 Red. masses --     1.4096                 3.6209                 5.2937
 Frc consts  --     0.6404                 1.8397                 2.7858
 IR Inten    --    53.0513               114.0177                98.9960
 Raman Activ --     0.8202                 3.4489                 0.7087

                    52                     53                     54
                     A                      A                      A
 Frequencies --   968.9422               979.3545               992.9126
 Red. masses --     4.9648                 4.3366                 5.3674
 Frc consts  --     2.7463                 2.4506                 3.1177
 IR Inten    --    17.1097                49.8854               310.3488
 Raman Activ --     2.8429                 2.7960                 2.4529

                    55                     56                     57
                     A                      A                      A
 Frequencies --   998.7281              1013.1187              1018.0096
 Red. masses --     7.2616                 5.4414                 5.3771
 Frc consts  --     4.2675                 3.2906                 3.2832
 IR Inten    --    78.5215                47.6181               130.5052
 Raman Activ --     1.3649                 2.4800                 4.8812

                    58                     59                     60
                     A                      A                      A
 Frequencies --  1033.9022              1051.9352              1058.3875
 Red. masses --     6.4035                 4.7304                 3.2691
 Frc consts  --     4.0330                 3.0841                 2.1576
 IR Inten    --   336.1578                66.4115                39.7476
 Raman Activ --     3.2014                 0.9295                13.0613

                    61                     62                     63
                     A                      A                      A
 Frequencies --  1064.4942              1071.3310              1074.4920
 Red. masses --     3.2946                 4.2087                 3.6175
 Frc consts  --     2.1996                 2.8460                 2.4607
 IR Inten    --     2.9898                46.3161               121.4195
 Raman Activ --     3.0523                 1.2380                21.0398

                    64                     65                     66
                     A                      A                      A
 Frequencies --  1086.2143              1091.8245              1104.1194
 Red. masses --     2.6246                 3.4513                 2.7130
 Frc consts  --     1.8245                 2.4240                 1.9486
 IR Inten    --    78.1111                57.5663                 9.3396
 Raman Activ --     5.1910                 2.7760                10.0635

                    67                     68                     69
                     A                      A                      A
 Frequencies --  1108.0083              1127.6308              1130.0500
 Red. masses --     2.3752                 2.3605                 2.8719
 Frc consts  --     1.7181                 1.7684                 2.1608
 IR Inten    --     6.6445                56.9507                55.4937
 Raman Activ --     7.2698                 7.3927                 7.0804

                    70                     71                     72
                     A                      A                      A
 Frequencies --  1132.1721              1139.4087              1143.3778
 Red. masses --     2.3641                 2.1825                 1.8087
 Frc consts  --     1.7854                 1.6694                 1.3931
 IR Inten    --     1.4017                 2.2018                25.1496
 Raman Activ --     1.9672                 2.3269                 7.9536

                    73                     74                     75
                     A                      A                      A
 Frequencies --  1153.9830              1170.2646              1186.8388
 Red. masses --     1.6195                 1.8837                 2.0328
 Frc consts  --     1.2707                 1.5200                 1.6871
 IR Inten    --     6.7131                24.8510                19.5337
 Raman Activ --     1.8433                 2.7781                 1.7871

                    76                     77                     78
                     A                      A                      A
 Frequencies --  1199.8009              1204.6222              1209.2168
 Red. masses --     1.2656                 1.4056                 1.3364
 Frc consts  --     1.0734                 1.2018                 1.1513
 IR Inten    --    28.7584                 4.5072                20.4795
 Raman Activ --     1.8284                 1.7476                 1.2831

                    79                     80                     81
                     A                      A                      A
 Frequencies --  1212.4893              1233.0407              1246.3379
 Red. masses --     1.2740                 1.2567                 1.3625
 Frc consts  --     1.1035                 1.1257                 1.2470
 IR Inten    --    12.0593                10.1023                13.8668
 Raman Activ --     0.6956                 2.6923                 2.8564

                    82                     83                     84
                     A                      A                      A
 Frequencies --  1256.1411              1279.4110              1283.0850
 Red. masses --     1.2542                 1.2347                 1.3381
 Frc consts  --     1.1659                 1.1908                 1.2979
 IR Inten    --    17.3272                17.5195                54.8936
 Raman Activ --     0.9339                 1.9581                 6.0682

                    85                     86                     87
                     A                      A                      A
 Frequencies --  1298.1750              1299.0118              1301.6620
 Red. masses --     1.3942                 1.4696                 1.2807
 Frc consts  --     1.3844                 1.4611                 1.2785
 IR Inten    --    13.8207                11.0795                42.0954
 Raman Activ --     2.5809                 2.9805                 1.6459

                    88                     89                     90
                     A                      A                      A
 Frequencies --  1308.4456              1316.6041              1323.8280
 Red. masses --     1.4227                 1.2574                 1.2431
 Frc consts  --     1.4351                 1.2842                 1.2836
 IR Inten    --     5.3997                17.2990                13.8967
 Raman Activ --     6.5937                 1.6140                 5.5201

                    91                     92                     93
                     A                      A                      A
 Frequencies --  1330.9770              1348.2102              1355.4821
 Red. masses --     1.3381                 1.3105                 1.3989
 Frc consts  --     1.3967                 1.4035                 1.5143
 IR Inten    --    43.8765                11.3414                 2.1503
 Raman Activ --     7.5791                 2.3890                11.8105

                    94                     95                     96
                     A                      A                      A
 Frequencies --  1364.7444              1367.6224              1369.8702
 Red. masses --     1.4093                 1.1701                 1.2269
 Frc consts  --     1.5466                 1.2895                 1.3565
 IR Inten    --     5.6638                35.4430                42.6413
 Raman Activ --     1.6881                 2.8714                 7.1055

                    97                     98                     99
                     A                      A                      A
 Frequencies --  1375.9056              1394.0671              1403.9021
 Red. masses --     1.4141                 1.3219                 1.3706
 Frc consts  --     1.5773                 1.5136                 1.5916
 IR Inten    --     9.2036                 5.0162                18.8817
 Raman Activ --     5.7545                 5.0999                 0.7233

                   100                    101                    102
                     A                      A                      A
 Frequencies --  1416.4235              1423.1692              1444.6239
 Red. masses --     1.4028                 1.2997                 1.4200
 Frc consts  --     1.6581                 1.5510                 1.7460
 IR Inten    --    34.0657                 8.4983                 7.0391
 Raman Activ --     2.1273                 5.6496                 1.3715

                   103                    104                    105
                     A                      A                      A
 Frequencies --  1454.0158              1471.2136              1474.1263
 Red. masses --     1.4278                 1.4106                 1.0878
 Frc consts  --     1.7785                 1.7989                 1.3928
 IR Inten    --    39.4578                68.3808                 5.5697
 Raman Activ --     1.4682                 3.7199                 5.3405

                   106                    107                    108
                     A                      A                      A
 Frequencies --  1477.6449              1495.2032              3247.4988
 Red. masses --     1.0868                 1.3232                 1.0582
 Frc consts  --     1.3981                 1.7429                 6.5756
 IR Inten    --     8.1971                19.9010                39.8993
 Raman Activ --     3.8201                 0.7712                93.6894

                   109                    110                    111
                     A                      A                      A
 Frequencies --  3258.3497              3261.2539              3269.6743
 Red. masses --     1.0753                 1.0635                 1.0827
 Frc consts  --     6.7264                 6.6644                 6.8196
 IR Inten    --     7.9939                52.1390                 0.9076
 Raman Activ --    10.1376               137.5130                21.1963

                   112                    113                    114
                     A                      A                      A
 Frequencies --  3274.7951              3277.9413              3285.1825
 Red. masses --     1.0844                 1.0834                 1.0857
 Frc consts  --     6.8518                 6.8589                 6.9039
 IR Inten    --    12.6399                13.1060                22.5192
 Raman Activ --    19.7030               178.8111                13.6587

                   115                    116                    117
                     A                      A                      A
 Frequencies --  3290.3015              3291.0043              3294.3019
 Red. masses --     1.0860                 1.0860                 1.0994
 Frc consts  --     6.9273                 6.9302                 7.0297
 IR Inten    --    10.0694                16.6860                19.0824
 Raman Activ --    37.2114               142.0921                28.0742

                   118                    119                    120
                     A                      A                      A
 Frequencies --  3306.1993              3306.5787              3313.8569
 Red. masses --     1.0889                 1.0874                 1.0868
 Frc consts  --     7.0128                 7.0051                 7.0318
 IR Inten    --    68.8103                17.0755                41.2412
 Raman Activ --    12.2976                14.6672                16.3358

                   121                    122                    123
                     A                      A                      A
 Frequencies --  3316.6358              3321.1062              3339.4908
 Red. masses --     1.1035                 1.0702                 1.0678
 Frc consts  --     7.1520                 6.9548                 7.0165
 IR Inten    --    23.1731               395.3747               465.6996
 Raman Activ --    78.7494               177.0285               138.9447

                   124                    125                    126
                     A                      A                      A
 Frequencies --  3359.6400              3367.8234              3368.4013
 Red. masses --     1.0654                 1.0654                 1.0681
 Frc consts  --     7.0853                 7.1194                 7.1401
 IR Inten    --    25.9291                37.7835                61.2320
 Raman Activ --   133.5734               105.6165               185.3557

                   127                    128                    129
                     A                      A                      A
 Frequencies --  3369.9823              3888.0257              3892.5193
 Red. masses --     1.0673                 1.0676                 1.0675
 Frc consts  --     7.1413                 9.5082                 9.5294
 IR Inten    --    48.1791                69.5638                79.9268
 Raman Activ --   123.0882                95.9463               115.9361

 - Thermochemistry -
 -------------------
 Temperature   298.150 Kelvin.  Pressure   1.00000 Atm.
 Atom     1 has atomic number  8 and mass  15.99491

 Molecular mass:   342.11621 amu.
 Principal axes and moments of inertia in atomic units:
                           1         2         3
     Eigenvalues --  4381.57940********************
           X            0.99998   0.00658   0.00027
           Y           -0.00658   0.99997   0.00376
           Z           -0.00025  -0.00376   0.99999
 This molecule is an asymmetric top.
 Rotational symmetry number  1.
 Warning -- assumption of classical behavior for rotation
           may cause significant error
 Rotational temperatures (Kelvin)      0.01977     0.00703     0.00532
 Rotational constants (GHZ):           0.41189     0.14644     0.11092
    7 imaginary frequencies ignored.
 Zero-point vibrational energy     973931.0 (Joules/Mol)
                                  232.77509 (Kcal/Mol)
 Warning -- explicit consideration of  31 degrees of freedom as
           vibrations may cause significant error
 Vibrational temperatures:     52.77    74.03   107.04   134.96   195.39
          (Kelvin)            205.86   242.84   264.56   291.36   329.57
                              391.55   396.63   425.49   437.07   448.07
                              460.68   469.35   491.56   526.02   568.77
                              597.44   616.51   630.58   642.74   706.89
                              716.88   739.35   778.29   843.92   855.59
                              889.40   898.49   912.95   944.80   976.60
                             1004.51  1021.52  1094.84  1109.95  1215.59
                             1234.44  1263.45  1336.07  1359.77  1394.09
                             1409.07  1428.58  1436.95  1457.65  1464.69
                             1487.55  1513.50  1522.78  1531.57  1541.40
                             1545.95  1562.82  1570.89  1588.58  1594.17
                             1622.41  1625.89  1628.94  1639.35  1645.06
                             1660.32  1683.75  1707.59  1726.24  1733.18
                             1739.79  1744.50  1774.07  1793.20  1807.30
                             1840.78  1846.07  1867.78  1868.99  1872.80
                             1882.56  1894.30  1904.69  1914.98  1939.77
                             1950.23  1963.56  1967.70  1970.94  1979.62
                             2005.75  2019.90  2037.91  2047.62  2078.49
                             2092.00  2116.75  2120.94  2126.00  2151.26
                             4672.42  4688.03  4692.21  4704.33  4711.69
                             4716.22  4726.64  4734.00  4735.02  4739.76
                             4756.88  4757.42  4767.90  4771.89  4778.33
                             4804.78  4833.77  4845.54  4846.37  4848.65
                             5593.99  5600.46

 Zero-point correction=                           0.370951 (Hartree/Particle)
 Thermal correction to Energy=                    0.389248
 Thermal correction to Enthalpy=                  0.390192
 Thermal correction to Gibbs Free Energy=         0.325128
 Sum of electronic and zero-point Energies=          -1297.589451
 Sum of electronic and thermal Energies=             -1297.571153
 Sum of electronic and thermal Enthalpies=           -1297.570209
 Sum of electronic and thermal Free Energies=        -1297.635273

                     E (Thermal)             CV                S
                      KCal/Mol        Cal/Mol-Kelvin    Cal/Mol-Kelvin
 Total                  244.257             75.859            136.939
 Electronic               0.000              0.000              0.000
 Translational            0.889              2.981             43.384
 Rotational               0.889              2.981             35.129
 Vibrational            242.479             69.898             58.426
 Vibration     1          0.594              1.982              5.431
 Vibration     2          0.596              1.977              4.761
 Vibration     3          0.599              1.966              4.033
 Vibration     4          0.603              1.954              3.579
 Vibration     5          0.614              1.918              2.862
 Vibration     6          0.616              1.910              2.762
 Vibration     7          0.625              1.881              2.449
 Vibration     8          0.631              1.862              2.289
 Vibration     9          0.639              1.836              2.110
 Vibration    10          0.652              1.797              1.886
 Vibration    11          0.675              1.725              1.583
 Vibration    12          0.677              1.718              1.560
 Vibration    13          0.690              1.682              1.441
 Vibration    14          0.695              1.667              1.396
 Vibration    15          0.700              1.652              1.355
 Vibration    16          0.706              1.635              1.309
 Vibration    17          0.710              1.623              1.279
 Vibration    18          0.721              1.592              1.204
 Vibration    19          0.739              1.543              1.098
 Vibration    20          0.762              1.480              0.980
 Vibration    21          0.779              1.437              0.908
 Vibration    22          0.790              1.408              0.864
 Vibration    23          0.798              1.387              0.832
 Vibration    24          0.806              1.368              0.806
 Vibration    25          0.847              1.269              0.680
 Vibration    26          0.854              1.254              0.662
 Vibration    27          0.869              1.219              0.624
 Vibration    28          0.896              1.160              0.563
 Vibration    29          0.944              1.060              0.473
 Vibration    30          0.952              1.043              0.459
 Vibration    31          0.978              0.994              0.419

 Normal termination of Gaussian 09 at Fri Mar 25 21:17:39 2016.
