 Gaussian 09, Revision B.01,
 Gaussian 09:  EM64L-G09RevB.01 12-Aug-2010

 -------------------------------------------------
 # freq=raman b3lyp/6-31+g(2d,p) geom=connectivity
 -------------------------------------------------

 -----------------
 300 9156/9156.com
 -----------------
 Symbolic Z-matrix:
 Charge =  0 Multiplicity = 1

                         Standard orientation:
 ---------------------------------------------------------------------
 Center     Atomic      Atomic             Coordinates (Angstroms)
 Number     Number       Type             X           Y           Z
 ---------------------------------------------------------------------
      1          8           0       -4.996703   -0.241775    0.321098
      2          6           0       -3.664497   -0.040733   -0.172698
      3          6           0       -3.167400    1.267894    0.420367
      4          8           0       -4.024636    2.344469    0.016221
      5          1           0       -4.990257    2.085415    0.039510
      6          6           0       -1.756056    1.591748   -0.041924
      7          8           0       -1.186492    2.678522    0.702394
      8          1           0       -0.452216    3.014892    0.113311
      9          6           0       -3.105307   -2.568007   -0.390863
     10          8           0       -4.195733   -3.184197    0.311065
     11          1           0       -4.096718   -4.172132    0.190991
     12          6           0       -2.729903   -1.195966    0.145021
     13          8           0       -1.426770   -0.859797   -0.352151
     14          6           0       -0.842103    0.381091    0.068751
     15          8           0        0.310921    0.305381   -0.781964
     16          6           0        1.546500    0.189975   -0.062054
     17          6           0        2.030285   -1.226456   -0.326658
     18          8           0        0.937546   -2.112182   -0.044155
     19          1           0        0.080632   -1.678666   -0.322168
     20          6           0        3.329772   -1.537288    0.398745
     21          8           0        3.729556   -2.821201   -0.101258
     22          1           0        4.656036   -3.097595    0.154546
     23          6           0        2.277722    2.647933   -0.020727
     24          8           0        1.130945    3.386034   -0.468990
     25          1           0        1.413573    4.324337   -0.272607
     26          6           0        2.596859    1.222480   -0.440552
     27          8           0        3.879012    0.905010    0.121096
     28          6           0        4.273173   -0.456242   -0.102658
     29          8           0        5.360419   -0.584049    0.823595
     30          1           0        6.181820   -0.695773    0.339428
     31          1           0       -5.596473   -0.366735   -0.417997
     32          1           0       -2.250043   -3.207178   -0.320981
     33          1           0       -3.375372   -2.469436   -1.421518
     34          1           0       -2.662941   -1.273097    1.210135
     35          1           0       -3.712891    0.068459   -1.236011
     36          1           0       -3.177608    1.194237    1.487780
     37          1           0       -1.801927    1.881203   -1.071007
     38          1           0       -0.525270    0.284931    1.086233
     39          1           0        3.132010    3.234863   -0.286444
     40          1           0        2.226999    2.639214    1.048034
     41          1           0        2.694200    1.210498   -1.506047
     42          1           0        1.339358    0.287688    0.983147
     43          1           0        2.232409   -1.300866   -1.374755
     44          1           0        3.216329   -1.524817    1.462641
     45          1           0        4.589569   -0.627731   -1.110321
 ---------------------------------------------------------------------

 SCF Done:  E(RB3LYP) =  -1297.98520027     A.U. after   13 cycles

 The electronic state is 1-A.
 Alpha  occ. eigenvalues --  -19.19389 -19.18221 -19.17835 -19.17777 -19.17302
 Alpha  occ. eigenvalues --  -19.16751 -19.16130 -19.16076 -19.14909 -19.13850
 Alpha  occ. eigenvalues --  -19.12232 -10.30426 -10.30036 -10.25972 -10.25297
 Alpha  occ. eigenvalues --  -10.25096 -10.24939 -10.24857 -10.24683 -10.24285
 Alpha  occ. eigenvalues --  -10.24260 -10.24094 -10.23128  -1.10279  -1.09209
 Alpha  occ. eigenvalues --   -1.06177  -1.05197  -1.03611  -1.03245  -1.02563
 Alpha  occ. eigenvalues --   -1.02104  -1.01939  -1.00369  -0.99077  -0.81774
 Alpha  occ. eigenvalues --   -0.79898  -0.79402  -0.78159  -0.71637  -0.69873
 Alpha  occ. eigenvalues --   -0.66903  -0.65041  -0.63267  -0.62699  -0.61270
 Alpha  occ. eigenvalues --   -0.59801  -0.56146  -0.55817  -0.55061  -0.54563
 Alpha  occ. eigenvalues --   -0.53948  -0.52932  -0.52653  -0.51732  -0.51152
 Alpha  occ. eigenvalues --   -0.50906  -0.49884  -0.49264  -0.48352  -0.46738
 Alpha  occ. eigenvalues --   -0.46183  -0.44990  -0.43748  -0.43367  -0.42823
 Alpha  occ. eigenvalues --   -0.42487  -0.41649  -0.40837  -0.40188  -0.39378
 Alpha  occ. eigenvalues --   -0.38270  -0.37837  -0.37495  -0.36063  -0.35612
 Alpha  occ. eigenvalues --   -0.35165  -0.34654  -0.34390  -0.33710  -0.32674
 Alpha  occ. eigenvalues --   -0.32544  -0.31167  -0.30853  -0.30075  -0.29869
 Alpha  occ. eigenvalues --   -0.29020  -0.28873  -0.28441  -0.28002  -0.26540
 Alpha  occ. eigenvalues --   -0.25669
 Alpha virt. eigenvalues --   -0.02319  -0.01788  -0.01706  -0.00107   0.00538
 Alpha virt. eigenvalues --    0.01240   0.01958   0.02549   0.03256   0.03589
 Alpha virt. eigenvalues --    0.04049   0.04097   0.04960   0.05488   0.05773

 Mulliken atomic charges:
              1
     1  O   -0.540495
     2  C   -0.159833
     3  C    0.343975
     4  O   -0.557840
     5  H    0.342451
     6  C   -0.255265
     7  O   -0.543810
     8  H    0.404107
     9  C   -0.152346
    10  O   -0.508082
    11  H    0.336030
    12  C    0.134726
    13  O   -0.243546
    14  C    0.169274
    15  O   -0.207759
    16  C    0.286832
    17  C    0.145027
    18  O   -0.610927
    19  H    0.415150
    20  C    0.071910
    21  O   -0.536644
    22  H    0.330680
    23  C   -0.307020
    24  O   -0.552320
    25  H    0.354728
    26  C   -0.077970
    27  O   -0.228520
    28  C    0.176591
    29  O   -0.522125
    30  H    0.325731
    31  H    0.338035
    32  H    0.152789
    33  H    0.135673
    34  H    0.113537
    35  H    0.118591
    36  H    0.126615
    37  H    0.135588
    38  H    0.120979
    39  H    0.143400
    40  H    0.160005
    41  H    0.117123
    42  H    0.106228
    43  H    0.117848
    44  H    0.139669
    45  H    0.141212
 Sum of Mulliken atomic charges =   0.00000

 Dipole moment (field-independent basis, Debye):
    X=              2.5952    Y=              0.4325    Z=             -2.7381  Tot=              3.7973
 Quadrupole moment (field-independent basis, Debye-Ang):
   XX=           -113.1900   YY=           -133.2041   ZZ=           -140.5322
   XY=             11.8935   XZ=              4.0615   YZ=             -0.8364

  Exact polarizability: 232.450  -2.116 198.099   0.973   0.553 143.873
 Approx polarizability: 273.544  -1.516 258.042   0.938   1.472 239.914

 ******    7 imaginary frequencies (negative Signs) ******

                     1                      2                      3
                     A                      A                      A
 Frequencies --  -303.7108              -248.0048              -211.5443
 Red. masses --     1.7022                 1.7345                 1.1612
 Frc consts  --     0.0925                 0.0629                 0.0306
 IR Inten    --     2.6257                18.2092                92.3288
 Raman Activ --     0.0144                 0.1764                 1.2722

                     4                      5                      6
                     A                      A                      A
 Frequencies --  -178.8079               -73.9118               -51.7885
 Red. masses --     1.2647                 6.2307                 6.0086
 Frc consts  --     0.0238                 0.0201                 0.0095
 IR Inten    --    87.8146                 1.6271                 1.1948
 Raman Activ --     0.7836                 0.0647                 0.0457

                     7                      8                      9
                     A                      A                      A
 Frequencies --   -36.4854                38.1709                65.5268
 Red. masses --     6.5998                 6.1776                 5.9580
 Frc consts  --     0.0052                 0.0053                 0.0151
 IR Inten    --     0.6933                 2.5994                 4.4127
 Raman Activ --     0.0330                 0.0873                 0.0747

                    10                     11                     12
                     A                      A                      A
 Frequencies --    74.7306                96.3230                98.0685
 Red. masses --     6.5897                 6.3476                 6.2409
 Frc consts  --     0.0217                 0.0347                 0.0354
 IR Inten    --     1.1856                 1.4513                 0.2353
 Raman Activ --     0.0436                 0.0535                 0.1876

                    13                     14                     15
                     A                      A                      A
 Frequencies --   157.5818               162.8384               170.7746
 Red. masses --     6.0795                 5.5072                 7.8435
 Frc consts  --     0.0889                 0.0860                 0.1348
 IR Inten    --     5.7780                 1.4003                 0.4390
 Raman Activ --     0.3218                 0.1787                 1.1321

                    16                     17                     18
                     A                      A                      A
 Frequencies --   212.8515               233.8481               257.7286
 Red. masses --     6.7781                 5.8472                 4.4600
 Frc consts  --     0.1809                 0.1884                 0.1745
 IR Inten    --     0.4819                 1.3625                19.8902
 Raman Activ --     2.3704                 0.1330                 0.1716

                    19                     20                     21
                     A                      A                      A
 Frequencies --   282.5895               296.4958               305.5143
 Red. masses --     5.2760                 5.9928                 4.6750
 Frc consts  --     0.2482                 0.3104                 0.2571
 IR Inten    --     2.4491                 6.1640                 0.2315
 Raman Activ --     0.1645                 0.9537                 0.8613

                    22                     23                     24
                     A                      A                      A
 Frequencies --   316.4926               329.7020               340.7144
 Red. masses --     5.8720                 5.3576                 5.0135
 Frc consts  --     0.3465                 0.3431                 0.3429
 IR Inten    --     1.1719                 0.8303                12.1536
 Raman Activ --     2.8959                 2.9977                 1.0717

                    25                     26                     27
                     A                      A                      A
 Frequencies --   353.3546               373.4067               390.3102
 Red. masses --     5.2499                 5.6483                 7.5027
 Frc consts  --     0.3862                 0.4640                 0.6734
 IR Inten    --     3.1364                 2.0949                 2.2535
 Raman Activ --     3.3852                 0.3464                 0.8330

                    28                     29                     30
                     A                      A                      A
 Frequencies --   404.1135               423.9627               435.9058
 Red. masses --     3.5853                 6.7439                 5.1405
 Frc consts  --     0.3450                 0.7142                 0.5755
 IR Inten    --    17.0757                 3.8066                 1.1334
 Raman Activ --     4.4111                 4.5796                 1.7757

                    31                     32                     33
                     A                      A                      A
 Frequencies --   452.7199               473.5576               494.4272
 Red. masses --     6.4216                 4.6170                 4.0458
 Frc consts  --     0.7754                 0.6100                 0.5827
 IR Inten    --     0.6152                 2.5494                 8.0970
 Raman Activ --     1.3717                 4.0197                 1.3024

                    34                     35                     36
                     A                      A                      A
 Frequencies --   507.9266               534.4547               563.8977
 Red. masses --     3.7673                 3.3626                 3.5173
 Frc consts  --     0.5726                 0.5659                 0.6590
 IR Inten    --    13.2107                 4.9979                26.7114
 Raman Activ --     2.0348                 4.3324                 0.6766

                    37                     38                     39
                     A                      A                      A
 Frequencies --   590.2986               597.0272               632.8202
 Red. masses --     4.7229                 3.7734                 5.5295
 Frc consts  --     0.9696                 0.7924                 1.3047
 IR Inten    --    16.5867                16.2756                43.3277
 Raman Activ --     0.4963                 0.3607                 1.3731

                    40                     41                     42
                     A                      A                      A
 Frequencies --   647.1071               704.8164               712.7560
 Red. masses --     3.8891                 3.2616                 1.2315
 Frc consts  --     0.9595                 0.9546                 0.3686
 IR Inten    --    18.3349                38.1612                65.4847
 Raman Activ --     0.6213                 0.7476                 2.0194

                    43                     44                     45
                     A                      A                      A
 Frequencies --   720.5033               731.5759               735.2451
 Red. masses --     1.0589                 1.1082                 1.0631
 Frc consts  --     0.3239                 0.3495                 0.3386
 IR Inten    --   102.5127                73.7870               118.3669
 Raman Activ --     2.3454                 1.3335                 1.9200

                    46                     47                     48
                     A                      A                      A
 Frequencies --   828.6589               846.8429               853.5675
 Red. masses --     1.1829                 1.3839                 1.5568
 Frc consts  --     0.4786                 0.5847                 0.6683
 IR Inten    --    99.2381                26.5386                17.0364
 Raman Activ --     1.3265                 1.0557                 1.5952

                    49                     50                     51
                     A                      A                      A
 Frequencies --   864.5054               927.5682               949.3540
 Red. masses --     1.3825                 5.3127                 5.9807
 Frc consts  --     0.6088                 2.6931                 3.1758
 IR Inten    --    43.7969               200.0448                63.2090
 Raman Activ --     0.7282                 2.5506                 0.3502

                    52                     53                     54
                     A                      A                      A
 Frequencies --   977.2260               986.2194               995.6081
 Red. masses --     6.5415                 6.5086                 5.0940
 Frc consts  --     3.6806                 3.7298                 2.9750
 IR Inten    --    41.6353                97.1676               388.7728
 Raman Activ --     1.6393                 1.1832                 2.3947

                    55                     56                     57
                     A                      A                      A
 Frequencies --  1001.2471              1010.1190              1017.8212
 Red. masses --     4.8325                 6.5257                 6.4442
 Frc consts  --     2.8543                 3.9230                 3.9333
 IR Inten    --   156.1603                 6.0148                45.3795
 Raman Activ --     1.8013                 4.8803                 4.3355

                    58                     59                     60
                     A                      A                      A
 Frequencies --  1043.9049              1052.0481              1058.7875
 Red. masses --     5.1327                 5.1279                 5.3660
 Frc consts  --     3.2955                 3.3439                 3.5442
 IR Inten    --   309.7416                39.4094               166.0962
 Raman Activ --     2.5135                 4.2562                 1.8970

                    61                     62                     63
                     A                      A                      A
 Frequencies --  1068.0000              1069.5333              1080.7619
 Red. masses --     3.1565                 2.5342                 4.9939
 Frc consts  --     2.1213                 1.7080                 3.4368
 IR Inten    --     7.2378                 5.6278                77.9857
 Raman Activ --    14.7923                16.6616                 0.5583

                    64                     65                     66
                     A                      A                      A
 Frequencies --  1084.1331              1095.0992              1102.0116
 Red. masses --     2.2321                 3.0730                 2.8226
 Frc consts  --     1.5457                 2.1713                 2.0197
 IR Inten    --    77.9985                19.9831                26.6886
 Raman Activ --     4.4535                15.6776                 2.5376

                    67                     68                     69
                     A                      A                      A
 Frequencies --  1114.4266              1123.2226              1130.7565
 Red. masses --     3.1632                 2.9071                 2.7035
 Frc consts  --     2.3146                 2.1609                 2.0367
 IR Inten    --    21.4718                13.4195                22.9504
 Raman Activ --     5.0253                 2.2394                 7.4757

                    70                     71                     72
                     A                      A                      A
 Frequencies --  1137.5105              1150.7715              1167.5432
 Red. masses --     2.1727                 2.4394                 1.9663
 Frc consts  --     1.6564                 1.9033                 1.5793
 IR Inten    --    11.8830                17.8110                10.6107
 Raman Activ --     5.6171                 3.2665                 1.8482

                    73                     74                     75
                     A                      A                      A
 Frequencies --  1172.5100              1174.3448              1184.6350
 Red. masses --     1.6646                 1.9325                 1.8300
 Frc consts  --     1.3483                 1.5702                 1.5131
 IR Inten    --     6.9074                 3.9950                 7.6367
 Raman Activ --     3.1079                 2.7565                 2.6234

                    76                     77                     78
                     A                      A                      A
 Frequencies --  1197.1737              1201.1283              1229.3266
 Red. masses --     1.4658                 1.2997                 1.2308
 Frc consts  --     1.2378                 1.1048                 1.0959
 IR Inten    --    14.3764                11.3236                19.0715
 Raman Activ --     1.6285                 3.9740                 0.3827

                    79                     80                     81
                     A                      A                      A
 Frequencies --  1233.0260              1237.4621              1246.8539
 Red. masses --     1.2650                 1.2623                 1.1970
 Frc consts  --     1.1332                 1.1389                 1.0965
 IR Inten    --    14.0513                24.8061                 4.6568
 Raman Activ --     1.3011                 3.9084                 0.6353

                    82                     83                     84
                     A                      A                      A
 Frequencies --  1271.9207              1278.1326              1283.1065
 Red. masses --     1.3133                 1.3636                 1.3153
 Frc consts  --     1.2518                 1.3125                 1.2758
 IR Inten    --    25.7475                37.7207                 2.4853
 Raman Activ --     0.1804                 1.7789                 1.8489

                    85                     86                     87
                     A                      A                      A
 Frequencies --  1291.5008              1298.3543              1305.2929
 Red. masses --     1.2447                 1.2204                 1.2129
 Frc consts  --     1.2232                 1.2121                 1.2176
 IR Inten    --     3.4631                 4.7517                49.4971
 Raman Activ --     3.2151                 7.0121                 3.5239

                    88                     89                     90
                     A                      A                      A
 Frequencies --  1307.9338              1319.6746              1331.6214
 Red. masses --     1.3763                 1.2941                 1.2613
 Frc consts  --     1.3871                 1.3279                 1.3177
 IR Inten    --     2.4507                11.1934                12.9044
 Raman Activ --     3.4573                 5.2520                 6.7081

                    91                     92                     93
                     A                      A                      A
 Frequencies --  1332.6425              1338.1218              1346.1885
 Red. masses --     1.2972                 1.1972                 1.1783
 Frc consts  --     1.3573                 1.2630                 1.2581
 IR Inten    --    36.3949                51.7274                 6.3201
 Raman Activ --     1.8310                 1.7703                 6.3541

                    94                     95                     96
                     A                      A                      A
 Frequencies --  1365.3696              1374.2938              1375.5688
 Red. masses --     1.4577                 1.3896                 1.4304
 Frc consts  --     1.6011                 1.5463                 1.5946
 IR Inten    --     5.4011                 8.0175                 7.7925
 Raman Activ --     4.7992                 3.8898                 6.8914

                    97                     98                     99
                     A                      A                      A
 Frequencies --  1384.5582              1387.1091              1394.5776
 Red. masses --     1.5357                 1.4206                 1.3773
 Frc consts  --     1.7345                 1.6105                 1.5782
 IR Inten    --    46.1996                 3.3190                17.2024
 Raman Activ --     2.4956                 2.2406                 4.4783

                   100                    101                    102
                     A                      A                      A
 Frequencies --  1405.8818              1426.5706              1467.9557
 Red. masses --     1.6056                 1.3136                 1.1733
 Frc consts  --     1.8697                 1.5750                 1.4897
 IR Inten    --    35.9979                 6.8830                18.1942
 Raman Activ --     1.9900                11.3604                 4.6971

                   103                    104                    105
                     A                      A                      A
 Frequencies --  1471.1505              1472.2780              1484.4962
 Red. masses --     1.2440                 1.0759                 1.2986
 Frc consts  --     1.5863                 1.3741                 1.6861
 IR Inten    --    39.8290                 6.0263                41.8947
 Raman Activ --     1.0794                 4.6623                 4.5946

                   106                    107                    108
                     A                      A                      A
 Frequencies --  1501.6214              1541.4525              3254.9998
 Red. masses --     1.3282                 1.1974                 1.0642
 Frc consts  --     1.7645                 1.6763                 6.6433
 IR Inten    --    28.0957                37.0725                64.2364
 Raman Activ --     0.6131                 0.8669                36.9230

                   109                    110                    111
                     A                      A                      A
 Frequencies --  3256.3909              3259.2543              3265.8240
 Red. masses --     1.0578                 1.0695                 1.0817
 Frc consts  --     6.6088                 6.6937                 6.7971
 IR Inten    --    29.2044               393.9871                20.7584
 Raman Activ --    55.4957               216.9388                31.7911

                   112                    113                    114
                     A                      A                      A
 Frequencies --  3270.9269              3274.0020              3275.2726
 Red. masses --     1.0790                 1.0757                 1.0839
 Frc consts  --     6.8019                 6.7935                 6.8505
 IR Inten    --    44.4495               157.5764                23.9234
 Raman Activ --    57.0941               234.3031               134.6737

                   115                    116                    117
                     A                      A                      A
 Frequencies --  3279.6905              3281.0395              3287.7897
 Red. masses --     1.0818                 1.0748                 1.0831
 Frc consts  --     6.8556                 6.8172                 6.8981
 IR Inten    --    53.0689               716.7752               134.0273
 Raman Activ --    48.0319                53.9016                18.2854

                   118                    119                    120
                     A                      A                      A
 Frequencies --  3291.2963              3297.3167              3301.1259
 Red. masses --     1.0840                 1.0869                 1.0865
 Frc consts  --     6.9188                 6.9623                 6.9761
 IR Inten    --    91.0620                 9.8480                74.8261
 Raman Activ --    34.5216               124.1742                 8.9231

                   121                    122                    123
                     A                      A                      A
 Frequencies --  3309.1100              3311.9695              3316.9214
 Red. masses --     1.1014                 1.0896                 1.1066
 Frc consts  --     7.1057                 7.0422                 7.1734
 IR Inten    --    33.5054                68.6140                44.9728
 Raman Activ --    30.2800                19.5379                33.6990

                   124                    125                    126
                     A                      A                      A
 Frequencies --  3364.3960              3367.8483              3369.3609
 Red. masses --     1.0664                 1.0657                 1.0679
 Frc consts  --     7.1122                 7.1218                 7.1430
 IR Inten    --    25.2387                36.8254                43.4345
 Raman Activ --   201.8803               112.6672               162.8690

                   127                    128                    129
                     A                      A                      A
 Frequencies --  3380.5760              3886.5976              3887.0368
 Red. masses --     1.0662                 1.0674                 1.0677
 Frc consts  --     7.1790                 9.4999                 9.5043
 IR Inten    --    63.6065                63.8338                59.0970
 Raman Activ --   119.1122               118.5279               103.9818

 - Thermochemistry -
 -------------------
 Temperature   298.150 Kelvin.  Pressure   1.00000 Atm.
 Atom     1 has atomic number  8 and mass  15.99491

 Molecular mass:   342.11621 amu.
 Principal axes and moments of inertia in atomic units:
                           1         2         3
     Eigenvalues --  4487.61811********************
           X            0.99998   0.00698   0.00077
           Y           -0.00699   0.99997   0.00175
           Z           -0.00075  -0.00176   1.00000
 This molecule is an asymmetric top.
 Rotational symmetry number  1.
 Warning -- assumption of classical behavior for rotation
           may cause significant error
 Rotational temperatures (Kelvin)      0.01930     0.00718     0.00539
 Rotational constants (GHZ):           0.40216     0.14970     0.11239
    7 imaginary frequencies ignored.
 Zero-point vibrational energy     975434.8 (Joules/Mol)
                                  233.13451 (Kcal/Mol)
 Warning -- explicit consideration of  31 degrees of freedom as
           vibrations may cause significant error
 Vibrational temperatures:     54.92    94.28   107.52   138.59   141.10
          (Kelvin)            226.72   234.29   245.71   306.25   336.45
                              370.81   406.58   426.59   439.57   455.36
                              474.37   490.21   508.40   537.25   561.57
                              581.43   609.99   627.17   651.36   681.34
                              711.37   730.79   768.96   811.32   849.31
                              858.99   910.49   931.04  1014.07  1025.50
                             1036.64  1052.57  1057.85  1192.25  1218.42
                             1228.09  1243.83  1334.56  1365.91  1406.01
                             1418.95  1432.46  1440.57  1453.33  1464.42
                             1501.94  1513.66  1523.36  1536.61  1538.82
                             1554.97  1559.82  1575.60  1585.55  1603.41
                             1616.06  1626.90  1636.62  1655.70  1679.83
                             1686.98  1689.62  1704.42  1722.46  1728.15
                             1768.72  1774.05  1780.43  1793.94  1830.01
                             1838.95  1846.10  1858.18  1868.04  1878.02
                             1881.82  1898.71  1915.90  1917.37  1925.26
                             1936.86  1964.46  1977.30  1979.13  1992.07
                             1995.74  2006.48  2022.75  2052.51  2112.06
                             2116.65  2118.28  2135.86  2160.50  2217.80
                             4683.21  4685.21  4689.33  4698.79  4706.13
                             4710.55  4712.38  4718.74  4720.68  4730.39
                             4735.44  4744.10  4749.58  4761.07  4765.18
                             4772.30  4840.61  4845.58  4847.75  4863.89
                             5591.94  5592.57

 Zero-point correction=                           0.371524 (Hartree/Particle)
 Thermal correction to Energy=                    0.389776
 Thermal correction to Enthalpy=                  0.390720
 Thermal correction to Gibbs Free Energy=         0.325797
 Sum of electronic and zero-point Energies=          -1297.613677
 Sum of electronic and thermal Energies=             -1297.595424
 Sum of electronic and thermal Enthalpies=           -1297.594480
 Sum of electronic and thermal Free Energies=        -1297.659403

                     E (Thermal)             CV                S
                      KCal/Mol        Cal/Mol-Kelvin    Cal/Mol-Kelvin
 Total                  244.588             75.535            136.643
 Electronic               0.000              0.000              0.000
 Translational            0.889              2.981             43.384
 Rotational               0.889              2.981             35.117
 Vibrational            242.811             69.573             58.141
 Vibration     1          0.594              1.982              5.352
 Vibration     2          0.597              1.971              4.283
 Vibration     3          0.599              1.966              4.025
 Vibration     4          0.603              1.952              3.527
 Vibration     5          0.604              1.951              3.492
 Vibration     6          0.621              1.894              2.579
 Vibration     7          0.623              1.888              2.517
 Vibration     8          0.626              1.878              2.427
 Vibration     9          0.644              1.821              2.019
 Vibration    10          0.654              1.789              1.849
 Vibration    11          0.667              1.750              1.677
 Vibration    12          0.682              1.706              1.518
 Vibration    13          0.690              1.680              1.437
 Vibration    14          0.696              1.663              1.387
 Vibration    15          0.703              1.642              1.328
 Vibration    16          0.712              1.616              1.262
 Vibration    17          0.720              1.594              1.209
 Vibration    18          0.730              1.568              1.151
 Vibration    19          0.745              1.527              1.066
 Vibration    20          0.758              1.491              0.999
 Vibration    21          0.769              1.461              0.948
 Vibration    22          0.786              1.418              0.879
 Vibration    23          0.796              1.392              0.840
 Vibration    24          0.811              1.355              0.788
 Vibration    25          0.830              1.309              0.728
 Vibration    26          0.850              1.262              0.672
 Vibration    27          0.863              1.232              0.639
 Vibration    28          0.889              1.174              0.577
 Vibration    29          0.920              1.109              0.516
 Vibration    30          0.948              1.052              0.467
 Vibration    31          0.955              1.038              0.455

 Normal termination of Gaussian 09 at Wed Mar 23 07:30:34 2016.
