 Gaussian 09, Revision B.01,
 Gaussian 09:  EM64L-G09RevB.01 12-Aug-2010

 ------------------------------------------------
 # freq=raman b3lyp/6-31+g(d,p) geom=connectivity
 ------------------------------------------------

 ------------
 500 8000.com
 ------------
 Symbolic Z-matrix:
 Charge =  0 Multiplicity = 1

                         Standard orientation:
 ---------------------------------------------------------------------
 Center     Atomic      Atomic             Coordinates (Angstroms)
 Number     Number       Type             X           Y           Z
 ---------------------------------------------------------------------
      1          8           0        5.085516   -0.512859   -0.329111
      2          6           0        3.856166   -0.000379    0.205085
      3          6           0        3.330761    1.254066   -0.473924
      4          8           0        4.248347    2.307256   -0.145521
      5          1           0        5.149880    1.974658   -0.421426
      6          6           0        1.997103    1.748664    0.061266
      7          8           0        1.411508    2.775258   -0.753430
      8          1           0        1.633771    3.664447   -0.353309
      9          6           0        3.078348   -2.472942    0.440555
     10          8           0        2.187512   -3.560710    0.151291
     11          1           0        2.461410   -4.434474    0.553766
     12          6           0        2.801984   -1.062996   -0.054537
     13          8           0        1.527012   -0.659748    0.466508
     14          6           0        1.024641    0.584868   -0.041643
     15          8           0       -0.198722    0.854768    0.657222
     16          6           0       -1.322889    0.250116    0.001432
     17          6           0       -1.571500   -1.220786    0.291947
     18          8           0       -0.557005   -2.029619   -0.322299
     19          1           0        0.294764   -1.698095    0.083285
     20          6           0       -2.905540   -1.540005   -0.362009
     21          8           0       -3.448184   -2.853376   -0.164205
     22          1           0       -2.977358   -3.481776   -0.784222
     23          6           0       -2.286941    2.612675    0.067124
     24          8           0       -3.388877    3.395657    0.546466
     25          1           0       -3.287888    4.365679    0.323337
     26          6           0       -2.470120    1.148721    0.433522
     27          8           0       -3.758196    0.729700   -0.038629
     28          6           0       -4.026766   -0.663996    0.173179
     29          8           0       -5.119852   -0.909371   -0.724403
     30          1           0       -5.946157   -0.886075   -0.236266
     31          1           0       -4.276894   -0.886603    1.189438
     32          1           0       -2.813246   -1.367768   -1.414015
     33          1           0       -1.613621   -1.398140    1.346305
     34          1           0       -1.191353    0.360519   -1.054698
     35          1           0       -2.505402    1.102278    1.501931
     36          1           0       -1.380316    2.974857    0.505023
     37          1           0       -2.225741    2.704677   -0.997155
     38          1           0        5.720727   -0.626104    0.381721
     39          1           0        3.161270   -2.415989    1.505815
     40          1           0        4.039463   -2.751070    0.061342
     41          1           0        2.694400   -1.129196   -1.117055
     42          1           0        3.955135    0.166602    1.257331
     43          1           0        3.283019    1.116661   -1.533990
     44          1           0        2.090860    2.075123    1.075926
     45          1           0        0.789324    0.446107   -1.076183
 ---------------------------------------------------------------------

 SCF Done:  E(RB3LYP) =  -1297.94487135     A.U. after   14 cycles

 The electronic state is 1-A.
 Alpha  occ. eigenvalues --  -19.20746 -19.20159 -19.18964 -19.18689 -19.18524
 Alpha  occ. eigenvalues --  -19.17130 -19.15081 -19.14995 -19.14936 -19.14826
 Alpha  occ. eigenvalues --  -19.13338 -10.31260 -10.28169 -10.28132 -10.27293
 Alpha  occ. eigenvalues --  -10.27207 -10.26960 -10.25387 -10.24460 -10.23549
 Alpha  occ. eigenvalues --  -10.23248 -10.23088 -10.22440  -1.10642  -1.07945
 Alpha  occ. eigenvalues --   -1.06011  -1.05641  -1.04545  -1.03636  -1.02559
 Alpha  occ. eigenvalues --   -1.01472  -1.00640  -0.99700  -0.98698  -0.82826
 Alpha  occ. eigenvalues --   -0.81795  -0.78485  -0.76812  -0.72548  -0.69096
 Alpha  occ. eigenvalues --   -0.67623  -0.64377  -0.63750  -0.62587  -0.60845
 Alpha  occ. eigenvalues --   -0.59188  -0.57460  -0.56725  -0.55201  -0.54472
 Alpha  occ. eigenvalues --   -0.53433  -0.52873  -0.52476  -0.51615  -0.51040
 Alpha  occ. eigenvalues --   -0.50414  -0.49209  -0.47746  -0.47176  -0.46603
 Alpha  occ. eigenvalues --   -0.45675  -0.45057  -0.45014  -0.43973  -0.43408
 Alpha  occ. eigenvalues --   -0.42391  -0.40958  -0.40552  -0.39883  -0.39549
 Alpha  occ. eigenvalues --   -0.38362  -0.38108  -0.37206  -0.36695  -0.35499
 Alpha  occ. eigenvalues --   -0.34942  -0.34897  -0.33449  -0.33313  -0.32944
 Alpha  occ. eigenvalues --   -0.32225  -0.31598  -0.30874  -0.30495  -0.29325
 Alpha  occ. eigenvalues --   -0.28907  -0.28547  -0.27136  -0.26913  -0.26093
 Alpha  occ. eigenvalues --   -0.25135
 Alpha virt. eigenvalues --   -0.03609  -0.01848  -0.01343  -0.00061   0.00602
 Alpha virt. eigenvalues --    0.01487   0.01588   0.02016   0.02288   0.03218
 Alpha virt. eigenvalues --    0.03677   0.04367   0.05099   0.05453   0.06281

 Mulliken atomic charges:
              1
     1  O   -0.548448
     2  C   -0.225062
     3  C    0.240229
     4  O   -0.518972
     5  H    0.354317
     6  C   -0.268844
     7  O   -0.505368
     8  H    0.364288
     9  C   -0.194135
    10  O   -0.562067
    11  H    0.368630
    12  C    0.393228
    13  O   -0.464254
    14  C    0.358182
    15  O   -0.278794
    16  C    0.016002
    17  C    0.073043
    18  O   -0.526912
    19  H    0.447616
    20  C   -0.252126
    21  O   -0.480585
    22  H    0.357909
    23  C    0.017874
    24  O   -0.547529
    25  H    0.350657
    26  C   -0.180387
    27  O   -0.287073
    28  C    0.333618
    29  O   -0.499865
    30  H    0.347725
    31  H    0.130325
    32  H    0.148172
    33  H    0.136519
    34  H    0.126472
    35  H    0.130306
    36  H    0.143537
    37  H    0.130023
    38  H    0.369247
    39  H    0.128347
    40  H    0.148163
    41  H    0.142034
    42  H    0.147916
    43  H    0.155632
    44  H    0.157632
    45  H    0.122778
 Sum of Mulliken atomic charges =   0.00000

 Dipole moment (field-independent basis, Debye):
    X=              8.3849    Y=              0.7189    Z=              2.4408  Tot=              8.7624
 Quadrupole moment (field-independent basis, Debye-Ang):
   XX=           -125.7656   YY=           -127.4724   ZZ=           -138.8177
   XY=             -7.5823   XZ=              4.6872   YZ=             -4.9184

  Exact polarizability: 218.532   1.508 199.867   0.718   0.161 141.556
 Approx polarizability: 256.267   0.558 255.471   0.527   3.377 231.413

 ******    7 imaginary frequencies (negative Signs) ******

                     1                      2                      3
                     A                      A                      A
 Frequencies --  -347.1085              -313.2818              -230.0923
 Red. masses --     1.0762                 1.7245                 1.9260
 Frc consts  --     0.0764                 0.0997                 0.0601
 IR Inten    --   102.1021                 6.7795                 6.1503
 Raman Activ --     1.4948                 0.0639                 0.0780

                     4                      5                      6
                     A                      A                      A
 Frequencies --  -218.4467               -69.5340               -64.1874
 Red. masses --     1.2007                 6.3357                 6.4378
 Frc consts  --     0.0338                 0.0180                 0.0156
 IR Inten    --   120.0330                 0.2076                 1.1660
 Raman Activ --     0.8290                 0.0443                 0.0355

                     7                      8                      9
                     A                      A                      A
 Frequencies --   -29.9450                52.3286                60.4574
 Red. masses --     6.4197                 6.9124                 6.4871
 Frc consts  --     0.0034                 0.0112                 0.0140
 IR Inten    --     1.0108                 0.0974                 1.1997
 Raman Activ --     0.0595                 0.0691                 0.0846

                    10                     11                     12
                     A                      A                      A
 Frequencies --    75.2579                86.2903               106.7556
 Red. masses --     6.0830                 6.0477                 6.9453
 Frc consts  --     0.0203                 0.0265                 0.0466
 IR Inten    --     2.7891                 1.0801                 0.2564
 Raman Activ --     0.0748                 0.0524                 0.1175

                    13                     14                     15
                     A                      A                      A
 Frequencies --   129.1599               168.0528               183.2623
 Red. masses --     5.8598                 5.7162                 5.9512
 Frc consts  --     0.0576                 0.0951                 0.1178
 IR Inten    --     1.7466                 1.3183                 1.0348
 Raman Activ --     0.5557                 0.7838                 0.2704

                    16                     17                     18
                     A                      A                      A
 Frequencies --   201.1673               215.8228               261.6535
 Red. masses --     6.2541                 6.2430                 5.0662
 Frc consts  --     0.1491                 0.1713                 0.2044
 IR Inten    --     1.0081                 3.4505                10.6572
 Raman Activ --     1.1093                 1.0437                 1.0851

                    19                     20                     21
                     A                      A                      A
 Frequencies --   267.7820               279.8200               305.1865
 Red. masses --     4.4543                 6.1339                 4.8996
 Frc consts  --     0.1882                 0.2830                 0.2689
 IR Inten    --     0.0900                 1.4388                 4.3305
 Raman Activ --     0.3861                 0.5293                 0.2206

                    22                     23                     24
                     A                      A                      A
 Frequencies --   318.6509               332.7439               333.3354
 Red. masses --     4.9873                 5.6048                 5.1773
 Frc consts  --     0.2984                 0.3656                 0.3389
 IR Inten    --     2.3609                 6.2842                 2.3187
 Raman Activ --     0.9911                 5.3412                 0.4218

                    25                     26                     27
                     A                      A                      A
 Frequencies --   347.1437               374.3027               383.0728
 Red. masses --     6.7378                 4.8602                 4.8869
 Frc consts  --     0.4784                 0.4012                 0.4225
 IR Inten    --     0.4966                 3.4838                 1.5095
 Raman Activ --     4.0523                 0.3133                 0.6088

                    28                     29                     30
                     A                      A                      A
 Frequencies --   415.7036               433.1707               443.2680
 Red. masses --     6.8478                 4.9180                 4.9035
 Frc consts  --     0.6972                 0.5437                 0.5677
 IR Inten    --     3.0048                15.9091                 0.3190
 Raman Activ --     7.3030                 2.3748                 0.2068

                    31                     32                     33
                     A                      A                      A
 Frequencies --   446.9401               482.2101               489.7385
 Red. masses --     4.9167                 3.8329                 4.4522
 Frc consts  --     0.5787                 0.5251                 0.6291
 IR Inten    --     9.2387                 7.2164                 7.0324
 Raman Activ --     1.8225                 1.0515                 0.6138

                    34                     35                     36
                     A                      A                      A
 Frequencies --   548.2378               549.9278               579.9439
 Red. masses --     4.0873                 3.9627                 4.3129
 Frc consts  --     0.7238                 0.7061                 0.8547
 IR Inten    --    22.0994                 6.3646                23.7571
 Raman Activ --     3.8688                 2.6445                 2.8932

                    37                     38                     39
                     A                      A                      A
 Frequencies --   589.0513               599.0295               604.8348
 Red. masses --     3.4842                 2.9641                 1.1324
 Frc consts  --     0.7123                 0.6267                 0.2441
 IR Inten    --     8.2590                29.3373               115.3384
 Raman Activ --     1.3247                 0.4430                 2.5874

                    40                     41                     42
                     A                      A                      A
 Frequencies --   619.9051               660.6019               666.3949
 Red. masses --     3.0605                 3.7596                 1.8556
 Frc consts  --     0.6929                 0.9666                 0.4855
 IR Inten    --    23.1459                27.9547                32.0051
 Raman Activ --     0.5578                 0.1266                 1.3912

                    43                     44                     45
                     A                      A                      A
 Frequencies --   668.4884               683.7579               689.6184
 Red. masses --     1.4513                 1.1571                 1.1027
 Frc consts  --     0.3821                 0.3187                 0.3090
 IR Inten    --   131.8776               106.1051               111.0810
 Raman Activ --     1.6414                 1.7544                 1.6625

                    46                     47                     48
                     A                      A                      A
 Frequencies --   767.6579               844.2584               854.2955
 Red. masses --     1.0824                 2.4340                 2.3881
 Frc consts  --     0.3758                 1.0222                 1.0269
 IR Inten    --   104.3930                22.7540                 8.1701
 Raman Activ --     1.9076                 3.2358                 4.2357

                    49                     50                     51
                     A                      A                      A
 Frequencies --   889.8696               958.4547               977.2715
 Red. masses --     1.1396                 5.8876                 6.9178
 Frc consts  --     0.5317                 3.1866                 3.8927
 IR Inten    --    78.6940                85.5575               166.5191
 Raman Activ --     1.6436                 3.2409                 2.0065

                    52                     53                     54
                     A                      A                      A
 Frequencies --   984.6702               993.8145               995.4561
 Red. masses --     4.1841                 4.8092                 6.0863
 Frc consts  --     2.3902                 2.7986                 3.5534
 IR Inten    --    36.4379               176.1935                94.3729
 Raman Activ --     0.9142                 1.0205                 2.7227

                    55                     56                     57
                     A                      A                      A
 Frequencies --  1002.5566              1012.5977              1029.5718
 Red. masses --     4.2548                 4.0968                 5.9179
 Frc consts  --     2.5197                 2.4750                 3.6960
 IR Inten    --   113.6079               145.9840               348.2116
 Raman Activ --     2.4410                 2.0313                 0.0775

                    58                     59                     60
                     A                      A                      A
 Frequencies --  1045.2259              1055.0856              1064.1560
 Red. masses --     2.2958                 2.3454                 5.1180
 Frc consts  --     1.4777                 1.5383                 3.4148
 IR Inten    --   106.6710                48.1102                55.5637
 Raman Activ --     3.1308                15.3163                 6.1346

                    61                     62                     63
                     A                      A                      A
 Frequencies --  1072.8016              1082.0435              1086.9536
 Red. masses --     5.2710                 4.7854                 2.5982
 Frc consts  --     3.5742                 3.3011                 1.8086
 IR Inten    --     2.2140                97.5608                59.2064
 Raman Activ --     6.8551                 3.1713                 4.5043

                    64                     65                     66
                     A                      A                      A
 Frequencies --  1093.4506              1095.9359              1104.9094
 Red. masses --     2.3448                 3.5418                 3.1872
 Frc consts  --     1.6518                 2.5064                 2.2925
 IR Inten    --    93.9738                 6.9311                22.5396
 Raman Activ --     3.0160                 1.9925                15.8961

                    67                     68                     69
                     A                      A                      A
 Frequencies --  1109.3141              1122.8223              1131.6509
 Red. masses --     2.9028                 2.3168                 1.9360
 Frc consts  --     2.1047                 1.7209                 1.4608
 IR Inten    --   104.8825                 6.0646                30.4904
 Raman Activ --     2.5894                 7.6957                 2.4818

                    70                     71                     72
                     A                      A                      A
 Frequencies --  1142.6663              1149.8754              1154.9247
 Red. masses --     2.3860                 2.0369                 3.0974
 Frc consts  --     1.8355                 1.5868                 2.4342
 IR Inten    --    59.0232                28.7972                 7.6514
 Raman Activ --     2.4243                 2.1997                 3.4247

                    73                     74                     75
                     A                      A                      A
 Frequencies --  1164.3804              1175.3093              1179.4547
 Red. masses --     1.7486                 1.7453                 1.9331
 Frc consts  --     1.3968                 1.4205                 1.5844
 IR Inten    --    11.1715                 2.4897                 8.4870
 Raman Activ --     1.1529                 0.8699                 4.7093

                    76                     77                     78
                     A                      A                      A
 Frequencies --  1189.6477              1193.2529              1214.3545
 Red. masses --     1.3637                 1.5267                 1.3172
 Frc consts  --     1.1371                 1.2807                 1.1444
 IR Inten    --     0.9011                 8.5531                 6.2732
 Raman Activ --     1.3786                 3.0298                 1.7659

                    79                     80                     81
                     A                      A                      A
 Frequencies --  1221.7218              1227.5965              1252.8564
 Red. masses --     1.3431                 1.2868                 1.2849
 Frc consts  --     1.1811                 1.1426                 1.1883
 IR Inten    --    23.3734                 9.1816                 4.0363
 Raman Activ --     1.6961                 2.8606                 0.7498

                    82                     83                     84
                     A                      A                      A
 Frequencies --  1257.1002              1272.9658              1274.5832
 Red. masses --     1.1894                 1.1553                 1.3336
 Frc consts  --     1.1074                 1.1031                 1.2764
 IR Inten    --    16.0100                 7.8920                 7.7990
 Raman Activ --     6.8173                 4.9035                 3.5171

                    85                     86                     87
                     A                      A                      A
 Frequencies --  1283.0183              1287.5436              1300.1456
 Red. masses --     1.1916                 1.2834                 1.2746
 Frc consts  --     1.1557                 1.2535                 1.2695
 IR Inten    --    35.9921                 7.9329                34.0308
 Raman Activ --     2.8280                 2.1069                 2.2715

                    88                     89                     90
                     A                      A                      A
 Frequencies --  1311.8786              1314.0930              1329.4524
 Red. masses --     1.2826                 1.4143                 1.3476
 Frc consts  --     1.3006                 1.4390                 1.4033
 IR Inten    --     6.4015                11.8337               101.8384
 Raman Activ --     5.0482                 2.1275                 5.4398

                    91                     92                     93
                     A                      A                      A
 Frequencies --  1336.2077              1345.2350              1353.0376
 Red. masses --     1.2266                 1.3331                 1.3179
 Frc consts  --     1.2904                 1.4214                 1.4215
 IR Inten    --    22.7996                13.3324                13.7968
 Raman Activ --     1.0878                 8.3656                 1.4010

                    94                     95                     96
                     A                      A                      A
 Frequencies --  1354.8703              1360.2922              1362.4746
 Red. masses --     1.6055                 1.4152                 1.4621
 Frc consts  --     1.7364                 1.5428                 1.5991
 IR Inten    --     9.0359                20.7964                 8.2023
 Raman Activ --     6.2523                 1.3239                 7.2925

                    97                     98                     99
                     A                      A                      A
 Frequencies --  1377.7483              1386.2791              1409.8207
 Red. masses --     1.4639                 1.3981                 1.2672
 Frc consts  --     1.6372                 1.5830                 1.4840
 IR Inten    --    20.0716                 1.7819                14.4038
 Raman Activ --     2.6712                 8.4943                 7.7065

                   100                    101                    102
                     A                      A                      A
 Frequencies --  1428.0565              1433.2707              1434.5487
 Red. masses --     1.4350                 1.4577                 1.5072
 Frc consts  --     1.7242                 1.7643                 1.8274
 IR Inten    --    17.5544                 4.4982                10.8685
 Raman Activ --     3.8153                 0.6557                 1.2695

                   103                    104                    105
                     A                      A                      A
 Frequencies --  1445.9397              1458.2012              1471.0479
 Red. masses --     1.5086                 1.4757                 1.0745
 Frc consts  --     1.8583                 1.8487                 1.3699
 IR Inten    --    26.5290                52.0581                 1.9328
 Raman Activ --     5.5444                 2.0641                 5.8420

                   106                    107                    108
                     A                      A                      A
 Frequencies --  1471.6991              1522.1764              3266.9361
 Red. masses --     1.0796                 1.2359                 1.0608
 Frc consts  --     1.3776                 1.6872                 6.6705
 IR Inten    --     3.6358                37.6853               102.9455
 Raman Activ --     6.1415                 1.6549                87.7004

                   109                    110                    111
                     A                      A                      A
 Frequencies --  3272.1320              3275.8694              3279.1305
 Red. masses --     1.0594                 1.0697                 1.0799
 Frc consts  --     6.6833                 6.7636                 6.8416
 IR Inten    --     6.4404               580.3944                18.2548
 Raman Activ --   170.2103                77.6663                34.3938

                   112                    113                    114
                     A                      A                      A
 Frequencies --  3285.1492              3292.8489              3295.9264
 Red. masses --     1.0816                 1.0833                 1.0835
 Frc consts  --     6.8773                 6.9204                 6.9347
 IR Inten    --    79.4982               101.8560                 8.0635
 Raman Activ --    37.9769                37.8139                81.1200

                   115                    116                    117
                     A                      A                      A
 Frequencies --  3301.7823              3304.5607              3307.6123
 Red. masses --     1.0837                 1.0856                 1.0858
 Frc consts  --     6.9609                 6.9847                 6.9992
 IR Inten    --    66.9954                 5.4775                26.9674
 Raman Activ --    87.5418               103.0703                98.9058

                   118                    119                    120
                     A                      A                      A
 Frequencies --  3312.1931              3318.4373              3318.9874
 Red. masses --     1.0890                 1.0967                 1.0901
 Frc consts  --     7.0392                 7.1154                 7.0749
 IR Inten    --     5.0850                 6.8789                82.9552
 Raman Activ --    23.8449                50.1775                30.0315

                   121                    122                    123
                     A                      A                      A
 Frequencies --  3325.3449              3335.8707              3380.1405
 Red. masses --     1.0875                 1.1080                 1.0676
 Frc consts  --     7.0851                 7.2646                 7.1864
 IR Inten    --    66.7702                45.1206                30.3276
 Raman Activ --    12.0392                38.6153               191.5905

                   124                    125                    126
                     A                      A                      A
 Frequencies --  3388.2643              3389.9385              3391.9053
 Red. masses --     1.0683                 1.0656                 1.0668
 Frc consts  --     7.2258                 7.2148                 7.2317
 IR Inten    --    65.6743                30.3916                38.9093
 Raman Activ --   183.1599               115.3776               106.4478

                   127                    128                    129
                     A                      A                      A
 Frequencies --  3401.4261              3918.0615              3918.3579
 Red. masses --     1.0676                 1.0674                 1.0678
 Frc consts  --     7.2776                 9.6544                 9.6593
 IR Inten    --    58.0252                67.3001                62.4691
 Raman Activ --   118.3424               119.0206               127.7376

 - Thermochemistry -
 -------------------
 Temperature   298.150 Kelvin.  Pressure   1.00000 Atm.
 Atom     1 has atomic number  8 and mass  15.99491

 Molecular mass:   342.11621 amu.
 Principal axes and moments of inertia in atomic units:
                           1         2         3
     Eigenvalues --  4706.82675********************
           X            0.99997  -0.00710   0.00084
           Y            0.00710   0.99997  -0.00323
           Z           -0.00082   0.00323   0.99999
 This molecule is an asymmetric top.
 Rotational symmetry number  1.
 Warning -- assumption of classical behavior for rotation
           may cause significant error
 Rotational temperatures (Kelvin)      0.01840     0.00749     0.00549
 Rotational constants (GHZ):           0.38343     0.15609     0.11442
    7 imaginary frequencies ignored.
 Zero-point vibrational energy     975892.6 (Joules/Mol)
                                  233.24392 (Kcal/Mol)
 Warning -- explicit consideration of  33 degrees of freedom as
           vibrations may cause significant error
 Vibrational temperatures:     75.29    86.98   108.28   124.15   153.60
          (Kelvin)            185.83   241.79   263.67   289.43   310.52
                              376.46   385.28   402.60   439.09   458.47
                              478.74   479.59   499.46   538.54   551.16
                              598.10   623.24   637.76   643.05   693.79
                              704.62   788.79   791.22   834.41   847.51
                              861.87   870.22   891.90   950.46   958.79
                              961.80   983.77   992.21  1104.49  1214.70
                             1229.14  1280.32  1379.00  1406.07  1416.72
                             1429.88  1432.24  1442.45  1456.90  1481.32
                             1503.84  1518.03  1531.08  1543.52  1556.82
                             1563.88  1573.23  1576.81  1589.72  1596.05
                             1615.49  1628.19  1644.04  1654.41  1661.68
                             1675.28  1691.01  1696.97  1711.64  1716.82
                             1747.18  1757.78  1766.24  1802.58  1808.68
                             1831.51  1833.84  1845.97  1852.49  1870.62
                             1887.50  1890.68  1912.78  1922.50  1935.49
                             1946.72  1949.35  1957.15  1960.29  1982.27
                             1994.54  2028.42  2054.65  2062.15  2063.99
                             2080.38  2098.02  2116.51  2117.44  2190.07
                             4700.39  4707.86  4713.24  4717.93  4726.59
                             4737.67  4742.10  4750.52  4754.52  4758.91
                             4765.50  4774.49  4775.28  4784.42  4799.57
                             4863.26  4874.95  4877.36  4880.19  4893.89
                             5637.21  5637.64

 Zero-point correction=                           0.371698 (Hartree/Particle)
 Thermal correction to Energy=                    0.390106
 Thermal correction to Enthalpy=                  0.391050
 Thermal correction to Gibbs Free Energy=         0.325956
 Sum of electronic and zero-point Energies=          -1297.573174
 Sum of electronic and thermal Energies=             -1297.554766
 Sum of electronic and thermal Enthalpies=           -1297.553821
 Sum of electronic and thermal Free Energies=        -1297.618915

                     E (Thermal)             CV                S
                      KCal/Mol        Cal/Mol-Kelvin    Cal/Mol-Kelvin
 Total                  244.795             76.048            137.001
 Electronic               0.000              0.000              0.000
 Translational            0.889              2.981             43.384
 Rotational               0.889              2.981             35.105
 Vibrational            243.018             70.086             58.511
 Vibration     1          0.596              1.977              4.727
 Vibration     2          0.597              1.973              4.442
 Vibration     3          0.599              1.966              4.011
 Vibration     4          0.601              1.959              3.742
 Vibration     5          0.606              1.944              3.327
 Vibration     6          0.612              1.924              2.959
 Vibration     7          0.625              1.882              2.457
 Vibration     8          0.631              1.863              2.295
 Vibration     9          0.638              1.838              2.122
 Vibration    10          0.645              1.817              1.994
 Vibration    11          0.669              1.743              1.651
 Vibration    12          0.673              1.732              1.610
 Vibration    13          0.680              1.711              1.535
 Vibration    14          0.696              1.664              1.388
 Vibration    15          0.705              1.638              1.317
 Vibration    16          0.715              1.610              1.247
 Vibration    17          0.715              1.609              1.244
 Vibration    18          0.725              1.581              1.179
 Vibration    19          0.745              1.525              1.062
 Vibration    20          0.752              1.506              1.027
 Vibration    21          0.779              1.436              0.907
 Vibration    22          0.794              1.398              0.848
 Vibration    23          0.803              1.376              0.816
 Vibration    24          0.806              1.368              0.805
 Vibration    25          0.838              1.290              0.704
 Vibration    26          0.846              1.273              0.684
 Vibration    27          0.903              1.144              0.548
 Vibration    28          0.905              1.140              0.544
 Vibration    29          0.937              1.075              0.485
 Vibration    30          0.946              1.055              0.469
 Vibration    31          0.957              1.034              0.451
 Vibration    32          0.963              1.022              0.441
 Vibration    33          0.980              0.990              0.417

 Normal termination of Gaussian 09 at Thu Jan 21 18:24:46 2016.
