 Gaussian 09, Revision B.01,
 Gaussian 09:  EM64L-G09RevB.01 12-Aug-2010

 ------------------------------------------------
 # freq=raman b3lyp/6-31+g(d,p) geom=connectivity
 ------------------------------------------------

 ------------
 450 5000.com
 ------------
 Symbolic Z-matrix:
 Charge =  0 Multiplicity = 1

                         Standard orientation:
 ---------------------------------------------------------------------
 Center     Atomic      Atomic             Coordinates (Angstroms)
 Number     Number       Type             X           Y           Z
 ---------------------------------------------------------------------
      1          8           0       -5.224749   -0.495545    0.464311
      2          6           0       -3.950485   -0.104876   -0.065476
      3          6           0       -3.492763    1.294377    0.310452
      4          8           0       -4.312722    2.198313   -0.444555
      5          1           0       -5.235602    1.986334   -0.122459
      6          6           0       -2.037532    1.632012    0.029748
      7          8           0       -1.656993    2.605207    1.013296
      8          1           0       -2.110077    3.496107    0.987374
      9          6           0       -3.106553   -2.434239   -0.447696
     10          8           0       -2.238833   -3.557536   -0.229261
     11          1           0       -2.765531   -4.351380   -0.533246
     12          6           0       -2.812901   -1.082300    0.181954
     13          8           0       -1.615050   -0.755953   -0.537950
     14          6           0       -1.097652    0.437709    0.068203
     15          8           0        0.202935    0.782957   -0.430744
     16          6           0        1.394969    0.364388    0.249804
     17          6           0        1.774940   -1.075492   -0.056296
     18          8           0        0.740895   -2.022382    0.250495
     19          1           0       -0.171998   -1.747294   -0.050792
     20          6           0        3.185903   -1.526605    0.282130
     21          8           0        3.448025   -2.917306    0.040325
     22          1           0        2.665792   -3.303302    0.528207
     23          6           0        2.283077    2.596221   -0.091381
     24          8           0        3.122545    3.665373   -0.548532
     25          1           0        3.072748    3.812836   -1.536588
     26          6           0        2.574176    1.124388   -0.334899
     27          8           0        3.881472    0.838280    0.180975
     28          6           0        4.226217   -0.511516   -0.162743
     29          8           0        5.452731   -0.903696    0.472896
     30          1           0        6.192075   -0.697991   -0.103867
     31          1           0       -5.912318   -0.294207   -0.174683
     32          1           0       -3.157818   -2.280972   -1.505421
     33          1           0       -4.082375   -2.725654   -0.119444
     34          1           0       -2.613587   -1.184695    1.228228
     35          1           0       -4.083160   -0.085450   -1.127041
     36          1           0       -3.683330    1.447304    1.352180
     37          1           0       -1.973700    2.082920   -0.938501
     38          1           0       -0.963308    0.204414    1.103783
     39          1           0        2.200117    2.713378    0.968945
     40          1           0        1.312556    2.781237   -0.502182
     41          1           0        2.588992    0.954955   -1.391295
     42          1           0        1.317647    0.527454    1.304476
     43          1           0        1.786412   -1.084640   -1.126196
     44          1           0        3.219131   -1.457891    1.349404
     45          1           0        4.346915   -0.579563   -1.223734
 ---------------------------------------------------------------------

 SCF Done:  E(RB3LYP) =  -1297.90687665     A.U. after   14 cycles

 The electronic state is 1-A.
 Alpha  occ. eigenvalues --  -19.21700 -19.20861 -19.19647 -19.19592 -19.18366
 Alpha  occ. eigenvalues --  -19.17856 -19.17580 -19.16701 -19.15775 -19.15663
 Alpha  occ. eigenvalues --  -19.14635 -10.32554 -10.29874 -10.27880 -10.27831
 Alpha  occ. eigenvalues --  -10.27693 -10.26961 -10.26142 -10.25001 -10.24991
 Alpha  occ. eigenvalues --  -10.24142 -10.23917 -10.22506  -1.11392  -1.08178
 Alpha  occ. eigenvalues --   -1.07510  -1.06061  -1.05566  -1.03789  -1.03220
 Alpha  occ. eigenvalues --   -1.02586  -1.01691  -1.00666  -0.99998  -0.83334
 Alpha  occ. eigenvalues --   -0.82623  -0.79475  -0.77875  -0.72502  -0.69994
 Alpha  occ. eigenvalues --   -0.68634  -0.65256  -0.63860  -0.62734  -0.62006
 Alpha  occ. eigenvalues --   -0.60123  -0.58162  -0.57537  -0.55735  -0.54654
 Alpha  occ. eigenvalues --   -0.53833  -0.53750  -0.53605  -0.52889  -0.51571
 Alpha  occ. eigenvalues --   -0.50283  -0.49606  -0.49011  -0.48186  -0.47319
 Alpha  occ. eigenvalues --   -0.45823  -0.45687  -0.45085  -0.44659  -0.43943
 Alpha  occ. eigenvalues --   -0.43224  -0.42100  -0.41357  -0.40499  -0.39639
 Alpha  occ. eigenvalues --   -0.39442  -0.38118  -0.37376  -0.36587  -0.36512
 Alpha  occ. eigenvalues --   -0.35974  -0.35369  -0.34753  -0.34225  -0.33500
 Alpha  occ. eigenvalues --   -0.32534  -0.31889  -0.31607  -0.31073  -0.30605
 Alpha  occ. eigenvalues --   -0.29368  -0.29173  -0.28494  -0.27780  -0.26474
 Alpha  occ. eigenvalues --   -0.25809
 Alpha virt. eigenvalues --   -0.04178  -0.01765  -0.01009  -0.00543   0.00425
 Alpha virt. eigenvalues --    0.01096   0.01216   0.01641   0.02548   0.02951
 Alpha virt. eigenvalues --    0.03700   0.04041   0.04485   0.05424   0.05619

 Mulliken atomic charges:
              1
     1  O   -0.528887
     2  C   -0.363555
     3  C    0.274661
     4  O   -0.503551
     5  H    0.340269
     6  C    0.089645
     7  O   -0.549940
     8  H    0.382169
     9  C   -0.264330
    10  O   -0.535873
    11  H    0.358438
    12  C    0.509276
    13  O   -0.386901
    14  C   -0.026861
    15  O   -0.343937
    16  C   -0.033476
    17  C    0.083991
    18  O   -0.609323
    19  H    0.450905
    20  C   -0.107763
    21  O   -0.449388
    22  H    0.370243
    23  C   -0.058762
    24  O   -0.520886
    25  H    0.335739
    26  C   -0.174173
    27  O   -0.287002
    28  C    0.360058
    29  O   -0.501171
    30  H    0.349009
    31  H    0.366001
    32  H    0.141409
    33  H    0.142200
    34  H    0.150051
    35  H    0.146445
    36  H    0.169372
    37  H    0.164578
    38  H    0.122021
    39  H    0.145536
    40  H    0.145943
    41  H    0.122905
    42  H    0.142882
    43  H    0.122909
    44  H    0.141798
    45  H    0.117327
 Sum of Mulliken atomic charges =   0.00000

 Dipole moment (field-independent basis, Debye):
    X=             -8.8588    Y=              1.0039    Z=             -2.9542  Tot=              9.3922
 Quadrupole moment (field-independent basis, Debye-Ang):
   XX=           -120.1177   YY=           -146.4629   ZZ=           -136.2458
   XY=              4.1498   XZ=             -7.3119   YZ=             -0.3385

  Exact polarizability: 222.989  -2.345 196.058  -0.333  -0.639 143.170
 Approx polarizability: 261.610  -1.123 250.788  -0.231  -1.923 233.708

 ******    8 imaginary frequencies (negative Signs) ******

                     1                      2                      3
                     A                      A                      A
 Frequencies --  -270.7117              -240.1705              -232.1834
 Red. masses --     1.7984                 1.2731                 1.1584
 Frc consts  --     0.0777                 0.0433                 0.0368
 IR Inten    --     2.8821               108.6166               100.1292
 Raman Activ --     0.0533                 0.7915                 0.9680

                     4                      5                      6
                     A                      A                      A
 Frequencies --  -223.0954               -92.6015               -73.4843
 Red. masses --     1.4577                 6.0076                 7.0079
 Frc consts  --     0.0427                 0.0304                 0.0223
 IR Inten    --    29.4241                 0.9018                 0.7894
 Raman Activ --     0.3857                 0.0067                 0.0413

                     7                      8                      9
                     A                      A                      A
 Frequencies --   -36.5576               -27.1261                25.6263
 Red. masses --     6.4443                 5.9515                 6.2672
 Frc consts  --     0.0051                 0.0026                 0.0024
 IR Inten    --     1.1836                 0.7144                 0.8257
 Raman Activ --     0.1207                 0.0489                 0.0269

                    10                     11                     12
                     A                      A                      A
 Frequencies --    57.1347                90.4767               122.4009
 Red. masses --     6.7982                 7.4837                 6.3783
 Frc consts  --     0.0131                 0.0361                 0.0563
 IR Inten    --     0.5275                 2.3155                 3.8439
 Raman Activ --     0.0295                 0.1715                 0.6506

                    13                     14                     15
                     A                      A                      A
 Frequencies --   139.0361               154.7474               185.5288
 Red. masses --     5.7934                 6.2656                 6.8820
 Frc consts  --     0.0660                 0.0884                 0.1396
 IR Inten    --     1.1225                 2.0969                 2.9322
 Raman Activ --     0.0933                 0.7277                 1.6510

                    16                     17                     18
                     A                      A                      A
 Frequencies --   192.8472               210.7640               247.5705
 Red. masses --     5.6045                 6.2229                 4.5843
 Frc consts  --     0.1228                 0.1629                 0.1655
 IR Inten    --     3.6577                 0.5506                 9.8430
 Raman Activ --     0.4190                 1.6663                 0.2382

                    19                     20                     21
                     A                      A                      A
 Frequencies --   256.2488               273.1197               280.8560
 Red. masses --     5.7917                 4.6125                 5.0700
 Frc consts  --     0.2241                 0.2027                 0.2356
 IR Inten    --     5.2475                11.6018                 4.8940
 Raman Activ --     1.1214                 1.0262                 0.3169

                    22                     23                     24
                     A                      A                      A
 Frequencies --   297.6448               314.3590               332.4947
 Red. masses --     5.4405                 7.1439                 6.7834
 Frc consts  --     0.2840                 0.4159                 0.4418
 IR Inten    --     2.9180                 3.0425                 0.0750
 Raman Activ --     0.1278                 0.2085                 4.8858

                    25                     26                     27
                     A                      A                      A
 Frequencies --   345.7196               366.5555               373.3775
 Red. masses --     5.8409                 4.7495                 5.4617
 Frc consts  --     0.4113                 0.3760                 0.4486
 IR Inten    --     7.8212                 5.0430                 1.3043
 Raman Activ --     4.7662                 0.5358                 0.4513

                    28                     29                     30
                     A                      A                      A
 Frequencies --   417.5982               421.6404               441.6287
 Red. masses --     5.3963                 6.2082                 4.4985
 Frc consts  --     0.5545                 0.6503                 0.5169
 IR Inten    --     0.4373                 1.5708                14.4392
 Raman Activ --     4.1613                 3.6465                 1.7181

                    31                     32                     33
                     A                      A                      A
 Frequencies --   446.7906               465.3040               478.2839
 Red. masses --     4.5137                 3.9899                 4.5375
 Frc consts  --     0.5309                 0.5090                 0.6116
 IR Inten    --     9.6192                 5.5772                16.8191
 Raman Activ --     3.0966                 1.2158                 1.1447

                    34                     35                     36
                     A                      A                      A
 Frequencies --   508.1685               531.5221               548.0175
 Red. masses --     4.4571                 4.7605                 3.9559
 Frc consts  --     0.6781                 0.7924                 0.7000
 IR Inten    --    16.3160                13.8258                25.6727
 Raman Activ --     6.7610                 0.5607                 5.9899

                    37                     38                     39
                     A                      A                      A
 Frequencies --   581.4661               585.3734               597.5512
 Red. masses --     2.9027                 3.1861                 3.1723
 Frc consts  --     0.5782                 0.6432                 0.6674
 IR Inten    --    11.3103                34.5348                18.9512
 Raman Activ --     1.4672                 0.8480                 0.6865

                    40                     41                     42
                     A                      A                      A
 Frequencies --   619.1582               642.3095               650.7642
 Red. masses --     1.3694                 3.0947                 2.9399
 Frc consts  --     0.3093                 0.7522                 0.7335
 IR Inten    --    89.1304                56.5472                 2.2673
 Raman Activ --     0.7794                 0.4877                 0.5678

                    43                     44                     45
                     A                      A                      A
 Frequencies --   680.1652               684.2868               693.1821
 Red. masses --     1.0774                 1.0713                 1.1513
 Frc consts  --     0.2937                 0.2956                 0.3259
 IR Inten    --   106.2719               102.6845               144.7446
 Raman Activ --     1.9944                 1.8195                 1.7603

                    46                     47                     48
                     A                      A                      A
 Frequencies --   773.5675               795.4701               836.7695
 Red. masses --     1.1006                 1.0493                 2.5959
 Frc consts  --     0.3880                 0.3912                 1.0709
 IR Inten    --   117.0323                42.4322                 2.8133
 Raman Activ --     1.5744                 0.7940                 1.5071

                    49                     50                     51
                     A                      A                      A
 Frequencies --   876.5281               956.5988               960.3678
 Red. masses --     2.5298                 5.6400                 5.4040
 Frc consts  --     1.1452                 3.0408                 2.9366
 IR Inten    --     6.5310                 6.0580               183.3439
 Raman Activ --     1.4164                 3.1914                 0.2678

                    52                     53                     54
                     A                      A                      A
 Frequencies --   989.6236               991.0009              1005.5824
 Red. masses --     5.1181                 5.2485                 4.0687
 Frc consts  --     2.9532                 3.0369                 2.4241
 IR Inten    --    15.3514               115.9323                62.9619
 Raman Activ --     2.4200                 2.0626                 4.9768

                    55                     56                     57
                     A                      A                      A
 Frequencies --  1009.6589              1021.4202              1029.4372
 Red. masses --     5.5220                 5.3560                 4.5893
 Frc consts  --     3.3166                 3.2923                 2.8655
 IR Inten    --   258.0398               416.6402               149.6002
 Raman Activ --     1.1726                 1.5142                 1.5163

                    58                     59                     60
                     A                      A                      A
 Frequencies --  1031.9989              1054.2380              1062.1680
 Red. masses --     3.4246                 3.5989                 5.2531
 Frc consts  --     2.1489                 2.3567                 3.4918
 IR Inten    --   142.6026               153.3296               133.7756
 Raman Activ --     1.0703                 3.1702                 1.5800

                    61                     62                     63
                     A                      A                      A
 Frequencies --  1075.0947              1076.7364              1085.7102
 Red. masses --     4.9360                 4.8901                 4.1514
 Frc consts  --     3.3614                 3.3403                 2.8832
 IR Inten    --    12.6810                67.9046                33.0618
 Raman Activ --    10.9942                 8.2588                 4.9021

                    64                     65                     66
                     A                      A                      A
 Frequencies --  1091.6637              1102.4767              1115.8324
 Red. masses --     2.9679                 2.3515                 2.3046
 Frc consts  --     2.0839                 1.6839                 1.6906
 IR Inten    --     8.2196                46.3835                10.6021
 Raman Activ --     3.6884                 2.1634                 5.8172

                    67                     68                     69
                     A                      A                      A
 Frequencies --  1122.6871              1134.5770              1139.8810
 Red. masses --     2.5048                 2.1324                 1.9886
 Frc consts  --     1.8601                 1.6173                 1.5223
 IR Inten    --     6.7126                19.9651                24.9219
 Raman Activ --     5.2084                 4.2631                 3.0651

                    70                     71                     72
                     A                      A                      A
 Frequencies --  1153.7178              1155.6719              1156.8524
 Red. masses --     2.3909                 2.0890                 2.5589
 Frc consts  --     1.8750                 1.6438                 2.0177
 IR Inten    --     7.3944                51.7553                21.3829
 Raman Activ --     4.4903                 2.9143                 1.6116

                    73                     74                     75
                     A                      A                      A
 Frequencies --  1162.8810              1176.0752              1201.7790
 Red. masses --     2.5590                 2.2899                 1.3936
 Frc consts  --     2.0388                 1.8661                 1.1859
 IR Inten    --    37.3878                22.9028                 6.9714
 Raman Activ --     0.5520                 5.2219                 1.0205

                    76                     77                     78
                     A                      A                      A
 Frequencies --  1214.8126              1230.3646              1235.4329
 Red. masses --     1.9370                 1.3451                 1.2108
 Frc consts  --     1.6842                 1.1997                 1.0888
 IR Inten    --    35.7868                 7.1409                15.7955
 Raman Activ --     3.5649                 1.1365                 1.4218

                    79                     80                     81
                     A                      A                      A
 Frequencies --  1250.5378              1260.3846              1270.9378
 Red. masses --     1.3996                 1.3854                 1.2612
 Frc consts  --     1.2896                 1.2967                 1.2003
 IR Inten    --    12.8143                11.2295                 9.7881
 Raman Activ --     3.0691                 4.6070                 1.9591

                    82                     83                     84
                     A                      A                      A
 Frequencies --  1274.7463              1298.7597              1306.3543
 Red. masses --     1.2591                 1.3311                 1.2977
 Frc consts  --     1.2054                 1.3229                 1.3048
 IR Inten    --     7.5647                22.4310                17.7684
 Raman Activ --     1.0457                 1.7868                 3.7685

                    85                     86                     87
                     A                      A                      A
 Frequencies --  1308.7157              1312.3005              1319.1965
 Red. masses --     1.2752                 1.3622                 1.4581
 Frc consts  --     1.2868                 1.3821                 1.4950
 IR Inten    --    20.5139                26.1645                14.7744
 Raman Activ --     2.4819                 9.0100                 2.9400

                    88                     89                     90
                     A                      A                      A
 Frequencies --  1322.8824              1330.8436              1343.2647
 Red. masses --     1.3091                 1.2648                 1.2421
 Frc consts  --     1.3498                 1.3199                 1.3204
 IR Inten    --     4.5524                 0.4935                45.6184
 Raman Activ --     6.5310                 6.8757                 2.7097

                    91                     92                     93
                     A                      A                      A
 Frequencies --  1357.9528              1360.9956              1365.2521
 Red. masses --     1.1696                 1.2950                 1.5569
 Frc consts  --     1.2708                 1.4133                 1.7098
 IR Inten    --    47.8772                 4.2656                 4.7048
 Raman Activ --     2.3659                 5.3398                 5.7863

                    94                     95                     96
                     A                      A                      A
 Frequencies --  1378.9371              1383.2324              1386.4243
 Red. masses --     1.4012                 1.1354                 1.2995
 Frc consts  --     1.5697                 1.2799                 1.4717
 IR Inten    --     9.0449                25.8341                14.7755
 Raman Activ --     3.9824                 4.6179                 4.5415

                    97                     98                     99
                     A                      A                      A
 Frequencies --  1395.2176              1410.4890              1416.5956
 Red. masses --     1.2980                 1.2860                 1.4335
 Frc consts  --     1.4887                 1.5075                 1.6949
 IR Inten    --    22.4318                 9.4470                11.6187
 Raman Activ --     2.6324                 0.9502                 3.1087

                   100                    101                    102
                     A                      A                      A
 Frequencies --  1419.8183              1420.9329              1434.6100
 Red. masses --     1.3369                 1.1548                 1.3435
 Frc consts  --     1.5878                 1.3737                 1.6291
 IR Inten    --     0.7939                66.5687                 7.6125
 Raman Activ --     7.0728                 3.9549                 2.7440

                   103                    104                    105
                     A                      A                      A
 Frequencies --  1456.0441              1460.1663              1470.9336
 Red. masses --     1.4262                 1.0869                 1.3148
 Frc consts  --     1.7815                 1.3653                 1.6761
 IR Inten    --    43.3126                 5.1120                11.4757
 Raman Activ --     1.9992                 4.8066                 0.5573

                   106                    107                    108
                     A                      A                      A
 Frequencies --  1476.7015              1513.3958              3247.5312
 Red. masses --     1.1177                 1.3633                 1.0788
 Frc consts  --     1.4361                 1.8398                 6.7035
 IR Inten    --     7.8601                68.8683                25.1114
 Raman Activ --     6.3759                 2.0525                90.7395

                   109                    110                    111
                     A                      A                      A
 Frequencies --  3267.0876              3268.3332              3279.6828
 Red. masses --     1.0823                 1.0590                 1.0833
 Frc consts  --     6.8062                 6.6647                 6.8654
 IR Inten    --    11.2726                41.1474                13.7697
 Raman Activ --    57.9185                68.0887                 5.0556

                   112                    113                    114
                     A                      A                      A
 Frequencies --  3282.4493              3283.1906              3285.2446
 Red. masses --     1.0711                 1.0829                 1.0721
 Frc consts  --     6.7996                 6.8775                 6.8171
 IR Inten    --     8.3344                 7.9920                 7.1004
 Raman Activ --    85.9728               157.3102                19.1285

                   115                    116                    117
                     A                      A                      A
 Frequencies --  3292.4859              3300.4651              3305.4093
 Red. masses --     1.0852                 1.0852                 1.0875
 Frc consts  --     6.9310                 6.9646                 7.0008
 IR Inten    --    88.5865                 5.1677                 6.9335
 Raman Activ --   110.8491                20.6768                81.7242

                   118                    119                    120
                     A                      A                      A
 Frequencies --  3312.4914              3312.8834              3317.8157
 Red. masses --     1.0868                 1.0859                 1.0887
 Frc consts  --     7.0260                 7.0216                 7.0611
 IR Inten    --     4.2011                62.9409               349.1439
 Raman Activ --    24.3461                17.0276                65.2284

                   121                    122                    123
                     A                      A                      A
 Frequencies --  3324.8286              3340.6005              3382.8166
 Red. masses --     1.0824                 1.1020                 1.0706
 Frc consts  --     7.0497                 7.2459                 7.2180
 IR Inten    --   386.1037                38.3943                17.6158
 Raman Activ --   180.2696                44.7429                79.9625

                   124                    125                    126
                     A                      A                      A
 Frequencies --  3383.0101              3392.4195              3399.7019
 Red. masses --     1.0653                 1.0671                 1.0683
 Frc consts  --     7.1832                 7.2358                 7.2751
 IR Inten    --    19.6972                47.7245                78.5531
 Raman Activ --   110.9131               158.3852               133.0012

                   127                    128                    129
                     A                      A                      A
 Frequencies --  3401.9458              3912.5681              3917.4939
 Red. masses --     1.0651                 1.0678                 1.0673
 Frc consts  --     7.2624                 9.6312                 9.6510
 IR Inten    --    48.8904                71.7683                61.0031
 Raman Activ --    49.4392                92.6362               145.7246

 - Thermochemistry -
 -------------------
 Temperature   298.150 Kelvin.  Pressure   1.00000 Atm.
 Atom     1 has atomic number  8 and mass  15.99491

 Molecular mass:   342.11621 amu.
 Principal axes and moments of inertia in atomic units:
                           1         2         3
     Eigenvalues --  4682.04256********************
           X            0.99999   0.00496  -0.00114
           Y           -0.00496   0.99999   0.00111
           Z            0.00114  -0.00110   1.00000
 This molecule is an asymmetric top.
 Rotational symmetry number  1.
 Warning -- assumption of classical behavior for rotation
           may cause significant error
 Rotational temperatures (Kelvin)      0.01850     0.00705     0.00526
 Rotational constants (GHZ):           0.38546     0.14697     0.10970
    8 imaginary frequencies ignored.
 Zero-point vibrational energy     976173.5 (Joules/Mol)
                                  233.31108 (Kcal/Mol)
 Warning -- explicit consideration of  32 degrees of freedom as
           vibrations may cause significant error
 Vibrational temperatures:     36.87    82.20   130.18   176.11   200.04
          (Kelvin)            222.65   266.93   277.46   303.24   356.20
                              368.68   392.96   404.09   428.24   452.29
                              478.39   497.41   527.39   537.21   600.83
                              606.65   635.40   642.83   669.47   688.14
                              731.14   764.74   788.47   836.60   842.22
                              859.74   890.83   924.14   936.30   978.60
                              984.53   997.33  1112.99  1144.50  1203.92
                             1261.13  1376.33  1381.75  1423.85  1425.83
                             1446.81  1452.67  1469.59  1481.13  1484.81
                             1516.81  1528.22  1546.82  1549.18  1562.09
                             1570.66  1586.22  1605.43  1615.29  1632.40
                             1640.03  1659.94  1662.75  1664.45  1673.12
                             1692.11  1729.09  1747.84  1770.22  1777.51
                             1799.24  1813.41  1828.59  1834.07  1868.62
                             1879.55  1882.95  1888.11  1898.03  1903.33
                             1914.78  1932.66  1953.79  1958.17  1964.29
                             1983.98  1990.16  1994.75  2007.40  2029.38
                             2038.16  2042.80  2044.40  2064.08  2094.92
                             2100.85  2116.34  2124.64  2177.44  4672.47
                             4700.60  4702.40  4718.73  4722.71  4723.77
                             4726.73  4737.15  4748.63  4755.74  4765.93
                             4766.49  4773.59  4783.68  4806.37  4867.11
                             4867.39  4880.93  4891.41  4894.64  5629.31
                             5636.39

 Zero-point correction=                           0.371805 (Hartree/Particle)
 Thermal correction to Energy=                    0.389727
 Thermal correction to Enthalpy=                  0.390671
 Thermal correction to Gibbs Free Energy=         0.326352
 Sum of electronic and zero-point Energies=          -1297.535072
 Sum of electronic and thermal Energies=             -1297.517149
 Sum of electronic and thermal Enthalpies=           -1297.516205
 Sum of electronic and thermal Free Energies=        -1297.580525

                     E (Thermal)             CV                S
                      KCal/Mol        Cal/Mol-Kelvin    Cal/Mol-Kelvin
 Total                  244.558             74.506            135.373
 Electronic               0.000              0.000              0.000
 Translational            0.889              2.981             43.384
 Rotational               0.889              2.981             35.202
 Vibrational            242.780             68.544             56.786
 Vibration     1          0.593              1.985              6.142
 Vibration     2          0.596              1.975              4.554
 Vibration     3          0.602              1.956              3.650
 Vibration     4          0.610              1.930              3.062
 Vibration     5          0.615              1.914              2.817
 Vibration     6          0.620              1.897              2.613
 Vibration     7          0.632              1.860              2.272
 Vibration     8          0.635              1.850              2.200
 Vibration     9          0.643              1.824              2.037
 Vibration    10          0.661              1.767              1.748
 Vibration    11          0.666              1.752              1.687
 Vibration    12          0.676              1.723              1.576
 Vibration    13          0.681              1.709              1.528
 Vibration    14          0.691              1.678              1.430
 Vibration    15          0.702              1.646              1.339
 Vibration    16          0.714              1.611              1.248
 Vibration    17          0.724              1.584              1.186
 Vibration    18          0.739              1.541              1.094
 Vibration    19          0.745              1.527              1.066
 Vibration    20          0.781              1.432              0.900
 Vibration    21          0.784              1.423              0.886
 Vibration    22          0.801              1.379              0.822
 Vibration    23          0.806              1.368              0.806
 Vibration    24          0.823              1.327              0.751
 Vibration    25          0.835              1.298              0.715
 Vibration    26          0.863              1.232              0.638
 Vibration    27          0.886              1.180              0.584
 Vibration    28          0.903              1.144              0.548
 Vibration    29          0.938              1.071              0.483
 Vibration    30          0.942              1.063              0.476
 Vibration    31          0.955              1.037              0.454
 Vibration    32          0.979              0.991              0.418

 Normal termination of Gaussian 09 at Tue Mar  1 16:20:38 2016.
