 Gaussian 09, Revision B.01,
 Gaussian 09:  EM64L-G09RevB.01 12-Aug-2010

 -------------------------------------------------
 # freq=raman b3lyp/6-31+g(2d,p) geom=connectivity
 -------------------------------------------------

 -----------------
 473 6990/6990.com
 -----------------
 Symbolic Z-matrix:
 Charge =  0 Multiplicity = 1

                         Standard orientation:
 ---------------------------------------------------------------------
 Center     Atomic      Atomic             Coordinates (Angstroms)
 Number     Number       Type             X           Y           Z
 ---------------------------------------------------------------------
      1          8           0        5.126393   -0.171737   -0.260313
      2          6           0        3.787715    0.014664    0.223136
      3          6           0        3.155053    1.237619   -0.419966
      4          8           0        4.056117    2.333981   -0.209192
      5          1           0        4.952306    1.930308   -0.394967
      6          6           0        1.728812    1.467771    0.053803
      7          8           0        1.081033    2.580366   -0.581605
      8          1           0        0.152280    2.640008   -0.216011
      9          6           0        3.209733   -2.461534    0.343063
     10          8           0        4.415651   -2.982558   -0.234615
     11          1           0        4.283572   -3.952042   -0.439919
     12          6           0        2.792366   -1.078399   -0.129864
     13          8           0        1.513915   -0.885929    0.492296
     14          6           0        0.861305    0.232679   -0.125237
     15          8           0       -0.239400    0.339866    0.788639
     16          6           0       -1.500608    0.124398    0.139135
     17          6           0       -2.035964   -1.273615    0.404298
     18          8           0       -1.059777   -2.087346   -0.262150
     19          1           0       -0.154456   -1.798068    0.048279
     20          6           0       -3.414139   -1.500980   -0.194548
     21          8           0       -3.937998   -2.795611    0.135731
     22          1           0       -4.875936   -2.802420   -0.210836
     23          6           0       -2.347432    2.590269   -0.008123
     24          8           0       -1.192375    3.268729    0.506689
     25          1           0       -1.414748    4.187554    0.830617
     26          6           0       -2.575543    1.156193    0.440314
     27          8           0       -3.771125    0.893547   -0.307893
     28          6           0       -4.374077   -0.352380    0.071285
     29          8           0       -5.513875   -0.491945   -0.789795
     30          1           0       -6.279145   -0.746337   -0.268981
     31          1           0       -4.673026   -0.334046    1.098511
     32          1           0       -3.268797   -1.512530   -1.254567
     33          1           0       -2.042121   -1.480230    1.454142
     34          1           0       -1.311506    0.183582   -0.912358
     35          1           0       -2.799734    1.141677    1.486463
     36          1           0       -3.210431    3.159751    0.267235
     37          1           0       -2.277993    2.591444   -1.075867
     38          1           0        5.697552   -0.424731    0.468640
     39          1           0        2.414142   -3.142588    0.123747
     40          1           0        3.337449   -2.425948    1.404817
     41          1           0        2.662521   -1.098865   -1.191759
     42          1           0        3.809728    0.144132    1.285047
     43          1           0        3.112757    1.058658   -1.474046
     44          1           0        1.772160    1.679391    1.101771
     45          1           0        0.561621    0.050286   -1.136089
 ---------------------------------------------------------------------

 SCF Done:  E(RB3LYP) =  -1297.98598591     A.U. after   13 cycles

 The electronic state is 1-A.
 Alpha  occ. eigenvalues --  -19.18763 -19.18645 -19.18573 -19.18501 -19.18276
 Alpha  occ. eigenvalues --  -19.17386 -19.16709 -19.16022 -19.14453 -19.13987
 Alpha  occ. eigenvalues --  -19.13005 -10.31223 -10.30392 -10.26102 -10.25366
 Alpha  occ. eigenvalues --  -10.25296 -10.24896 -10.24869 -10.24837 -10.24675
 Alpha  occ. eigenvalues --  -10.23858 -10.23735 -10.23637  -1.10812  -1.09727
 Alpha  occ. eigenvalues --   -1.05638  -1.05414  -1.04361  -1.04148  -1.03176
 Alpha  occ. eigenvalues --   -1.02404  -1.01432  -1.01107  -0.99684  -0.81910
 Alpha  occ. eigenvalues --   -0.80380  -0.79731  -0.77826  -0.71679  -0.69838
 Alpha  occ. eigenvalues --   -0.67387  -0.65549  -0.63717  -0.62176  -0.61540
 Alpha  occ. eigenvalues --   -0.60329  -0.56925  -0.56380  -0.55474  -0.54830
 Alpha  occ. eigenvalues --   -0.54264  -0.53294  -0.52999  -0.52409  -0.51305
 Alpha  occ. eigenvalues --   -0.50796  -0.49525  -0.48959  -0.48042  -0.46200
 Alpha  occ. eigenvalues --   -0.45870  -0.45242  -0.44132  -0.43805  -0.43144
 Alpha  occ. eigenvalues --   -0.42582  -0.42016  -0.41240  -0.40323  -0.40058
 Alpha  occ. eigenvalues --   -0.39260  -0.38720  -0.37538  -0.36122  -0.36012
 Alpha  occ. eigenvalues --   -0.35911  -0.35705  -0.34795  -0.33755  -0.33567
 Alpha  occ. eigenvalues --   -0.33379  -0.31742  -0.31137  -0.30480  -0.30352
 Alpha  occ. eigenvalues --   -0.29400  -0.28868  -0.28562  -0.27015  -0.26623
 Alpha  occ. eigenvalues --   -0.25923
 Alpha virt. eigenvalues --   -0.02445  -0.02092  -0.01591  -0.00090   0.00319
 Alpha virt. eigenvalues --    0.01176   0.02055   0.02385   0.02927   0.03538
 Alpha virt. eigenvalues --    0.03994   0.04418   0.04911   0.05231   0.05590

 Mulliken atomic charges:
              1
     1  O   -0.549525
     2  C   -0.076035
     3  C    0.150471
     4  O   -0.572289
     5  H    0.354118
     6  C    0.073757
     7  O   -0.580061
     8  H    0.418516
     9  C   -0.224904
    10  O   -0.532613
    11  H    0.339736
    12  C    0.337366
    13  O   -0.247473
    14  C    0.064821
    15  O   -0.214163
    16  C    0.101511
    17  C    0.167187
    18  O   -0.560712
    19  H    0.382197
    20  C    0.122991
    21  O   -0.551889
    22  H    0.328149
    23  C   -0.259258
    24  O   -0.574775
    25  H    0.363440
    26  C   -0.084622
    27  O   -0.220334
    28  C    0.052100
    29  O   -0.538315
    30  H    0.336031
    31  H    0.128005
    32  H    0.136829
    33  H    0.125678
    34  H    0.114946
    35  H    0.114564
    36  H    0.144776
    37  H    0.168985
    38  H    0.345590
    39  H    0.138146
    40  H    0.143071
    41  H    0.109586
    42  H    0.122251
    43  H    0.116523
    44  H    0.128758
    45  H    0.156871
 Sum of Mulliken atomic charges =   0.00000

 Dipole moment (field-independent basis, Debye):
    X=             -3.5774    Y=             -0.6161    Z=              3.0296  Tot=              4.7282
 Quadrupole moment (field-independent basis, Debye-Ang):
   XX=           -116.0100   YY=           -139.1016   ZZ=           -138.9616
   XY=            -17.9089   XZ=             -2.4239   YZ=              6.2279

  Exact polarizability: 234.732   1.008 193.126   0.351   0.352 143.845
 Approx polarizability: 276.038   0.959 252.687   1.022   0.708 240.941

 ******    6 imaginary frequencies (negative Signs) ******

                     1                      2                      3
                     A                      A                      A
 Frequencies --  -243.8714              -224.9522              -215.9679
 Red. masses --     1.6366                 1.2484                 1.7492
 Frc consts  --     0.0573                 0.0372                 0.0481
 IR Inten    --    22.9188               109.9730                 1.8959
 Raman Activ --     0.2318                 0.8463                 0.0384

                     4                      5                      6
                     A                      A                      A
 Frequencies --  -181.9450               -67.7741               -51.2264
 Red. masses --     1.2251                 6.7164                 6.8624
 Frc consts  --     0.0239                 0.0182                 0.0106
 IR Inten    --    73.4405                 1.1331                 0.2393
 Raman Activ --     0.5570                 0.0259                 0.0450

                     7                      8                      9
                     A                      A                      A
 Frequencies --    36.4694                40.8005                69.7531
 Red. masses --     6.5830                 6.9350                 6.1743
 Frc consts  --     0.0052                 0.0068                 0.0177
 IR Inten    --     0.3854                 0.0267                 5.4365
 Raman Activ --     0.0345                 0.0402                 0.1378

                    10                     11                     12
                     A                      A                      A
 Frequencies --    91.7946               109.6792               122.8506
 Red. masses --     6.6226                 5.6247                 5.6008
 Frc consts  --     0.0329                 0.0399                 0.0498
 IR Inten    --     0.1435                 2.8969                 5.7337
 Raman Activ --     0.2108                 0.0639                 0.0711

                    13                     14                     15
                     A                      A                      A
 Frequencies --   160.2204               181.2020               187.0015
 Red. masses --     6.7917                 7.0836                 5.3955
 Frc consts  --     0.1027                 0.1370                 0.1112
 IR Inten    --     3.6366                 0.6508                 4.9799
 Raman Activ --     0.8311                 0.5155                 0.2116

                    16                     17                     18
                     A                      A                      A
 Frequencies --   217.5942               233.4347               285.4213
 Red. masses --     6.7259                 6.6930                 4.3054
 Frc consts  --     0.1876                 0.2149                 0.2067
 IR Inten    --     1.4758                 1.4919                13.1658
 Raman Activ --     2.4257                 0.4560                 0.4702

                    19                     20                     21
                     A                      A                      A
 Frequencies --   292.3907               299.0309               300.0467
 Red. masses --     5.3585                 4.7208                 4.1226
 Frc consts  --     0.2699                 0.2487                 0.2187
 IR Inten    --     3.7726                 6.4202                 1.4926
 Raman Activ --     0.4059                 0.0362                 0.6579

                    22                     23                     24
                     A                      A                      A
 Frequencies --   315.1642               324.4218               330.5536
 Red. masses --     6.4857                 5.4861                 6.4315
 Frc consts  --     0.3796                 0.3402                 0.4140
 IR Inten    --    12.5618                 1.4845                 4.5436
 Raman Activ --     0.9303                 1.3059                 2.7158

                    25                     26                     27
                     A                      A                      A
 Frequencies --   356.1738               368.7067               372.3148
 Red. masses --     6.5766                 8.2542                 5.0050
 Frc consts  --     0.4916                 0.6611                 0.4088
 IR Inten    --    14.2984                 2.2481                 3.2295
 Raman Activ --     2.3097                 3.5120                 0.1976

                    28                     29                     30
                     A                      A                      A
 Frequencies --   415.8855               424.5461               432.6794
 Red. masses --     4.7966                 5.2428                 4.7057
 Frc consts  --     0.4888                 0.5568                 0.5190
 IR Inten    --    17.7664                 4.0151                 0.9844
 Raman Activ --     1.6691                 2.2157                 6.2588

                    31                     32                     33
                     A                      A                      A
 Frequencies --   439.6866               486.0970               506.7300
 Red. masses --     5.0032                 4.7082                 3.9815
 Frc consts  --     0.5699                 0.6555                 0.6024
 IR Inten    --     6.5595                 5.5534                12.5660
 Raman Activ --     1.0126                 1.9267                 1.6588

                    34                     35                     36
                     A                      A                      A
 Frequencies --   527.7633               534.3824               568.7348
 Red. masses --     4.0600                 3.3510                 3.3844
 Frc consts  --     0.6663                 0.5638                 0.6450
 IR Inten    --     8.2522                 1.3249                 5.2895
 Raman Activ --     1.1772                 7.9347                 1.5007

                    37                     38                     39
                     A                      A                      A
 Frequencies --   583.1505               597.5166               620.1963
 Red. masses --     2.8487                 5.4860                 4.3057
 Frc consts  --     0.5708                 1.1540                 0.9758
 IR Inten    --    48.2831                 1.9477                52.1227
 Raman Activ --     0.1586                 0.7328                 1.5907

                    40                     41                     42
                     A                      A                      A
 Frequencies --   637.8530               648.2459               685.1853
 Red. masses --     4.3634                 1.1683                 1.2945
 Frc consts  --     1.0460                 0.2893                 0.3581
 IR Inten    --    10.9540                81.4764               101.1772
 Raman Activ --     0.7562                 1.6827                 0.8328

                    43                     44                     45
                     A                      A                      A
 Frequencies --   702.5812               735.6356               790.6136
 Red. masses --     2.9662                 1.0783                 1.0750
 Frc consts  --     0.8627                 0.3438                 0.3959
 IR Inten    --    16.6822                81.2891                93.8835
 Raman Activ --     2.6449                 1.6275                 1.3534

                    46                     47                     48
                     A                      A                      A
 Frequencies --   827.1614               855.6259               864.0559
 Red. masses --     1.1302                 1.7314                 1.5347
 Frc consts  --     0.4556                 0.7468                 0.6751
 IR Inten    --   104.2617                 0.7177                18.5613
 Raman Activ --     0.6012                 1.1406                 1.8020

                    49                     50                     51
                     A                      A                      A
 Frequencies --   885.5201               931.9099               961.0188
 Red. masses --     1.1106                 5.5753                 4.7289
 Frc consts  --     0.5131                 2.8527                 2.5732
 IR Inten    --    68.4669               102.4967                33.2220
 Raman Activ --     0.3977                 3.6490                 0.6624

                    52                     53                     54
                     A                      A                      A
 Frequencies --   976.8962               980.7414               996.5273
 Red. masses --     6.0101                 4.8413                 5.7270
 Frc consts  --     3.3793                 2.7436                 3.3509
 IR Inten    --    78.9760               143.1356                69.4556
 Raman Activ --     2.8484                 0.7044                 1.1505

                    55                     56                     57
                     A                      A                      A
 Frequencies --  1004.6056              1018.3029              1028.1331
 Red. masses --     6.9042                 5.3588                 6.1091
 Frc consts  --     4.1054                 3.2740                 3.8047
 IR Inten    --   336.1482                38.7579               112.7024
 Raman Activ --     1.4840                 2.6564                 2.7819

                    58                     59                     60
                     A                      A                      A
 Frequencies --  1041.6840              1057.8060              1064.5188
 Red. masses --     5.4536                 5.0270                 4.1350
 Frc consts  --     3.4866                 3.3141                 2.7608
 IR Inten    --   244.7975                49.8799                16.5330
 Raman Activ --     2.0865                 6.8419                12.5729

                    61                     62                     63
                     A                      A                      A
 Frequencies --  1071.1485              1076.4872              1079.5686
 Red. masses --     5.6544                 3.9555                 4.1077
 Frc consts  --     3.8224                 2.7006                 2.8207
 IR Inten    --   171.7486                27.9862                52.8434
 Raman Activ --     3.5375                12.3559                 6.0678

                    64                     65                     66
                     A                      A                      A
 Frequencies --  1092.0914              1100.5037              1108.5599
 Red. masses --     3.1530                 3.0660                 3.1489
 Frc consts  --     2.2156                 2.1878                 2.2800
 IR Inten    --    59.6315                15.0265                39.7823
 Raman Activ --    13.8238                 1.3829                 2.0117

                    67                     68                     69
                     A                      A                      A
 Frequencies --  1112.3297              1128.0335              1136.4189
 Red. masses --     3.1509                 2.2984                 2.6410
 Frc consts  --     2.2970                 1.7231                 2.0096
 IR Inten    --    55.4705                40.5443                34.8762
 Raman Activ --     1.2084                 2.8912                12.6215

                    70                     71                     72
                     A                      A                      A
 Frequencies --  1140.0368              1142.4077              1155.1346
 Red. masses --     2.2616                 1.9077                 1.8955
 Frc consts  --     1.7318                 1.4669                 1.4902
 IR Inten    --    36.9828                13.0442                 3.0615
 Raman Activ --     3.5299                 0.7332                 8.8852

                    73                     74                     75
                     A                      A                      A
 Frequencies --  1167.6746              1182.4218              1198.1644
 Red. masses --     1.5329                 1.7063                 2.0747
 Frc consts  --     1.2314                 1.4056                 1.7548
 IR Inten    --    17.9589                 1.7809                 5.7589
 Raman Activ --     2.8533                 1.8275                 3.4236

                    76                     77                     78
                     A                      A                      A
 Frequencies --  1198.6203              1209.8182              1227.2356
 Red. masses --     1.3179                 1.2696                 1.2931
 Frc consts  --     1.1155                 1.0948                 1.1475
 IR Inten    --    25.7035                22.0428                 1.2390
 Raman Activ --     3.7076                 1.9732                 0.8480

                    79                     80                     81
                     A                      A                      A
 Frequencies --  1229.7916              1241.1137              1260.6729
 Red. masses --     1.3153                 1.1949                 1.3137
 Frc consts  --     1.1720                 1.0845                 1.2301
 IR Inten    --    13.3463                 8.4479                 6.0100
 Raman Activ --     0.8584                 1.8939                 2.0329

                    82                     83                     84
                     A                      A                      A
 Frequencies --  1268.3083              1273.8946              1285.2390
 Red. masses --     1.4501                 1.2108                 1.3701
 Frc consts  --     1.3744                 1.1576                 1.3335
 IR Inten    --    16.1462                 6.8578                 2.1658
 Raman Activ --     2.9850                 2.2871                 1.5124

                    85                     86                     87
                     A                      A                      A
 Frequencies --  1288.0655              1301.5132              1307.4637
 Red. masses --     1.2876                 1.3388                 1.2883
 Frc consts  --     1.2587                 1.3362                 1.2976
 IR Inten    --    11.1979                63.7847                11.0501
 Raman Activ --     2.1041                 2.3615                 4.2691

                    88                     89                     90
                     A                      A                      A
 Frequencies --  1315.0006              1320.6064              1336.7482
 Red. masses --     1.2750                 1.2906                 1.3982
 Frc consts  --     1.2990                 1.3262                 1.4720
 IR Inten    --     1.1057                10.8524                25.3256
 Raman Activ --     6.5111                10.6478                 3.4092

                    91                     92                     93
                     A                      A                      A
 Frequencies --  1343.8662              1346.1603              1351.5928
 Red. masses --     1.2415                 1.1909                 1.1566
 Frc consts  --     1.3210                 1.2715                 1.2448
 IR Inten    --    13.5895                28.7103                45.8080
 Raman Activ --     4.7739                 3.1225                 3.4464

                    94                     95                     96
                     A                      A                      A
 Frequencies --  1357.1157              1363.6022              1371.4633
 Red. masses --     1.1664                 1.3585                 1.6196
 Frc consts  --     1.2657                 1.4883                 1.7949
 IR Inten    --    31.8978                13.0667                 3.4323
 Raman Activ --     1.4082                 4.7563                 7.9440

                    97                     98                     99
                     A                      A                      A
 Frequencies --  1375.0974              1395.6453              1433.1874
 Red. masses --     1.5402                 1.4373                 1.2016
 Frc consts  --     1.7159                 1.6495                 1.4542
 IR Inten    --     3.6718                 1.6465                 1.3226
 Raman Activ --     5.6158                 4.9222                 9.7721

                   100                    101                    102
                     A                      A                      A
 Frequencies --  1438.8819              1448.5881              1455.9281
 Red. masses --     1.3941                 1.4228                 1.2857
 Frc consts  --     1.7005                 1.7590                 1.6058
 IR Inten    --    12.7277                38.5367                46.4111
 Raman Activ --     1.6421                 1.1652                 1.4412

                   103                    104                    105
                     A                      A                      A
 Frequencies --  1458.6595              1468.0284              1470.0122
 Red. masses --     1.3245                 1.0826                 1.1277
 Frc consts  --     1.6604                 1.3746                 1.4358
 IR Inten    --    16.2827                 4.2588                15.6015
 Raman Activ --     2.8775                 3.8178                 2.4223

                   106                    107                    108
                     A                      A                      A
 Frequencies --  1482.8300              1488.8384              3257.3226
 Red. masses --     1.3234                 1.3794                 1.0575
 Frc consts  --     1.7145                 1.8015                 6.6107
 IR Inten    --    28.0539                90.9604                26.0051
 Raman Activ --     2.8211                 1.6719                71.2949

                   109                    110                    111
                     A                      A                      A
 Frequencies --  3261.0008              3264.7311              3267.2431
 Red. masses --     1.0658                 1.0752                 1.0829
 Frc consts  --     6.6774                 6.7522                 6.8106
 IR Inten    --   323.7223                63.7834                 1.5884
 Raman Activ --    35.5270                87.7728                38.8743

                   112                    113                    114
                     A                      A                      A
 Frequencies --  3274.0926              3275.3976              3276.5857
 Red. masses --     1.0699                 1.0817                 1.0821
 Frc consts  --     6.7573                 6.8373                 6.8448
 IR Inten    --   314.0542                 1.0836                 5.3970
 Raman Activ --   213.4641               255.5922                77.0392

                   115                    116                    117
                     A                      A                      A
 Frequencies --  3278.7937              3283.8594              3285.9659
 Red. masses --     1.0840                 1.0855                 1.0814
 Frc consts  --     6.8659                 6.8967                 6.8797
 IR Inten    --    17.1990                 5.4987                89.5587
 Raman Activ --    23.5736                21.4533                36.7758

                   118                    119                    120
                     A                      A                      A
 Frequencies --  3295.8038              3298.1551              3304.7547
 Red. masses --     1.0870                 1.0861                 1.0835
 Frc consts  --     6.9564                 6.9608                 6.9719
 IR Inten    --    69.9984                59.7127               165.2852
 Raman Activ --    35.2021                26.1416                15.5920

                   121                    122                    123
                     A                      A                      A
 Frequencies --  3313.5815              3316.5153              3326.1706
 Red. masses --     1.0747                 1.1030                 1.1072
 Frc consts  --     6.9526                 7.1483                 7.2173
 IR Inten    --   384.1843               116.9034                36.5973
 Raman Activ --   120.0757                52.8963                33.4230

                   124                    125                    126
                     A                      A                      A
 Frequencies --  3346.9190              3367.4501              3373.7386
 Red. masses --     1.0647                 1.0652                 1.0693
 Frc consts  --     7.0268                 7.1166                 7.1709
 IR Inten    --    59.6190                29.1137                37.3807
 Raman Activ --    81.6104               120.9578               143.1300

                   127                    128                    129
                     A                      A                      A
 Frequencies --  3384.5114              3891.5158              3891.8909
 Red. masses --     1.0693                 1.0674                 1.0675
 Frc consts  --     7.2168                 9.5236                 9.5264
 IR Inten    --    69.2048                92.0865                69.8315
 Raman Activ --   157.1711                92.3954               109.0311

 - Thermochemistry -
 -------------------
 Temperature   298.150 Kelvin.  Pressure   1.00000 Atm.
 Atom     1 has atomic number  8 and mass  15.99491

 Molecular mass:   342.11621 amu.
 Principal axes and moments of inertia in atomic units:
                           1         2         3
     Eigenvalues --  4207.21529********************
           X            0.99997  -0.00777  -0.00048
           Y            0.00777   0.99997   0.00123
           Z            0.00047  -0.00124   1.00000
 This molecule is an asymmetric top.
 Rotational symmetry number  1.
 Warning -- assumption of classical behavior for rotation
           may cause significant error
 Rotational temperatures (Kelvin)      0.02059     0.00688     0.00531
 Rotational constants (GHZ):           0.42896     0.14338     0.11071
    6 imaginary frequencies ignored.
 Zero-point vibrational energy     977155.1 (Joules/Mol)
                                  233.54568 (Kcal/Mol)
 Warning -- explicit consideration of  33 degrees of freedom as
           vibrations may cause significant error
 Vibrational temperatures:     52.47    58.70   100.36   132.07   157.80
          (Kelvin)            176.75   230.52   260.71   269.05   313.07
                              335.86   410.66   420.68   430.24   431.70
                              453.45   466.77   475.59   512.45   530.49
                              535.68   598.37   610.83   622.53   632.61
                              699.38   729.07   759.33   768.86   818.28
                              839.02   859.69   892.32   917.73   932.68
                              985.83  1010.86  1058.41  1137.52  1190.10
                             1231.05  1243.18  1274.06  1340.81  1382.69
                             1405.53  1411.07  1433.78  1445.40  1465.11
                             1479.25  1498.75  1521.94  1531.60  1541.14
                             1548.82  1553.26  1571.27  1583.38  1594.97
                             1600.39  1622.99  1635.05  1640.26  1643.67
                             1661.98  1680.02  1701.24  1723.89  1724.55
                             1740.66  1765.72  1769.39  1785.68  1813.82
                             1824.81  1832.85  1849.17  1853.24  1872.58
                             1881.15  1891.99  1900.06  1923.28  1933.52
                             1936.82  1944.64  1952.58  1961.92  1973.23
                             1978.46  2008.02  2062.03  2070.23  2084.19
                             2094.75  2098.68  2112.16  2115.02  2133.46
                             2142.10  4686.55  4691.85  4697.21  4700.83
                             4710.68  4712.56  4714.27  4717.45  4724.74
                             4727.77  4741.92  4745.30  4754.80  4767.50
                             4771.72  4785.61  4815.46  4845.00  4854.05
                             4869.55  5599.02  5599.56

 Zero-point correction=                           0.372179 (Hartree/Particle)
 Thermal correction to Energy=                    0.391085
 Thermal correction to Enthalpy=                  0.392029
 Thermal correction to Gibbs Free Energy=         0.325424
 Sum of electronic and zero-point Energies=          -1297.613807
 Sum of electronic and thermal Energies=             -1297.594901
 Sum of electronic and thermal Enthalpies=           -1297.593957
 Sum of electronic and thermal Free Energies=        -1297.660562

                     E (Thermal)             CV                S
                      KCal/Mol        Cal/Mol-Kelvin    Cal/Mol-Kelvin
 Total                  245.409             77.335            140.182
 Electronic               0.000              0.000              0.000
 Translational            0.889              2.981             43.384
 Rotational               0.889              2.981             35.111
 Vibrational            243.632             71.374             61.686
 Vibration     1          0.594              1.982              5.442
 Vibration     2          0.594              1.981              5.220
 Vibration     3          0.598              1.969              4.160
 Vibration     4          0.602              1.955              3.621
 Vibration     5          0.606              1.941              3.275
 Vibration     6          0.610              1.930              3.055
 Vibration     7          0.622              1.891              2.547
 Vibration     8          0.630              1.865              2.316
 Vibration     9          0.632              1.858              2.257
 Vibration    10          0.646              1.814              1.979
 Vibration    11          0.654              1.790              1.852
 Vibration    12          0.683              1.701              1.501
 Vibration    13          0.688              1.688              1.460
 Vibration    14          0.692              1.676              1.422
 Vibration    15          0.693              1.674              1.417
 Vibration    16          0.703              1.645              1.335
 Vibration    17          0.709              1.627              1.288
 Vibration    18          0.713              1.614              1.257
 Vibration    19          0.732              1.563              1.139
 Vibration    20          0.741              1.537              1.085
 Vibration    21          0.744              1.529              1.070
 Vibration    22          0.779              1.436              0.906
 Vibration    23          0.787              1.417              0.877
 Vibration    24          0.794              1.399              0.850
 Vibration    25          0.800              1.384              0.828
 Vibration    26          0.842              1.281              0.694
 Vibration    27          0.862              1.235              0.642
 Vibration    28          0.883              1.189              0.592
 Vibration    29          0.889              1.174              0.577
 Vibration    30          0.925              1.099              0.507
 Vibration    31          0.940              1.068              0.480
 Vibration    32          0.955              1.037              0.454
 Vibration    33          0.980              0.989              0.416

 Normal termination of Gaussian 09 at Tue Mar 29 16:04:51 2016.
