 Gaussian 09, Revision B.01,
 Gaussian 09:  EM64L-G09RevB.01 12-Aug-2010

 -------------------------------------------------
 # freq=raman b3lyp/6-31+g(2d,p) geom=connectivity
 -------------------------------------------------

 -----------------
 483 7807/7807.com
 -----------------
 Symbolic Z-matrix:
 Charge =  0 Multiplicity = 1

                         Standard orientation:
 ---------------------------------------------------------------------
 Center     Atomic      Atomic             Coordinates (Angstroms)
 Number     Number       Type             X           Y           Z
 ---------------------------------------------------------------------
      1          8           0        4.963917   -0.553512   -0.410921
      2          6           0        3.705217   -0.103239    0.111967
      3          6           0        3.274286    1.288319   -0.323161
      4          8           0        4.249788    2.298702   -0.028383
      5          1           0        5.148081    1.912004   -0.235704
      6          6           0        1.884899    1.629360    0.188444
      7          8           0        1.248550    2.838985   -0.248236
      8          1           0        0.303383    3.011840    0.029307
      9          6           0        2.963663   -2.544697    0.359540
     10          8           0        4.108982   -3.264229   -0.118929
     11          1           0        3.911218   -4.244446   -0.104937
     12          6           0        2.702314   -1.181741   -0.261354
     13          8           0        1.407437   -0.784225    0.212299
     14          6           0        0.923697    0.509889   -0.176777
     15          8           0       -0.211667    0.616584    0.694645
     16          6           0       -1.443649    0.250528    0.058328
     17          6           0       -1.954251   -1.143763    0.385490
     18          8           0       -1.047622   -2.164861   -0.054132
     19          1           0       -0.134491   -1.764324    0.020502
     20          6           0       -3.278913   -1.522283   -0.257234
     21          8           0       -3.826144   -2.774401    0.182057
     22          1           0       -4.746543   -2.867782   -0.197435
     23          6           0       -2.365953    2.627601   -0.214416
     24          8           0       -1.251533    3.285896    0.403289
     25          1           0       -1.391228    4.274378    0.338038
     26          6           0       -2.594067    1.215286    0.298901
     27          8           0       -3.846609    0.840894   -0.292252
     28          6           0       -4.300278   -0.459348    0.111090
     29          8           0       -5.513800   -0.666701   -0.626709
     30          1           0       -6.226556   -0.875105   -0.018313
     31          1           0        5.525777   -0.842395    0.311893
     32          1           0        2.099447   -3.153349    0.193490
     33          1           0        3.077022   -2.409488    1.414892
     34          1           0        2.672528   -1.280444   -1.326375
     35          1           0        3.785566   -0.092731    1.178894
     36          1           0        3.197218    1.254660   -1.389851
     37          1           0        1.942639    1.669016    1.256149
     38          1           0        0.638828    0.539453   -1.207736
     39          1           0       -3.248341    3.204701   -0.032082
     40          1           0       -2.196027    2.584813   -1.269970
     41          1           0       -2.742125    1.276327    1.356848
     42          1           0       -1.251464    0.263741   -0.994188
     43          1           0       -2.060831   -1.221010    1.447362
     44          1           0       -3.160587   -1.543701   -1.320456
     45          1           0       -4.495687   -0.476676    1.162952
 ---------------------------------------------------------------------

 SCF Done:  E(RB3LYP) =  -1297.99536350     A.U. after   13 cycles

 The electronic state is 1-A.
 Alpha  occ. eigenvalues --  -19.19435 -19.18306 -19.18180 -19.18059 -19.17956
 Alpha  occ. eigenvalues --  -19.16843 -19.16360 -19.15899 -19.15474 -19.13625
 Alpha  occ. eigenvalues --  -19.12642 -10.30489 -10.30268 -10.26102 -10.25781
 Alpha  occ. eigenvalues --  -10.25568 -10.25372 -10.25276 -10.24740 -10.24573
 Alpha  occ. eigenvalues --  -10.24456 -10.24315 -10.24243  -1.10260  -1.09123
 Alpha  occ. eigenvalues --   -1.06263  -1.05254  -1.03832  -1.03536  -1.02750
 Alpha  occ. eigenvalues --   -1.02529  -1.01983  -1.00598  -0.99551  -0.82130
 Alpha  occ. eigenvalues --   -0.80377  -0.79383  -0.78557  -0.71990  -0.70009
 Alpha  occ. eigenvalues --   -0.67358  -0.65275  -0.63311  -0.63030  -0.61419
 Alpha  occ. eigenvalues --   -0.60016  -0.56637  -0.56187  -0.55295  -0.55010
 Alpha  occ. eigenvalues --   -0.54355  -0.53436  -0.53028  -0.51688  -0.51200
 Alpha  occ. eigenvalues --   -0.50666  -0.50086  -0.49800  -0.48949  -0.46563
 Alpha  occ. eigenvalues --   -0.46150  -0.45273  -0.44582  -0.43825  -0.43314
 Alpha  occ. eigenvalues --   -0.42533  -0.41701  -0.41377  -0.39940  -0.39369
 Alpha  occ. eigenvalues --   -0.38729  -0.38335  -0.37928  -0.36235  -0.35969
 Alpha  occ. eigenvalues --   -0.35522  -0.34805  -0.34641  -0.34582  -0.33211
 Alpha  occ. eigenvalues --   -0.32681  -0.31662  -0.30722  -0.30029  -0.29830
 Alpha  occ. eigenvalues --   -0.29226  -0.29004  -0.28326  -0.27321  -0.26671
 Alpha  occ. eigenvalues --   -0.26268
 Alpha virt. eigenvalues --   -0.02090  -0.01872  -0.01737  -0.00136   0.00398
 Alpha virt. eigenvalues --    0.01049   0.01843   0.02208   0.03175   0.03512
 Alpha virt. eigenvalues --    0.03785   0.04310   0.04736   0.05320   0.05547

 Mulliken atomic charges:
              1
     1  O   -0.531521
     2  C   -0.045885
     3  C    0.202153
     4  O   -0.548304
     5  H    0.341046
     6  C   -0.039599
     7  O   -0.627950
     8  H    0.451000
     9  C   -0.254834
    10  O   -0.539423
    11  H    0.341243
    12  C    0.141318
    13  O   -0.263629
    14  C    0.316265
    15  O   -0.172917
    16  C    0.205821
    17  C    0.153492
    18  O   -0.574358
    19  H    0.385836
    20  C    0.109179
    21  O   -0.548025
    22  H    0.340240
    23  C   -0.243786
    24  O   -0.572489
    25  H    0.365638
    26  C   -0.194157
    27  O   -0.246572
    28  C    0.123441
    29  O   -0.557910
    30  H    0.337651
    31  H    0.344278
    32  H    0.147239
    33  H    0.141424
    34  H    0.115006
    35  H    0.116480
    36  H    0.112030
    37  H    0.127016
    38  H    0.130074
    39  H    0.150076
    40  H    0.158452
    41  H    0.121409
    42  H    0.100110
    43  H    0.121520
    44  H    0.131779
    45  H    0.130143
 Sum of Mulliken atomic charges =   0.00000

 Dipole moment (field-independent basis, Debye):
    X=             -2.6005    Y=              0.0834    Z=              1.7477  Tot=              3.1344
 Quadrupole moment (field-independent basis, Debye-Ang):
   XX=           -120.8132   YY=           -136.7975   ZZ=           -138.9417
   XY=            -17.1048   XZ=             -0.6897   YZ=             -0.3597

  Exact polarizability: 233.909   0.925 198.282  -0.015  -0.237 143.552
 Approx polarizability: 274.800   0.013 258.520   0.283   1.212 239.232

 ******    7 imaginary frequencies (negative Signs) ******

                     1                      2                      3
                     A                      A                      A
 Frequencies --  -266.6510              -219.4338              -205.9695
 Red. masses --     1.4605                 1.3427                 1.8970
 Frc consts  --     0.0612                 0.0381                 0.0474
 IR Inten    --    54.6159                54.5997                 2.8382
 Raman Activ --     0.3447                 0.6944                 0.0581

                     4                      5                      6
                     A                      A                      A
 Frequencies --  -172.2028               -72.4444               -67.5309
 Red. masses --     1.2512                 7.2446                 6.1810
 Frc consts  --     0.0219                 0.0224                 0.0166
 IR Inten    --   113.8287                 4.3467                 1.0112
 Raman Activ --     0.7965                 0.0554                 0.0130

                     7                      8                      9
                     A                      A                      A
 Frequencies --   -48.3582                12.1109                60.6131
 Red. masses --     6.4962                 6.4934                 6.9572
 Frc consts  --     0.0090                 0.0006                 0.0151
 IR Inten    --     1.5429                 0.5063                 0.7486
 Raman Activ --     0.0454                 0.0168                 0.0264

                    10                     11                     12
                     A                      A                      A
 Frequencies --    75.7964                86.6511               120.4453
 Red. masses --     6.1608                 6.7990                 5.3737
 Frc consts  --     0.0209                 0.0301                 0.0459
 IR Inten    --     3.9562                 1.0334                 1.4497
 Raman Activ --     0.1615                 0.2644                 0.1123

                    13                     14                     15
                     A                      A                      A
 Frequencies --   166.5283               177.8589               190.0413
 Red. masses --     6.0823                 5.7745                 7.3297
 Frc consts  --     0.0994                 0.1076                 0.1560
 IR Inten    --     4.9341                 4.5438                 0.3224
 Raman Activ --     0.4624                 0.3896                 0.5551

                    16                     17                     18
                     A                      A                      A
 Frequencies --   214.6184               232.0681               254.7723
 Red. masses --     7.0897                 5.6685                 4.4548
 Frc consts  --     0.1924                 0.1799                 0.1704
 IR Inten    --     0.2253                 0.9250                25.0342
 Raman Activ --     3.0567                 0.2470                 0.1786

                    19                     20                     21
                     A                      A                      A
 Frequencies --   268.5763               289.3262               301.1695
 Red. masses --     5.0264                 5.2233                 4.3690
 Frc consts  --     0.2136                 0.2576                 0.2335
 IR Inten    --     0.5095                 1.6204                 2.2650
 Raman Activ --     0.2937                 0.0956                 0.2616

                    22                     23                     24
                     A                      A                      A
 Frequencies --   314.4605               319.4801               328.5855
 Red. masses --     5.2986                 5.5941                 6.1437
 Frc consts  --     0.3087                 0.3364                 0.3908
 IR Inten    --     9.1199                 0.9265                 0.9397
 Raman Activ --     0.2650                 3.7805                 1.7460

                    25                     26                     27
                     A                      A                      A
 Frequencies --   350.5420               357.3483               383.1321
 Red. masses --     6.1829                 4.8258                 7.2718
 Frc consts  --     0.4476                 0.3631                 0.6289
 IR Inten    --    14.7474                 4.2870                 7.1995
 Raman Activ --     3.4903                 1.4217                 1.3969

                    28                     29                     30
                     A                      A                      A
 Frequencies --   399.8224               415.4566               433.3739
 Red. masses --     3.8903                 6.4248                 4.7602
 Frc consts  --     0.3664                 0.6534                 0.5268
 IR Inten    --    20.2972                 1.9294                 0.8472
 Raman Activ --     2.0665                 5.7160                 3.3141

                    31                     32                     33
                     A                      A                      A
 Frequencies --   436.8182               473.1706               487.3088
 Red. masses --     5.2044                 4.7674                 3.6482
 Frc consts  --     0.5851                 0.6289                 0.5104
 IR Inten    --     2.7389                 5.9397                16.1559
 Raman Activ --     2.1945                 3.1459                 1.2984

                    34                     35                     36
                     A                      A                      A
 Frequencies --   510.1157               521.7930               572.4064
 Red. masses --     4.1451                 3.1326                 4.3316
 Frc consts  --     0.6355                 0.5025                 0.8362
 IR Inten    --     6.2423                 8.7093                11.1711
 Raman Activ --     3.7242                 2.4529                 1.8433

                    37                     38                     39
                     A                      A                      A
 Frequencies --   582.1958               603.3880               621.9219
 Red. masses --     2.7316                 6.3540                 5.0519
 Frc consts  --     0.5455                 1.3630                 1.1513
 IR Inten    --    32.5019                 3.1465                 8.3906
 Raman Activ --     0.2540                 0.7192                 0.3460

                    40                     41                     42
                     A                      A                      A
 Frequencies --   641.4520               684.6462               696.9594
 Red. masses --     4.3177                 1.8441                 1.8023
 Frc consts  --     1.0467                 0.5093                 0.5158
 IR Inten    --    30.3098                61.5429                56.2802
 Raman Activ --     0.7807                 0.8197                 2.4320

                    43                     44                     45
                     A                      A                      A
 Frequencies --   736.9220               743.4141               745.2856
 Red. masses --     1.0630                 1.0598                 1.0910
 Frc consts  --     0.3401                 0.3451                 0.3570
 IR Inten    --    93.4037                68.5365               143.3294
 Raman Activ --     1.7285                 1.8768                 1.5651

                    46                     47                     48
                     A                      A                      A
 Frequencies --   786.4896               828.3512               844.6785
 Red. masses --     1.0806                 1.0829                 1.7612
 Frc consts  --     0.3938                 0.4378                 0.7404
 IR Inten    --    48.7406                50.0267                 5.7681
 Raman Activ --     0.5234                 0.3792                 0.4359

                    49                     50                     51
                     A                      A                      A
 Frequencies --   872.9261               919.3224               959.1343
 Red. masses --     1.6448                 6.6489                 5.7257
 Frc consts  --     0.7384                 3.3108                 3.1034
 IR Inten    --     2.4816               107.2857                54.8890
 Raman Activ --     0.3522                 2.8744                 1.5400

                    52                     53                     54
                     A                      A                      A
 Frequencies --   965.2092               979.9273               984.6939
 Red. masses --     5.1364                 5.0659                 5.0478
 Frc consts  --     2.8194                 2.8661                 2.8837
 IR Inten    --   107.4233                22.7176                83.5029
 Raman Activ --     0.6606                 1.7697                 1.9873

                    55                     56                     57
                     A                      A                      A
 Frequencies --   991.6922              1009.3343              1025.4946
 Red. masses --     6.3605                 6.0329                 5.6947
 Frc consts  --     3.6855                 3.6212                 3.5285
 IR Inten    --   362.7896                38.8154               119.5731
 Raman Activ --     3.2142                 3.0687                 2.1726

                    58                     59                     60
                     A                      A                      A
 Frequencies --  1041.5567              1055.7359              1060.4996
 Red. masses --     7.0027                 5.0393                 4.1668
 Frc consts  --     4.4759                 3.3093                 2.7611
 IR Inten    --   390.3944                61.7288                14.0722
 Raman Activ --     2.3302                15.3087                 5.3395

                    61                     62                     63
                     A                      A                      A
 Frequencies --  1066.6399              1081.3759              1083.5470
 Red. masses --     5.4756                 4.1884                 7.0016
 Frc consts  --     3.6704                 2.8857                 4.8433
 IR Inten    --   140.8410                34.8905                61.4394
 Raman Activ --     2.1300                19.0817                 2.3811

                    64                     65                     66
                     A                      A                      A
 Frequencies --  1096.8470              1099.7434              1106.7854
 Red. masses --     2.6512                 2.2631                 2.7095
 Frc consts  --     1.8793                 1.6126                 1.9555
 IR Inten    --    38.5282                71.1990                11.8876
 Raman Activ --    10.0491                 4.0367                 2.7072

                    67                     68                     69
                     A                      A                      A
 Frequencies --  1114.1543              1130.1766              1133.4749
 Red. masses --     2.7837                 3.5001                 2.5774
 Frc consts  --     2.0359                 2.6340                 1.9510
 IR Inten    --    61.7240                18.8670                20.5867
 Raman Activ --     3.3207                 4.7144                 9.6117

                    70                     71                     72
                     A                      A                      A
 Frequencies --  1142.0048              1155.6802              1156.9573
 Red. masses --     2.7726                 1.9406                 1.7250
 Frc consts  --     2.1305                 1.5271                 1.3604
 IR Inten    --    33.8941                10.6821                 0.7851
 Raman Activ --     3.1785                 3.0836                 3.0968

                    73                     74                     75
                     A                      A                      A
 Frequencies --  1163.0952              1175.3867              1188.1029
 Red. masses --     1.7613                 1.5156                 1.8058
 Frc consts  --     1.4039                 1.2337                 1.5019
 IR Inten    --    13.6871                 4.5049                 9.1746
 Raman Activ --     4.2768                 1.9934                 2.1783

                    76                     77                     78
                     A                      A                      A
 Frequencies --  1203.9166              1208.2899              1227.0068
 Red. masses --     1.4335                 1.3599                 1.1908
 Frc consts  --     1.2242                 1.1698                 1.0563
 IR Inten    --     7.7154                 4.4606                 4.4084
 Raman Activ --     1.9480                 1.3982                 1.9344

                    79                     80                     81
                     A                      A                      A
 Frequencies --  1235.4181              1237.5910              1248.6911
 Red. masses --     1.2835                 1.2311                 1.2863
 Frc consts  --     1.1542                 1.1110                 1.1817
 IR Inten    --     8.1759                 6.4479                 9.1592
 Raman Activ --     1.5594                 0.8498                 0.5302

                    82                     83                     84
                     A                      A                      A
 Frequencies --  1273.0444              1277.8022              1284.6852
 Red. masses --     1.3227                 1.2643                 1.2428
 Frc consts  --     1.2630                 1.2163                 1.2085
 IR Inten    --    13.1033                 5.9342                11.1846
 Raman Activ --     2.1893                 2.1282                 4.6036

                    85                     86                     87
                     A                      A                      A
 Frequencies --  1285.7142              1294.1180              1298.4711
 Red. masses --     1.3068                 1.2116                 1.2579
 Frc consts  --     1.2728                 1.1956                 1.2496
 IR Inten    --    30.8446                21.9351                29.2209
 Raman Activ --     1.9629                 3.8363                 4.3444

                    88                     89                     90
                     A                      A                      A
 Frequencies --  1308.9163              1318.2745              1323.6245
 Red. masses --     1.2846                 1.2876                 1.3114
 Frc consts  --     1.2967                 1.3184                 1.3537
 IR Inten    --    13.9571                 0.1598                33.4160
 Raman Activ --     9.0354                 5.6191                 4.4736

                    91                     92                     93
                     A                      A                      A
 Frequencies --  1334.1536              1341.2191              1343.1318
 Red. masses --     1.2336                 1.3406                 1.1749
 Frc consts  --     1.2937                 1.4208                 1.2488
 IR Inten    --    35.2057                19.1998                41.3825
 Raman Activ --     5.0561                 0.2394                 1.9152

                    94                     95                     96
                     A                      A                      A
 Frequencies --  1352.2766              1366.4493              1373.6276
 Red. masses --     1.2043                 1.5304                 1.6198
 Frc consts  --     1.2976                 1.6836                 1.8007
 IR Inten    --    48.1935                 3.9505                11.5603
 Raman Activ --     3.2555                 5.7185                 7.9934

                    97                     98                     99
                     A                      A                      A
 Frequencies --  1375.0532              1389.6658              1408.1233
 Red. masses --     1.5190                 1.3159                 1.4073
 Frc consts  --     1.6922                 1.4973                 1.6441
 IR Inten    --    18.5734                 0.5635                15.7470
 Raman Activ --     4.0925                 4.2492                 3.3597

                   100                    101                    102
                     A                      A                      A
 Frequencies --  1423.5026              1430.9156              1445.1016
 Red. masses --     1.2758                 1.5097                 1.4768
 Frc consts  --     1.5232                 1.8213                 1.8170
 IR Inten    --     6.0671                32.4148                42.4687
 Raman Activ --     8.1350                 0.6200                 1.8597

                   103                    104                    105
                     A                      A                      A
 Frequencies --  1457.5983              1468.9159              1477.2593
 Red. masses --     1.2963                 1.1313                 1.0740
 Frc consts  --     1.6227                 1.4382                 1.3809
 IR Inten    --    19.7012                 8.5752                 5.2287
 Raman Activ --     3.4030                 2.1922                 5.1843

                   106                    107                    108
                     A                      A                      A
 Frequencies --  1484.5764              1542.2474              3197.3594
 Red. masses --     1.3090                 1.2050                 1.0723
 Frc consts  --     1.6998                 1.6887                 6.4590
 IR Inten    --    28.2119                41.8912              1251.2683
 Raman Activ --     0.8545                 1.2193               206.4826

                   109                    110                    111
                     A                      A                      A
 Frequencies --  3257.5709              3259.8506              3261.1679
 Red. masses --     1.0650                 1.0724                 1.0806
 Frc consts  --     6.6584                 6.7142                 6.7714
 IR Inten    --    17.5933                20.6596                10.2390
 Raman Activ --     8.1786               215.0041                68.6414

                   112                    113                    114
                     A                      A                      A
 Frequencies --  3264.7438              3267.9647              3272.6263
 Red. masses --     1.0637                 1.0750                 1.0824
 Frc consts  --     6.6797                 6.7643                 6.8305
 IR Inten    --    19.0307               133.5370                18.8349
 Raman Activ --    77.6367                77.7495                33.1165

                   115                    116                    117
                     A                      A                      A
 Frequencies --  3279.1221              3281.3857              3283.5998
 Red. masses --     1.0789                 1.0839                 1.0845
 Frc consts  --     6.8352                 6.8762                 6.8892
 IR Inten    --   235.0568                25.3725                22.9412
 Raman Activ --    35.9695                76.7558               201.9005

                   118                    119                    120
                     A                      A                      A
 Frequencies --  3288.0731              3290.3984              3300.2667
 Red. masses --     1.0773                 1.0862                 1.0867
 Frc consts  --     6.8625                 6.9290                 6.9735
 IR Inten    --   341.1717                36.8803                11.3452
 Raman Activ --    61.7568                12.1446                13.8627

                   121                    122                    123
                     A                      A                      A
 Frequencies --  3303.1937              3316.7950              3325.8164
 Red. masses --     1.0854                 1.1055                 1.1080
 Frc consts  --     6.9779                 7.1652                 7.2209
 IR Inten    --   131.0580                48.9173                38.5225
 Raman Activ --    34.8270                28.7915                43.0091

                   124                    125                    126
                     A                      A                      A
 Frequencies --  3366.9636              3368.6368              3369.3255
 Red. masses --     1.0655                 1.0674                 1.0688
 Frc consts  --     7.1171                 7.1364                 7.1489
 IR Inten    --    48.3724                56.5941                35.7087
 Raman Activ --   109.0523               149.1024               135.8834

                   127                    128                    129
                     A                      A                      A
 Frequencies --  3370.5787              3890.0875              3891.1435
 Red. masses --     1.0658                 1.0676                 1.0675
 Frc consts  --     7.1343                 9.5190                 9.5226
 IR Inten    --    43.7909                84.3298                70.6830
 Raman Activ --   133.0110                74.8860               116.7042

 - Thermochemistry -
 -------------------
 Temperature   298.150 Kelvin.  Pressure   1.00000 Atm.
 Atom     1 has atomic number  8 and mass  15.99491

 Molecular mass:   342.11621 amu.
 Principal axes and moments of inertia in atomic units:
                           1         2         3
     Eigenvalues --  4465.50809********************
           X            0.99997  -0.00811   0.00001
           Y            0.00811   0.99996  -0.00269
           Z            0.00002   0.00269   1.00000
 This molecule is an asymmetric top.
 Rotational symmetry number  1.
 Warning -- assumption of classical behavior for rotation
           may cause significant error
 Rotational temperatures (Kelvin)      0.01940     0.00710     0.00531
 Rotational constants (GHZ):           0.40415     0.14786     0.11074
    7 imaginary frequencies ignored.
 Zero-point vibrational energy     973614.6 (Joules/Mol)
                                  232.69946 (Kcal/Mol)
 Warning -- explicit consideration of  31 degrees of freedom as
           vibrations may cause significant error
 Vibrational temperatures:     17.42    87.21   109.05   124.67   173.29
          (Kelvin)            239.60   255.90   273.43   308.79   333.89
                              366.56   386.42   416.28   433.32   452.44
                              459.66   472.76   504.35   514.14   551.24
                              575.25   597.75   623.53   628.48   680.79
                              701.13   733.94   750.74   823.56   837.65
                              868.14   894.81   922.91   985.05  1002.77
                             1060.27  1069.61  1072.30  1131.58  1191.81
                             1215.30  1255.94  1322.70  1379.98  1388.72
                             1409.90  1416.75  1426.82  1452.21  1475.46
                             1498.57  1518.97  1525.82  1534.66  1555.86
                             1558.98  1578.12  1582.28  1592.42  1603.02
                             1626.07  1630.82  1643.09  1662.76  1664.60
                             1673.43  1691.12  1709.41  1732.17  1738.46
                             1765.39  1777.49  1780.62  1796.59  1831.62
                             1838.47  1848.37  1849.85  1861.94  1868.21
                             1883.24  1896.70  1904.40  1919.55  1929.71
                             1932.46  1945.62  1966.01  1976.34  1978.39
                             1999.42  2025.97  2048.10  2058.77  2079.18
                             2097.16  2113.44  2125.44  2135.97  2218.95
                             4600.28  4686.91  4690.19  4692.09  4697.23
                             4701.87  4708.57  4717.92  4721.18  4724.36
                             4730.80  4734.14  4748.34  4752.55  4772.12
                             4785.10  4844.30  4846.71  4847.70  4849.50
                             5596.96  5598.48

 Zero-point correction=                           0.370830 (Hartree/Particle)
 Thermal correction to Energy=                    0.389210
 Thermal correction to Enthalpy=                  0.390154
 Thermal correction to Gibbs Free Energy=         0.324102
 Sum of electronic and zero-point Energies=          -1297.624533
 Sum of electronic and thermal Energies=             -1297.606153
 Sum of electronic and thermal Enthalpies=           -1297.605209
 Sum of electronic and thermal Free Energies=        -1297.671262

                     E (Thermal)             CV                S
                      KCal/Mol        Cal/Mol-Kelvin    Cal/Mol-Kelvin
 Total                  244.233             75.872            139.019
 Electronic               0.000              0.000              0.000
 Translational            0.889              2.981             43.384
 Rotational               0.889              2.981             35.139
 Vibrational            242.456             69.910             60.495
 Vibration     1          0.593              1.987              7.631
 Vibration     2          0.597              1.973              4.437
 Vibration     3          0.599              1.965              3.997
 Vibration     4          0.601              1.959              3.734
 Vibration     5          0.609              1.932              3.093
 Vibration     6          0.624              1.884              2.474
 Vibration     7          0.628              1.870              2.351
 Vibration     8          0.633              1.854              2.227
 Vibration     9          0.645              1.819              2.004
 Vibration    10          0.653              1.792              1.863
 Vibration    11          0.665              1.755              1.697
 Vibration    12          0.673              1.731              1.605
 Vibration    13          0.686              1.694              1.478
 Vibration    14          0.693              1.671              1.410
 Vibration    15          0.702              1.646              1.339
 Vibration    16          0.705              1.636              1.313
 Vibration    17          0.712              1.618              1.267
 Vibration    18          0.727              1.574              1.164
 Vibration    19          0.733              1.560              1.134
 Vibration    20          0.752              1.506              1.027
 Vibration    21          0.766              1.470              0.963
 Vibration    22          0.779              1.437              0.908
 Vibration    23          0.794              1.398              0.848
 Vibration    24          0.797              1.390              0.837
 Vibration    25          0.830              1.310              0.729
 Vibration    26          0.843              1.278              0.691
 Vibration    27          0.865              1.228              0.633
 Vibration    28          0.877              1.202              0.606
 Vibration    29          0.929              1.091              0.500
 Vibration    30          0.939              1.070              0.481
 Vibration    31          0.962              1.025              0.444

 Normal termination of Gaussian 09 at Thu Mar 31 03:00:34 2016.
