 Gaussian 09, Revision B.01,
 Gaussian 09:  EM64L-G09RevB.01 12-Aug-2010

 -------------------------------------------------
 # freq=raman b3lyp/6-31+g(2d,p) geom=connectivity
 -------------------------------------------------

 -----------------
 493 5796/5796.com
 -----------------
 Symbolic Z-matrix:
 Charge =  0 Multiplicity = 1

                         Standard orientation:
 ---------------------------------------------------------------------
 Center     Atomic      Atomic             Coordinates (Angstroms)
 Number     Number       Type             X           Y           Z
 ---------------------------------------------------------------------
      1          8           0        4.979387   -0.448814   -0.521688
      2          6           0        3.763938   -0.118963    0.166806
      3          6           0        3.270525    1.228520   -0.331638
      4          8           0        4.240846    2.236741   -0.013585
      5          1           0        5.153372    1.854570   -0.165092
      6          6           0        1.851051    1.486318    0.147264
      7          8           0        1.395529    2.569032   -0.676341
      8          1           0        0.579905    2.921254   -0.217381
      9          6           0        3.092300   -2.489613    0.547494
     10          8           0        4.032189   -3.186517   -0.283086
     11          1           0        3.978005   -4.172237   -0.124692
     12          6           0        2.678339   -1.158221   -0.058605
     13          8           0        1.403342   -0.850791    0.525719
     14          6           0        0.907945    0.326272   -0.129284
     15          8           0       -0.287578    0.597323    0.616441
     16          6           0       -1.524294    0.248604   -0.023372
     17          6           0       -2.037006   -1.150866    0.276362
     18          8           0       -1.003631   -2.110045    0.011837
     19          1           0       -0.162009   -1.720992    0.387031
     20          6           0       -3.364701   -1.454899   -0.397917
     21          8           0       -3.928977   -2.723326   -0.034725
     22          1           0       -4.925766   -2.693967   -0.111612
     23          6           0       -2.314511    2.648906    0.059280
     24          8           0       -1.173704    3.459543    0.377506
     25          1           0       -1.281980    4.413543    0.097573
     26          6           0       -2.646125    1.197899    0.366842
     27          8           0       -3.868801    0.925058   -0.332118
     28          6           0       -4.345011   -0.377143    0.035500
     29          8           0       -5.638257   -0.608832   -0.540837
     30          1           0       -6.285169   -0.721450    0.159464
     31          1           0       -4.438355   -0.414308    1.100773
     32          1           0       -3.239986   -1.413975   -1.459836
     33          1           0       -2.220353   -1.187201    1.329910
     34          1           0       -1.378892    0.326162   -1.080606
     35          1           0       -2.823812    1.102552    1.417669
     36          1           0       -1.532849    2.134386   -0.459539
     37          1           0       -2.347401    2.657204    1.128743
     38          1           0        5.669786   -0.634522    0.118985
     39          1           0        3.537599   -2.312925    1.504254
     40          1           0        2.222267   -3.099165    0.675516
     41          1           0        2.547077   -1.288923   -1.112449
     42          1           0        3.966196   -0.049367    1.215208
     43          1           0        3.228065    1.168552   -1.399112
     44          1           0        1.835965    1.758978    1.181831
     45          1           0        0.720879    0.175973   -1.172029
 ---------------------------------------------------------------------

 SCF Done:  E(RB3LYP) =  -1297.69035085     A.U. after   17 cycles

 The electronic state is 1-A.
 Alpha  occ. eigenvalues --  -19.20364 -19.19828 -19.19795 -19.19405 -19.19212
 Alpha  occ. eigenvalues --  -19.17667 -19.16404 -19.16272 -19.15574 -19.15214
 Alpha  occ. eigenvalues --  -19.14588 -10.32186 -10.31883 -10.31585 -10.26920
 Alpha  occ. eigenvalues --  -10.25840 -10.25585 -10.25579 -10.25397 -10.25146
 Alpha  occ. eigenvalues --  -10.24516 -10.24516 -10.18421  -1.11984  -1.10312
 Alpha  occ. eigenvalues --   -1.07252  -1.06262  -1.05398  -1.04977  -1.03307
 Alpha  occ. eigenvalues --   -1.02987  -1.02775  -1.01457  -1.01236  -0.85538
 Alpha  occ. eigenvalues --   -0.81486  -0.81021  -0.79164  -0.73662  -0.70926
 Alpha  occ. eigenvalues --   -0.68296  -0.66151  -0.64696  -0.63446  -0.62964
 Alpha  occ. eigenvalues --   -0.61636  -0.57882  -0.56958  -0.56294  -0.55698
 Alpha  occ. eigenvalues --   -0.55107  -0.54628  -0.53784  -0.52772  -0.52404
 Alpha  occ. eigenvalues --   -0.51206  -0.50597  -0.50207  -0.49269  -0.47850
 Alpha  occ. eigenvalues --   -0.46890  -0.45355  -0.44956  -0.44528  -0.43774
 Alpha  occ. eigenvalues --   -0.43401  -0.42643  -0.41916  -0.41389  -0.40917
 Alpha  occ. eigenvalues --   -0.40590  -0.38639  -0.37485  -0.36798  -0.36166
 Alpha  occ. eigenvalues --   -0.35744  -0.35649  -0.35239  -0.34755  -0.34348
 Alpha  occ. eigenvalues --   -0.32980  -0.32396  -0.31049  -0.30103  -0.29528
 Alpha  occ. eigenvalues --   -0.29110  -0.28823  -0.28770  -0.27373  -0.26712
 Alpha  occ. eigenvalues --   -0.19693
 Alpha virt. eigenvalues --   -0.09982  -0.02609  -0.02248  -0.00517  -0.00243
 Alpha virt. eigenvalues --    0.00715   0.01348   0.01709   0.02078   0.03141
 Alpha virt. eigenvalues --    0.03430   0.03703   0.04215   0.04260   0.05020

 Mulliken atomic charges:
              1
     1  O   -0.531397
     2  C   -0.183401
     3  C    0.210896
     4  O   -0.572962
     5  H    0.343053
     6  C    0.110094
     7  O   -0.543608
     8  H    0.379601
     9  C   -0.149826
    10  O   -0.526211
    11  H    0.341386
    12  C    0.180057
    13  O   -0.264352
    14  C    0.009880
    15  O   -0.236734
    16  C    0.117518
    17  C    0.216333
    18  O   -0.572805
    19  H    0.387804
    20  C    0.072522
    21  O   -0.537448
    22  H    0.342074
    23  C   -1.081216
    24  O   -0.585387
    25  H    0.389047
    26  C    0.291942
    27  O   -0.137415
    28  C    0.231807
    29  O   -0.562565
    30  H    0.344360
    31  H    0.124661
    32  H    0.130911
    33  H    0.114121
    34  H    0.127369
    35  H    0.125515
    36  H    0.286116
    37  H    0.314608
    38  H    0.342483
    39  H    0.132569
    40  H    0.144298
    41  H    0.126766
    42  H    0.122995
    43  H    0.128267
    44  H    0.141374
    45  H    0.154900
 Sum of Mulliken atomic charges =   0.00000

 Dipole moment (field-independent basis, Debye):
    X=              0.2304    Y=             -1.5471    Z=              4.5830  Tot=              4.8425
 Quadrupole moment (field-independent basis, Debye-Ang):
   XX=           -120.7725   YY=           -145.9637   ZZ=           -139.2099
   XY=             -6.1823   XZ=             -3.8809   YZ=              1.4061

  Exact polarizability: 244.046   6.702 210.959  -0.497  -0.800 145.956
 Approx polarizability: 291.145  12.701 281.459  -3.392  -0.452 248.725

 ******    9 imaginary frequencies (negative Signs) ******

                     1                      2                      3
                     A                      A                      A
 Frequencies -- -2393.7799              -942.2498              -602.6951
 Red. masses --     1.0837                 1.2670                 2.7693
 Frc consts  --     3.6587                 0.6627                 0.5927
 IR Inten    --   488.4026                10.1856                29.2137
 Raman Activ --   401.6740                 4.3969                 2.4108

                     4                      5                      6
                     A                      A                      A
 Frequencies --  -231.8848              -169.7527              -154.3938
 Red. masses --     1.6956                 1.4756                 4.9948
 Frc consts  --     0.0537                 0.0251                 0.0702
 IR Inten    --    35.3486                52.9471                 7.0980
 Raman Activ --     0.1739                 0.3475                 0.1300

                     7                      8                      9
                     A                      A                      A
 Frequencies --  -136.3318               -99.2893               -57.9559
 Red. masses --     3.4438                 1.8654                 2.7762
 Frc consts  --     0.0377                 0.0108                 0.0055
 IR Inten    --   110.7652                58.8785                41.8900
 Raman Activ --    19.9026                 0.5242                 0.5115

                    10                     11                     12
                     A                      A                      A
 Frequencies --    19.1507                34.2625                57.8715
 Red. masses --     5.7909                 6.3435                 6.4321
 Frc consts  --     0.0013                 0.0044                 0.0127
 IR Inten    --     1.4156                26.4466                 0.7292
 Raman Activ --     0.2491                 1.5307                 0.2371

                    13                     14                     15
                     A                      A                      A
 Frequencies --    92.3333               100.9673               126.4301
 Red. masses --     6.4399                 6.5972                 5.2167
 Frc consts  --     0.0323                 0.0396                 0.0491
 IR Inten    --     1.9781                 1.5336                 6.6886
 Raman Activ --     0.2340                 0.5026                 0.1207

                    16                     17                     18
                     A                      A                      A
 Frequencies --   152.9764               182.8893               195.0497
 Red. masses --     5.2763                 5.8841                 6.2388
 Frc consts  --     0.0727                 0.1160                 0.1398
 IR Inten    --    32.0274                 1.2274                 4.9458
 Raman Activ --     4.0304                 0.7470                 1.5986

                    19                     20                     21
                     A                      A                      A
 Frequencies --   206.1628               269.8265               284.7034
 Red. masses --     5.7266                 4.9662                 4.0554
 Frc consts  --     0.1434                 0.2130                 0.1937
 IR Inten    --    17.7653                18.2217                54.3776
 Raman Activ --     2.2516                 0.8923                10.3723

                    22                     23                     24
                     A                      A                      A
 Frequencies --   291.6743               303.1426               311.0984
 Red. masses --     3.3267                 4.5153                 4.2127
 Frc consts  --     0.1667                 0.2445                 0.2402
 IR Inten    --    93.7797                21.8288                30.7797
 Raman Activ --    15.3400                 3.7449                 4.4624

                    25                     26                     27
                     A                      A                      A
 Frequencies --   319.8237               324.3670               329.7549
 Red. masses --     6.2621                 5.2906                 4.9565
 Frc consts  --     0.3774                 0.3280                 0.3175
 IR Inten    --    22.0718                 6.7742                 1.5935
 Raman Activ --     1.0582                 2.4177                 6.1136

                    28                     29                     30
                     A                      A                      A
 Frequencies --   342.6407               366.6012               385.1028
 Red. masses --     5.8255                 5.0727                 6.6748
 Frc consts  --     0.4030                 0.4017                 0.5832
 IR Inten    --    48.1971                 0.1053                 5.4876
 Raman Activ --     4.2678                 1.3960                 3.9920

                    31                     32                     33
                     A                      A                      A
 Frequencies --   398.6999               419.3136               435.9228
 Red. masses --     5.7254                 4.9609                 6.2827
 Frc consts  --     0.5362                 0.5139                 0.7034
 IR Inten    --    33.5099                17.7062                 1.2908
 Raman Activ --     8.3123                 0.7066                 5.7678

                    34                     35                     36
                     A                      A                      A
 Frequencies --   449.8973               482.7784               488.3734
 Red. masses --     5.3633                 4.7727                 4.5493
 Frc consts  --     0.6396                 0.6554                 0.6393
 IR Inten    --    10.7227                 0.4904                 8.4365
 Raman Activ --     7.2468                 3.5106                 0.9985

                    37                     38                     39
                     A                      A                      A
 Frequencies --   513.0038               537.4917               559.7054
 Red. masses --     2.9276                 3.0203                 3.6148
 Frc consts  --     0.4539                 0.5141                 0.6672
 IR Inten    --    59.1332                27.7332                18.4319
 Raman Activ --     2.6256                 2.6322                 0.7968

                    40                     41                     42
                     A                      A                      A
 Frequencies --   578.0279               584.4378               600.7146
 Red. masses --     2.8043                 1.6967                 3.5659
 Frc consts  --     0.5520                 0.3415                 0.7582
 IR Inten    --    12.2149                75.5250                 9.8748
 Raman Activ --     1.7208                 2.8220                 1.3752

                    43                     44                     45
                     A                      A                      A
 Frequencies --   611.5856               636.3559               679.7031
 Red. masses --     2.8934                 4.3316                 2.9852
 Frc consts  --     0.6376                 1.0335                 0.8126
 IR Inten    --    51.1843                 6.6229                43.4710
 Raman Activ --     0.4468                 0.2986                 1.6203

                    46                     47                     48
                     A                      A                      A
 Frequencies --   698.4150               716.4149               736.7427
 Red. masses --     1.2720                 1.0650                 1.0541
 Frc consts  --     0.3656                 0.3221                 0.3371
 IR Inten    --   100.5609                72.6042                84.8890
 Raman Activ --     2.4858                 2.3486                 1.6371

                    49                     50                     51
                     A                      A                      A
 Frequencies --   818.6082               842.7867               870.8437
 Red. masses --     6.8913                 1.1132                 1.6662
 Frc consts  --     2.7208                 0.4659                 0.7445
 IR Inten    --   338.5065               158.3236                 7.9712
 Raman Activ --     2.9223                 2.2594                 0.5445

                    52                     53                     54
                     A                      A                      A
 Frequencies --   880.9044               929.5431               942.0122
 Red. masses --     1.1691                 4.6646                 2.1901
 Frc consts  --     0.5345                 2.3747                 1.1451
 IR Inten    --    15.1992                18.1627                86.2305
 Raman Activ --     1.5742                 4.9300                12.9964

                    55                     56                     57
                     A                      A                      A
 Frequencies --   955.4715               964.3557               984.3577
 Red. masses --     3.1723                 3.4291                 4.6485
 Frc consts  --     1.7063                 1.8789                 2.6538
 IR Inten    --    83.3971                88.0047                28.2255
 Raman Activ --     1.9819                 4.6696                11.0702

                    58                     59                     60
                     A                      A                      A
 Frequencies --   988.6120               997.5127              1008.6349
 Red. masses --     6.1413                 5.6452                 7.2148
 Frc consts  --     3.5364                 3.3096                 4.3246
 IR Inten    --   531.3397               139.6987               105.5100
 Raman Activ --     4.3111                 3.0785                 0.8599

                    61                     62                     63
                     A                      A                      A
 Frequencies --  1016.6460              1042.7446              1058.0775
 Red. masses --     5.6965                 5.2434                 5.3620
 Frc consts  --     3.4689                 3.3591                 3.5368
 IR Inten    --    98.9983               141.8374                83.7391
 Raman Activ --     4.1434                 3.3004                 4.8910

                    64                     65                     66
                     A                      A                      A
 Frequencies --  1063.9689              1069.2574              1086.7268
 Red. masses --     3.5469                 4.8622                 2.9276
 Frc consts  --     2.3657                 3.2753                 2.0371
 IR Inten    --    11.9197                43.9663                16.1371
 Raman Activ --    19.2097                 6.1420                 6.2405

                    67                     68                     69
                     A                      A                      A
 Frequencies --  1093.9083              1096.7692              1103.5216
 Red. masses --     2.9135                 3.0360                 2.1758
 Frc consts  --     2.0541                 2.1517                 1.5611
 IR Inten    --    33.7029                 7.8286                39.4259
 Raman Activ --     5.5952                 7.8475                 3.5374

                    70                     71                     72
                     A                      A                      A
 Frequencies --  1124.8137              1133.1548              1136.6127
 Red. masses --     2.8009                 2.6448                 2.5065
 Frc consts  --     2.0879                 2.0009                 1.9078
 IR Inten    --     9.3491                14.3643                32.1844
 Raman Activ --    12.3925                 6.4038                 2.6998

                    73                     74                     75
                     A                      A                      A
 Frequencies --  1145.0052              1147.8572              1152.2850
 Red. masses --     1.7563                 2.9012                 1.9286
 Frc consts  --     1.3566                 2.2521                 1.5088
 IR Inten    --     3.6476                46.0450                16.5180
 Raman Activ --     4.5566                 4.4408                 2.4906

                    76                     77                     78
                     A                      A                      A
 Frequencies --  1157.9455              1168.4986              1197.6684
 Red. masses --     1.6039                 1.8636                 1.2159
 Frc consts  --     1.2671                 1.4992                 1.0276
 IR Inten    --     2.8643                 4.4781                13.2960
 Raman Activ --     1.8924                 1.9918                 1.9830

                    79                     80                     81
                     A                      A                      A
 Frequencies --  1213.4768              1218.5963              1242.0589
 Red. masses --     1.3707                 1.3632                 1.1931
 Frc consts  --     1.1892                 1.1927                 1.0844
 IR Inten    --     5.1131                 2.4068                 8.8513
 Raman Activ --     0.5949                 1.9087                 0.9477

                    82                     83                     84
                     A                      A                      A
 Frequencies --  1257.3881              1264.0792              1272.8752
 Red. masses --     1.2330                 1.2245                 1.2844
 Frc consts  --     1.1485                 1.1528                 1.2261
 IR Inten    --    14.6285                11.8271                 4.4359
 Raman Activ --     2.3356                 1.4780                 2.0207

                    85                     86                     87
                     A                      A                      A
 Frequencies --  1280.3672              1290.5560              1296.0943
 Red. masses --     1.3155                 1.3878                 1.2666
 Frc consts  --     1.2706                 1.3619                 1.2536
 IR Inten    --    56.7614                12.3316                32.0510
 Raman Activ --     4.4412                 2.3801                 5.6775

                    88                     89                     90
                     A                      A                      A
 Frequencies --  1305.9770              1306.9360              1321.2027
 Red. masses --     1.2757                 1.2220                 1.3348
 Frc consts  --     1.2819                 1.2298                 1.3728
 IR Inten    --     6.1774                 6.9145                 7.2741
 Raman Activ --     3.4263                 1.2181                 7.9687

                    91                     92                     93
                     A                      A                      A
 Frequencies --  1329.5966              1333.5559              1334.2966
 Red. masses --     1.1854                 1.2903                 1.3773
 Frc consts  --     1.2347                 1.3520                 1.4447
 IR Inten    --    89.9749                52.2250                12.2593
 Raman Activ --    21.4478                 6.2110                 7.2908

                    94                     95                     96
                     A                      A                      A
 Frequencies --  1344.7061              1347.8087              1361.4119
 Red. masses --     1.1978                 1.2549                 1.6523
 Frc consts  --     1.2761                 1.3431                 1.8044
 IR Inten    --    41.2701                45.9658                17.5166
 Raman Activ --     3.6278                 2.7888                 6.7079

                    97                     98                     99
                     A                      A                      A
 Frequencies --  1382.4634              1389.1595              1394.8994
 Red. masses --     1.3309                 1.4119                 1.2787
 Frc consts  --     1.4987                 1.6053                 1.4660
 IR Inten    --     6.2596                 1.6824                 0.0984
 Raman Activ --    11.7270                 6.2446                 1.6928

                   100                    101                    102
                     A                      A                      A
 Frequencies --  1416.1876              1420.0303              1431.7579
 Red. masses --     1.3951                 1.5079                 1.4730
 Frc consts  --     1.6486                 1.7915                 1.7791
 IR Inten    --    25.1456                38.0046                36.7193
 Raman Activ --     7.6906                 3.4128                 0.5543

                   103                    104                    105
                     A                      A                      A
 Frequencies --  1451.1680              1477.3831              1497.9649
 Red. masses --     1.3862                 1.0967                 1.2701
 Frc consts  --     1.7200                 1.4103                 1.6792
 IR Inten    --    19.2158                 9.6567                28.2337
 Raman Activ --     2.2349                 3.2931                 2.4992

                   106                    107                    108
                     A                      A                      A
 Frequencies --  1511.7303              1521.7314              3189.5403
 Red. masses --     1.2455                 1.3972                 1.0379
 Frc consts  --     1.6770                 1.9063                 6.2211
 IR Inten    --    55.6793                58.4357                22.7034
 Raman Activ --     2.4765                10.9850               147.9731

                   109                    110                    111
                     A                      A                      A
 Frequencies --  3223.3868              3254.9329              3259.4333
 Red. masses --     1.0832                 1.0571                 1.0802
 Frc consts  --     6.6309                 6.5983                 6.7617
 IR Inten    --    36.3523                27.3419                56.8784
 Raman Activ --    37.4046                70.7199                74.3772

                   112                    113                    114
                     A                      A                      A
 Frequencies --  3273.7017              3274.3158              3278.0899
 Red. masses --     1.0829                 1.0822                 1.0791
 Frc consts  --     6.8380                 6.8358                 6.8321
 IR Inten    --    36.6352                 4.9024                64.4632
 Raman Activ --   110.0533               184.2939                74.8863

                   115                    116                    117
                     A                      A                      A
 Frequencies --  3282.0797              3284.5762              3290.3681
 Red. masses --     1.0825                 1.0750                 1.0750
 Frc consts  --     6.8701                 6.8332                 6.8573
 IR Inten    --    11.8430                58.4101               554.1684
 Raman Activ --    64.4449               170.7104                54.9367

                   118                    119                    120
                     A                      A                      A
 Frequencies --  3294.1946              3297.7962              3302.1544
 Red. masses --     1.0803                 1.0862                 1.0859
 Frc consts  --     6.9072                 6.9603                 6.9762
 IR Inten    --   289.9039                63.9445                22.9712
 Raman Activ --    12.9035                 4.8678                78.3083

                   121                    122                    123
                     A                      A                      A
 Frequencies --  3312.4465              3317.1012              3326.6388
 Red. masses --     1.0876                 1.1062                 1.0697
 Frc consts  --     7.0310                 7.1712                 6.9749
 IR Inten    --    39.2995                55.3414               172.0530
 Raman Activ --    19.3850                34.0578               135.4868

                   124                    125                    126
                     A                      A                      A
 Frequencies --  3355.0360              3362.7574              3370.8595
 Red. masses --     1.0655                 1.0656                 1.0683
 Frc consts  --     7.0663                 7.0994                 7.1520
 IR Inten    --    45.6568                50.5925                41.8782
 Raman Activ --   104.7236               106.8309               170.6414

                   127                    128                    129
                     A                      A                      A
 Frequencies --  3380.4567              3888.8956              3889.0273
 Red. masses --     1.1002                 1.0676                 1.0677
 Frc consts  --     7.4077                 9.5133                 9.5141
 IR Inten    --   240.3935               140.4099                27.9826
 Raman Activ --    17.9717                51.8708               175.4739

 - Thermochemistry -
 -------------------
 Temperature   298.150 Kelvin.  Pressure   1.00000 Atm.
 Atom     1 has atomic number  8 and mass  15.99491

 Molecular mass:   342.11621 amu.
 Principal axes and moments of inertia in atomic units:
                           1         2         3
     Eigenvalues --  4328.99580********************
           X            0.99999  -0.00520  -0.00099
           Y            0.00520   0.99999  -0.00114
           Z            0.00099   0.00113   1.00000
 This molecule is an asymmetric top.
 Rotational symmetry number  1.
 Warning -- assumption of classical behavior for rotation
           may cause significant error
 Rotational temperatures (Kelvin)      0.02001     0.00695     0.00530
 Rotational constants (GHZ):           0.41690     0.14474     0.11038
    9 imaginary frequencies ignored.
 Zero-point vibrational energy     950593.1 (Joules/Mol)
                                  227.19722 (Kcal/Mol)
 Warning -- explicit consideration of  34 degrees of freedom as
           vibrations may cause significant error
 Vibrational temperatures:     27.55    49.30    83.26   132.85   145.27
          (Kelvin)            181.90   220.10   263.14   280.63   296.62
                              388.22   409.62   419.65   436.15   447.60
                              460.15   466.69   474.44   492.98   527.46
                              554.08   573.64   603.30   627.19   647.30
                              694.61   702.66   738.10   773.33   805.29
                              831.65   840.87   864.29   879.93   915.57
                              977.94  1004.86  1030.76  1060.01  1177.79
                             1212.58  1252.95  1267.42  1337.40  1355.34
                             1374.71  1387.49  1416.27  1422.39  1435.20
                             1451.20  1462.72  1500.28  1522.34  1530.81
                             1538.42  1563.56  1573.89  1578.00  1587.72
                             1618.35  1630.36  1635.33  1647.41  1651.51
                             1657.88  1666.02  1681.21  1723.18  1745.92
                             1753.29  1787.04  1809.10  1818.73  1831.38
                             1842.16  1856.82  1864.79  1879.01  1880.39
                             1900.91  1912.99  1918.69  1919.75  1934.73
                             1939.19  1958.77  1989.05  1998.69  2006.95
                             2037.58  2043.10  2059.98  2087.90  2125.62
                             2155.23  2175.04  2189.43  4589.03  4637.73
                             4683.12  4689.59  4710.12  4711.00  4716.43
                             4722.17  4725.77  4734.10  4739.61  4744.79
                             4751.06  4765.87  4772.56  4786.29  4827.14
                             4838.25  4849.91  4863.72  5595.25  5595.44

 Zero-point correction=                           0.362062 (Hartree/Particle)
 Thermal correction to Energy=                    0.381102
 Thermal correction to Enthalpy=                  0.382046
 Thermal correction to Gibbs Free Energy=         0.314392
 Sum of electronic and zero-point Energies=          -1297.328289
 Sum of electronic and thermal Energies=             -1297.309249
 Sum of electronic and thermal Enthalpies=           -1297.308305
 Sum of electronic and thermal Free Energies=        -1297.375958

                     E (Thermal)             CV                S
                      KCal/Mol        Cal/Mol-Kelvin    Cal/Mol-Kelvin
 Total                  239.145             77.463            142.389
 Electronic               0.000              0.000              0.000
 Translational            0.889              2.981             43.384
 Rotational               0.889              2.981             35.133
 Vibrational            237.368             71.501             63.872
 Vibration     1          0.593              1.986              6.720
 Vibration     2          0.594              1.983              5.566
 Vibration     3          0.596              1.974              4.528
 Vibration     4          0.602              1.955              3.610
 Vibration     5          0.604              1.948              3.436
 Vibration     6          0.611              1.927              3.000
 Vibration     7          0.619              1.899              2.635
 Vibration     8          0.630              1.863              2.299
 Vibration     9          0.636              1.847              2.179
 Vibration    10          0.641              1.831              2.077
 Vibration    11          0.674              1.729              1.597
 Vibration    12          0.683              1.702              1.505
 Vibration    13          0.687              1.689              1.464
 Vibration    14          0.695              1.668              1.399
 Vibration    15          0.700              1.653              1.356
 Vibration    16          0.706              1.636              1.311
 Vibration    17          0.709              1.627              1.288
 Vibration    18          0.713              1.616              1.261
 Vibration    19          0.722              1.590              1.200
 Vibration    20          0.740              1.541              1.094
 Vibration    21          0.754              1.502              1.019
 Vibration    22          0.765              1.473              0.967
 Vibration    23          0.782              1.428              0.894
 Vibration    24          0.796              1.392              0.840
 Vibration    25          0.809              1.361              0.796
 Vibration    26          0.839              1.288              0.703
 Vibration    27          0.844              1.276              0.688
 Vibration    28          0.868              1.221              0.626
 Vibration    29          0.893              1.167              0.571
 Vibration    30          0.915              1.118              0.524
 Vibration    31          0.935              1.079              0.489
 Vibration    32          0.941              1.065              0.477
 Vibration    33          0.959              1.030              0.448
 Vibration    34          0.971              1.007              0.430

 Normal termination of Gaussian 09 at Fri Apr  1 07:55:04 2016.
