 Gaussian 09, Revision B.01,
 Gaussian 09:  EM64L-G09RevB.01 12-Aug-2010

 --------------------------------------------------
 # freq=raman b3lyp/6-31+g(2df,p) geom=connectivity
 --------------------------------------------------

 ------------
 280 9000.com
 ------------
 Symbolic Z-matrix:
 Charge =  0 Multiplicity = 1

                         Standard orientation:
 ---------------------------------------------------------------------
 Center     Atomic      Atomic             Coordinates (Angstroms)
 Number     Number       Type             X           Y           Z
 ---------------------------------------------------------------------
      1          8           0       -4.947295   -0.358032    0.445937
      2          6           0       -3.680029   -0.057409   -0.144456
      3          6           0       -3.250187    1.322358    0.325463
      4          8           0       -4.222994    2.317163   -0.027843
      5          1           0       -5.132512    1.932502    0.130038
      6          6           0       -1.840822    1.621875   -0.157555
      7          8           0       -1.346914    2.918015    0.210919
      8          1           0       -0.459298    3.072731   -0.221856
      9          6           0       -2.994327   -2.560655   -0.386671
     10          8           0       -4.214348   -3.217565   -0.015286
     11          1           0       -4.090804   -4.209515    0.022620
     12          6           0       -2.716896   -1.183051    0.194387
     13          8           0       -1.407925   -0.822168   -0.268696
     14          6           0       -0.951856    0.448165    0.220258
     15          8           0        0.333981    0.593791   -0.399687
     16          6           0        1.580021    0.284400    0.240784
     17          6           0        1.830652   -1.158140   -0.166975
     18          8           0        0.911874   -2.169517    0.270167
     19          1           0       -0.026233   -2.001430   -0.031884
     20          6           0        3.220526   -1.565065    0.293984
     21          8           0        3.663955   -2.725425   -0.423700
     22          1           0        4.631422   -2.902587   -0.243323
     23          6           0        2.548064    2.628400    0.096771
     24          8           0        1.427569    3.278987   -0.519267
     25          1           0        1.493362    4.271876   -0.416844
     26          6           0        2.683488    1.170489   -0.313438
     27          8           0        3.932718    0.723301    0.233703
     28          6           0        4.283433   -0.597557   -0.202516
     29          8           0        5.441167   -0.680253    0.642488
     30          1           0        6.230841   -0.732771    0.099113
     31          1           0        4.501157   -0.665881   -1.247900
     32          1           0        2.707754    1.094895   -1.380489
     33          1           0        3.272283   -1.707090    1.353253
     34          1           0        1.832784   -1.181994   -1.236707
     35          1           0        1.502437    0.377985    1.303857
     36          1           0        3.442011    3.148040   -0.178425
     37          1           0        2.433488    2.677921    1.159465
     38          1           0       -0.838180    0.407195    1.283413
     39          1           0       -1.888880    1.622853   -1.226475
     40          1           0       -3.212459    1.290994    1.394338
     41          1           0       -3.801249   -0.027607   -1.207149
     42          1           0       -2.679901   -1.275407    1.259752
     43          1           0       -2.183630   -3.200008   -0.105785
     44          1           0       -2.986675   -2.470126   -1.452807
     45          1           0       -5.594408   -0.511812   -0.246303
 ---------------------------------------------------------------------

 SCF Done:  E(RB3LYP) =  -1298.01699730     A.U. after   13 cycles

 The electronic state is 1-A.
 Alpha  occ. eigenvalues --  -19.18607 -19.17895 -19.17380 -19.16849 -19.16602
 Alpha  occ. eigenvalues --  -19.16594 -19.16559 -19.15298 -19.15268 -19.14235
 Alpha  occ. eigenvalues --  -19.13849 -10.30455 -10.29951 -10.25652 -10.25296
 Alpha  occ. eigenvalues --  -10.25196 -10.25125 -10.24766 -10.24690 -10.24387
 Alpha  occ. eigenvalues --  -10.24355 -10.24128 -10.23874  -1.09556  -1.09071
 Alpha  occ. eigenvalues --   -1.05363  -1.04472  -1.03449  -1.02801  -1.02707
 Alpha  occ. eigenvalues --   -1.01928  -1.01537  -1.00346  -0.99956  -0.81957
 Alpha  occ. eigenvalues --   -0.80392  -0.78554  -0.78234  -0.71620  -0.69786
 Alpha  occ. eigenvalues --   -0.67309  -0.64387  -0.62997  -0.62514  -0.61130
 Alpha  occ. eigenvalues --   -0.60266  -0.56325  -0.55484  -0.54503  -0.54370
 Alpha  occ. eigenvalues --   -0.53738  -0.53334  -0.52766  -0.51738  -0.51388
 Alpha  occ. eigenvalues --   -0.50070  -0.49725  -0.49215  -0.48815  -0.46494
 Alpha  occ. eigenvalues --   -0.45394  -0.44785  -0.44699  -0.43587  -0.42838
 Alpha  occ. eigenvalues --   -0.42308  -0.41552  -0.40971  -0.40236  -0.39103
 Alpha  occ. eigenvalues --   -0.38491  -0.37742  -0.36976  -0.36139  -0.35718
 Alpha  occ. eigenvalues --   -0.34942  -0.34519  -0.33961  -0.33855  -0.32970
 Alpha  occ. eigenvalues --   -0.32060  -0.31037  -0.30542  -0.29992  -0.29529
 Alpha  occ. eigenvalues --   -0.29328  -0.29071  -0.27857  -0.27630  -0.27082
 Alpha  occ. eigenvalues --   -0.26174
 Alpha virt. eigenvalues --   -0.01871  -0.01809  -0.01567  -0.00339   0.00563
 Alpha virt. eigenvalues --    0.01168   0.01892   0.02223   0.03129   0.03470
 Alpha virt. eigenvalues --    0.03641   0.04308   0.05060   0.05349   0.05460

 Mulliken atomic charges:
              1
     1  O   -0.446737
     2  C   -0.085279
     3  C    0.058052
     4  O   -0.457309
     5  H    0.349085
     6  C   -0.183056
     7  O   -0.473931
     8  H    0.408909
     9  C   -0.353244
    10  O   -0.464910
    11  H    0.352788
    12  C   -0.059501
    13  O   -0.020050
    14  C    0.066805
    15  O   -0.073215
    16  C    0.158977
    17  C   -0.074977
    18  O   -0.476039
    19  H    0.390594
    20  C    0.083910
    21  O   -0.458387
    22  H    0.339892
    23  C   -0.327949
    24  O   -0.478492
    25  H    0.363280
    26  C   -0.177399
    27  O   -0.017154
    28  C   -0.112844
    29  O   -0.454734
    30  H    0.338400
    31  H    0.152499
    32  H    0.129489
    33  H    0.148158
    34  H    0.131593
    35  H    0.126102
    36  H    0.152000
    37  H    0.158233
    38  H    0.126158
    39  H    0.129880
    40  H    0.124048
    41  H    0.128558
    42  H    0.122473
    43  H    0.147884
    44  H    0.152760
    45  H    0.354683
 Sum of Mulliken atomic charges =   0.00000

 Dipole moment (field-independent basis, Debye):
    X=              2.2281    Y=             -0.5142    Z=             -2.0524  Tot=              3.0727
 Quadrupole moment (field-independent basis, Debye-Ang):
   XX=           -117.4639   YY=           -136.1752   ZZ=           -138.7200
   XY=             16.5416   XZ=             -1.8032   YZ=              0.7462

  Exact polarizability: 234.326  -0.785 199.382   0.038   0.764 144.066
 Approx polarizability: 276.010   0.468 259.182   0.441   1.095 239.736

 ******    7 imaginary frequencies (negative Signs) ******

                     1                      2                      3
                     A                      A                      A
 Frequencies --  -263.8764              -220.4176              -212.0501
 Red. masses --     1.7295                 1.1895                 1.9442
 Frc consts  --     0.0710                 0.0341                 0.0515
 IR Inten    --     5.7839                88.0964                 4.7065
 Raman Activ --     0.0729                 1.3574                 0.1041

                     4                      5                      6
                     A                      A                      A
 Frequencies --  -152.2029               -74.1970               -50.7356
 Red. masses --     1.3514                 6.5492                 5.0702
 Frc consts  --     0.0184                 0.0212                 0.0077
 IR Inten    --    93.0180                 0.6894                 4.4554
 Raman Activ --     0.7025                 0.0087                 0.0687

                     7                      8                      9
                     A                      A                      A
 Frequencies --   -21.8739                28.9417                62.4467
 Red. masses --     6.2016                 5.5164                 6.5355
 Frc consts  --     0.0017                 0.0027                 0.0150
 IR Inten    --     2.1830                 5.5089                 5.5494
 Raman Activ --     0.0338                 0.0735                 0.3055

                    10                     11                     12
                     A                      A                      A
 Frequencies --    74.2560                97.3768               110.2841
 Red. masses --     6.4460                 6.0731                 5.9530
 Frc consts  --     0.0209                 0.0339                 0.0427
 IR Inten    --     1.6967                 3.8262                 0.8338
 Raman Activ --     0.1786                 0.0289                 0.0457

                    13                     14                     15
                     A                      A                      A
 Frequencies --   150.6778               162.6919               180.8236
 Red. masses --     6.3365                 6.3432                 6.5276
 Frc consts  --     0.0848                 0.0989                 0.1258
 IR Inten    --     2.7275                 1.3439                 0.5546
 Raman Activ --     0.4192                 0.0962                 0.4229

                    16                     17                     18
                     A                      A                      A
 Frequencies --   190.2225               224.6001               255.5034
 Red. masses --     6.8162                 5.9664                 4.4120
 Frc consts  --     0.1453                 0.1773                 0.1697
 IR Inten    --     0.2477                 0.6795                19.2624
 Raman Activ --     1.7655                 1.0809                 0.1974

                    19                     20                     21
                     A                      A                      A
 Frequencies --   269.6921               292.9876               294.4123
 Red. masses --     5.0191                 4.9949                 5.4382
 Frc consts  --     0.2151                 0.2526                 0.2777
 IR Inten    --     0.7472                 0.5331                 0.2990
 Raman Activ --     0.1813                 0.2830                 1.1679

                    22                     23                     24
                     A                      A                      A
 Frequencies --   308.6850               323.0038               327.6002
 Red. masses --     5.5253                 6.0085                 5.1604
 Frc consts  --     0.3102                 0.3693                 0.3263
 IR Inten    --     0.5527                 4.1700                 4.6947
 Raman Activ --     1.1811                 1.6762                 1.4761

                    25                     26                     27
                     A                      A                      A
 Frequencies --   336.2978               363.0922               371.5679
 Red. masses --     6.8879                 4.2692                 5.5765
 Frc consts  --     0.4590                 0.3316                 0.4536
 IR Inten    --    10.4896                 6.3868                 1.3674
 Raman Activ --     5.4924                 0.5823                 0.9636

                    28                     29                     30
                     A                      A                      A
 Frequencies --   410.8519               415.5857               435.7697
 Red. masses --     4.4031                 6.4241                 4.4149
 Frc consts  --     0.4379                 0.6537                 0.4940
 IR Inten    --    19.3692                 1.7344                 4.2905
 Raman Activ --     3.7321                 4.8624                 1.3669

                    31                     32                     33
                     A                      A                      A
 Frequencies --   441.0929               468.2742               494.2385
 Red. masses --     4.9471                 4.1865                 5.5562
 Frc consts  --     0.5671                 0.5409                 0.7997
 IR Inten    --     2.5538                 3.7417                 6.1742
 Raman Activ --     2.0334                 5.7532                 0.2354

                    34                     35                     36
                     A                      A                      A
 Frequencies --   506.3264               517.1620               561.4785
 Red. masses --     3.1996                 3.1585                 4.0143
 Frc consts  --     0.4833                 0.4977                 0.7456
 IR Inten    --    10.9908                24.0197                 5.8276
 Raman Activ --     3.3166                 2.7996                 1.0128

                    37                     38                     39
                     A                      A                      A
 Frequencies --   583.7362               594.7582               633.1291
 Red. masses --     3.7961                 2.8192                 5.2028
 Frc consts  --     0.7621                 0.5876                 1.2288
 IR Inten    --    20.2331                27.5670                38.0233
 Raman Activ --     0.4712                 0.2734                 1.8043

                    40                     41                     42
                     A                      A                      A
 Frequencies --   661.1529               680.1832               708.2846
 Red. masses --     4.8840                 1.1657                 5.1180
 Frc consts  --     1.2579                 0.3177                 1.5127
 IR Inten    --     9.4291               105.0963                11.5856
 Raman Activ --     0.1301                 1.8307                 0.9259

                    43                     44                     45
                     A                      A                      A
 Frequencies --   726.0717               753.5009               753.8389
 Red. masses --     1.0664                 1.0623                 1.0602
 Frc consts  --     0.3312                 0.3553                 0.3550
 IR Inten    --    97.4698                62.2955               133.8084
 Raman Activ --     1.3486                 3.0604                 0.7369

                    46                     47                     48
                     A                      A                      A
 Frequencies --   787.4470               792.2118               839.4557
 Red. masses --     1.0794                 1.0653                 1.7652
 Frc consts  --     0.3943                 0.3939                 0.7329
 IR Inten    --   131.3982               109.0831                 4.5708
 Raman Activ --     2.0573                 2.3134                 0.6902

                    49                     50                     51
                     A                      A                      A
 Frequencies --   864.6811               914.3990               939.8765
 Red. masses --     1.6751                 6.3908                 5.5258
 Frc consts  --     0.7379                 3.1483                 2.8760
 IR Inten    --     3.2429               156.7836                86.9851
 Raman Activ --     0.6324                 3.6761                 1.6365

                    52                     53                     54
                     A                      A                      A
 Frequencies --   971.4277               986.9116               992.6894
 Red. masses --     7.3074                 4.5153                 4.0819
 Frc consts  --     4.0629                 2.5911                 2.3700
 IR Inten    --    92.8991                39.7317                61.9101
 Raman Activ --     0.5410                 5.5964                 3.9226

                    55                     56                     57
                     A                      A                      A
 Frequencies --  1002.8047              1010.3143              1015.5790
 Red. masses --     4.7295                 6.6959                 7.3228
 Frc consts  --     2.8022                 4.0269                 4.4500
 IR Inten    --    63.7881               163.4208               195.5134
 Raman Activ --     0.7463                 2.7093                 5.1462

                    58                     59                     60
                     A                      A                      A
 Frequencies --  1037.7572              1044.4308              1063.2117
 Red. masses --     3.9400                 3.0676                 3.8416
 Frc consts  --     2.5000                 1.9716                 2.5586
 IR Inten    --   184.4448               209.6298                41.2655
 Raman Activ --     2.7324                 4.7901                 9.9363

                    61                     62                     63
                     A                      A                      A
 Frequencies --  1067.8860              1074.2670              1085.7638
 Red. masses --     4.6765                 3.5872                 5.2458
 Frc consts  --     3.1421                 2.4391                 3.6436
 IR Inten    --     6.4019                82.2791                37.3781
 Raman Activ --    18.2602                11.9236                 1.6434

                    64                     65                     66
                     A                      A                      A
 Frequencies --  1090.2415              1099.1147              1105.5026
 Red. masses --     3.1998                 2.9351                 2.3753
 Frc consts  --     2.2409                 2.0891                 1.7104
 IR Inten    --    96.7047                95.7547                28.6839
 Raman Activ --     0.3119                15.0712                 3.1651

                    67                     68                     69
                     A                      A                      A
 Frequencies --  1112.0282              1116.7696              1125.8835
 Red. masses --     3.2490                 2.8758                 1.6962
 Frc consts  --     2.3672                 2.1132                 1.2668
 IR Inten    --    94.5471                33.5084                11.0209
 Raman Activ --     4.4393                 2.8109                 4.5573

                    70                     71                     72
                     A                      A                      A
 Frequencies --  1139.7734              1144.7864              1150.7731
 Red. masses --     2.2397                 1.8490                 2.0845
 Frc consts  --     1.7143                 1.4277                 1.6264
 IR Inten    --    34.5789                12.6635                 5.5562
 Raman Activ --     4.6441                 2.4085                 3.2428

                    73                     74                     75
                     A                      A                      A
 Frequencies --  1153.2091              1164.6286              1179.5794
 Red. masses --     3.3691                 1.5806                 1.8004
 Frc consts  --     2.6399                 1.2631                 1.4760
 IR Inten    --    13.7706                 5.3076                23.5613
 Raman Activ --     3.2736                 1.3694                 4.3516

                    76                     77                     78
                     A                      A                      A
 Frequencies --  1191.0551              1199.7364              1202.4065
 Red. masses --     1.5117                 1.2258                 1.2212
 Frc consts  --     1.2635                 1.0395                 1.0402
 IR Inten    --     7.2212                21.6096                17.8128
 Raman Activ --     4.7301                 1.8609                 0.9226

                    79                     80                     81
                     A                      A                      A
 Frequencies --  1217.7290              1233.5039              1241.8223
 Red. masses --     1.3834                 1.1868                 1.3194
 Frc consts  --     1.2087                 1.0639                 1.1988
 IR Inten    --     1.9644                15.1950                 0.6187
 Raman Activ --     1.5891                 1.3327                 1.2177

                    82                     83                     84
                     A                      A                      A
 Frequencies --  1252.3099              1256.4858              1264.9314
 Red. masses --     1.2591                 1.3776                 1.2893
 Frc consts  --     1.1634                 1.2814                 1.2155
 IR Inten    --     5.5955                69.6263                14.4643
 Raman Activ --     2.6895                 7.7095                 0.3743

                    85                     86                     87
                     A                      A                      A
 Frequencies --  1275.4120              1282.0420              1286.8826
 Red. masses --     1.2896                 1.2195                 1.2636
 Frc consts  --     1.2360                 1.1810                 1.2329
 IR Inten    --     1.7234                11.1865                 0.2764
 Raman Activ --     2.8470                 1.1430                 4.2155

                    88                     89                     90
                     A                      A                      A
 Frequencies --  1296.8466              1302.0338              1320.2358
 Red. masses --     1.2996                 1.2591                 1.2859
 Frc consts  --     1.2878                 1.2576                 1.3206
 IR Inten    --    61.4339                 5.4462                14.2083
 Raman Activ --     2.9061                 6.6544                11.2002

                    91                     92                     93
                     A                      A                      A
 Frequencies --  1322.2962              1335.0378              1343.4422
 Red. masses --     1.2581                 1.1640                 1.2827
 Frc consts  --     1.2961                 1.2223                 1.3640
 IR Inten    --    53.4565                59.6430                21.0479
 Raman Activ --     4.1159                 3.6618                 2.8866

                    94                     95                     96
                     A                      A                      A
 Frequencies --  1344.8527              1352.0212              1361.5230
 Red. masses --     1.2787                 1.3219                 1.4876
 Frc consts  --     1.3626                 1.4237                 1.6248
 IR Inten    --    31.1259                 5.0196                 3.7441
 Raman Activ --     6.1604                 2.1356                 2.4341

                    97                     98                     99
                     A                      A                      A
 Frequencies --  1365.9521              1370.4475              1386.3340
 Red. masses --     1.6419                 1.5455                 1.5381
 Frc consts  --     1.8049                 1.7101                 1.7417
 IR Inten    --    11.8236                 7.2541                 5.1923
 Raman Activ --     9.4924                 4.7256                 6.2564

                   100                    101                    102
                     A                      A                      A
 Frequencies --  1413.8305              1420.9778              1442.6622
 Red. masses --     1.4192                 1.4434                 1.4341
 Frc consts  --     1.6715                 1.7172                 1.7586
 IR Inten    --    27.9692                37.0074                27.9884
 Raman Activ --     1.2020                 1.4855                 3.0023

                   103                    104                    105
                     A                      A                      A
 Frequencies --  1447.3046              1449.8813              1461.1109
 Red. masses --     1.4369                 1.3260                 1.1270
 Frc consts  --     1.7734                 1.6423                 1.4175
 IR Inten    --    21.6136                35.3202                 3.7524
 Raman Activ --     1.2133                 1.2167                 3.5033

                   106                    107                    108
                     A                      A                      A
 Frequencies --  1467.8866              1486.2641              3255.7312
 Red. masses --     1.0768                 1.2920                 1.0574
 Frc consts  --     1.3670                 1.6815                 6.6034
 IR Inten    --     3.7932                31.5899                34.4411
 Raman Activ --     4.8562                 1.1513                82.7387

                   109                    110                    111
                     A                      A                      A
 Frequencies --  3259.4463              3262.1290              3267.3719
 Red. masses --     1.0570                 1.0793                 1.0817
 Frc consts  --     6.6160                 6.7669                 6.8039
 IR Inten    --    48.5464                 7.4813                 0.9595
 Raman Activ --    56.9484               169.4931                14.4659

                   112                    113                    114
                     A                      A                      A
 Frequencies --  3271.3105              3273.1038              3278.6132
 Red. masses --     1.0814                 1.0826                 1.0833
 Frc consts  --     6.8185                 6.8335                 6.8608
 IR Inten    --    77.6239                 0.9546                 5.3762
 Raman Activ --    23.1115               123.0009               114.0965

                   115                    116                    117
                     A                      A                      A
 Frequencies --  3282.2783              3291.7812              3293.2961
 Red. masses --     1.0855                 1.0823                 1.0860
 Frc consts  --     6.8904                 6.9100                 6.9395
 IR Inten    --     3.1626                94.3128                 2.2926
 Raman Activ --    23.0551                74.3107                11.2461

                   118                    119                    120
                     A                      A                      A
 Frequencies --  3299.0114              3300.7362              3308.6035
 Red. masses --     1.0761                 1.0847                 1.0754
 Frc consts  --     6.9006                 6.9628                 6.9363
 IR Inten    --   152.2316                49.7888               500.3771
 Raman Activ --   156.5260               198.3770                63.7942

                   121                    122                    123
                     A                      A                      A
 Frequencies --  3309.7222              3311.8969              3320.7071
 Red. masses --     1.0803                 1.1043                 1.1071
 Frc consts  --     6.9724                 7.1364                 7.1931
 IR Inten    --   313.7840                51.8483                52.8506
 Raman Activ --    26.3973                26.5623                41.6870

                   124                    125                    126
                     A                      A                      A
 Frequencies --  3346.8986              3353.5517              3354.5287
 Red. masses --     1.0661                 1.0673                 1.0654
 Frc consts  --     7.0359                 7.0721                 7.0634
 IR Inten    --    26.4573                51.2982                30.4802
 Raman Activ --   148.1984               157.5394                86.1415

                   127                    128                    129
                     A                      A                      A
 Frequencies --  3355.5828              3872.9381              3874.7468
 Red. masses --     1.0695                 1.0676                 1.0674
 Frc consts  --     7.0954                 9.4348                 9.4420
 IR Inten    --    55.0584                74.4243                53.1519
 Raman Activ --   175.6475                82.1420               143.0340

 - Thermochemistry -
 -------------------
 Temperature   298.150 Kelvin.  Pressure   1.00000 Atm.
 Atom     1 has atomic number  8 and mass  15.99491

 Molecular mass:   342.11621 amu.
 Principal axes and moments of inertia in atomic units:
                           1         2         3
     Eigenvalues --  4463.45017********************
           X            0.99997   0.00804  -0.00025
           Y           -0.00804   0.99996   0.00234
           Z            0.00027  -0.00234   1.00000
 This molecule is an asymmetric top.
 Rotational symmetry number  1.
 Warning -- assumption of classical behavior for rotation
           may cause significant error
 Rotational temperatures (Kelvin)      0.01941     0.00708     0.00531
 Rotational constants (GHZ):           0.40434     0.14758     0.11061
    7 imaginary frequencies ignored.
 Zero-point vibrational energy     970071.2 (Joules/Mol)
                                  231.85259 (Kcal/Mol)
 Warning -- explicit consideration of  31 degrees of freedom as
           vibrations may cause significant error
 Vibrational temperatures:     41.64    89.85   106.84   140.10   158.67
          (Kelvin)            216.79   234.08   260.16   273.69   323.15
                              367.61   388.03   421.54   423.59   444.13
                              464.73   471.34   483.86   522.41   534.60
                              591.12   597.93   626.97   634.63   673.74
                              711.10   728.49   744.08   807.84   839.87
                              855.72   910.93   951.25   978.63  1019.06
                             1044.65  1084.12  1084.60  1132.96  1139.81
                             1207.79  1244.08  1315.61  1352.27  1397.67
                             1419.94  1428.26  1442.81  1453.62  1461.19
                             1493.10  1502.70  1529.72  1536.45  1545.63
                             1562.17  1568.61  1581.38  1590.57  1599.96
                             1606.78  1619.89  1639.88  1647.09  1655.70
                             1659.21  1675.64  1697.15  1713.66  1726.15
                             1729.99  1752.04  1774.73  1786.70  1801.79
                             1807.80  1819.95  1835.03  1844.57  1851.53
                             1865.87  1873.33  1899.52  1902.49  1920.82
                             1932.91  1934.94  1945.25  1958.93  1965.30
                             1971.77  1994.62  2034.18  2044.47  2075.67
                             2082.35  2086.05  2102.21  2111.96  2138.40
                             4684.27  4689.61  4693.47  4701.01  4706.68
                             4709.26  4717.19  4722.46  4736.13  4738.31
                             4746.54  4749.02  4760.34  4761.95  4765.08
                             4777.75  4815.43  4825.01  4826.41  4827.93
                             5572.29  5574.89

 Zero-point correction=                           0.369481 (Hartree/Particle)
 Thermal correction to Energy=                    0.387982
 Thermal correction to Enthalpy=                  0.388927
 Thermal correction to Gibbs Free Energy=         0.323317
 Sum of electronic and zero-point Energies=          -1297.647517
 Sum of electronic and thermal Energies=             -1297.629015
 Sum of electronic and thermal Enthalpies=           -1297.628071
 Sum of electronic and thermal Free Energies=        -1297.693680

                     E (Thermal)             CV                S
                      KCal/Mol        Cal/Mol-Kelvin    Cal/Mol-Kelvin
 Total                  243.463             76.290            138.087
 Electronic               0.000              0.000              0.000
 Translational            0.889              2.981             43.384
 Rotational               0.889              2.981             35.142
 Vibrational            241.685             70.328             59.561
 Vibration     1          0.593              1.984              5.901
 Vibration     2          0.597              1.972              4.378
 Vibration     3          0.599              1.966              4.037
 Vibration     4          0.603              1.951              3.506
 Vibration     5          0.606              1.941              3.264
 Vibration     6          0.618              1.902              2.664
 Vibration     7          0.623              1.888              2.518
 Vibration     8          0.630              1.866              2.320
 Vibration     9          0.634              1.853              2.226
 Vibration    10          0.649              1.804              1.922
 Vibration    11          0.666              1.753              1.692
 Vibration    12          0.674              1.729              1.598
 Vibration    13          0.688              1.687              1.457
 Vibration    14          0.689              1.684              1.448
 Vibration    15          0.698              1.657              1.369
 Vibration    16          0.708              1.629              1.295
 Vibration    17          0.711              1.620              1.272
 Vibration    18          0.717              1.603              1.230
 Vibration    19          0.737              1.548              1.109
 Vibration    20          0.743              1.531              1.073
 Vibration    21          0.775              1.447              0.924
 Vibration    22          0.779              1.436              0.907
 Vibration    23          0.796              1.392              0.840
 Vibration    24          0.801              1.381              0.823
 Vibration    25          0.825              1.320              0.742
 Vibration    26          0.850              1.263              0.673
 Vibration    27          0.862              1.236              0.642
 Vibration    28          0.872              1.212              0.617
 Vibration    29          0.917              1.115              0.521
 Vibration    30          0.941              1.067              0.478
 Vibration    31          0.952              1.043              0.459

 Normal termination of Gaussian 09 at Fri Feb  5 12:50:11 2016.
