 Gaussian 09, Revision B.01,
 Gaussian 09:  EM64L-G09RevB.01 12-Aug-2010

 -------------------------------------------------
 # freq=raman b3lyp/6-31+g(2d,p) geom=connectivity
 -------------------------------------------------

 -----------------
 493 8000/8000.com
 -----------------
 Symbolic Z-matrix:
 Charge =  0 Multiplicity = 1

                         Standard orientation:
 ---------------------------------------------------------------------
 Center     Atomic      Atomic             Coordinates (Angstroms)
 Number     Number       Type             X           Y           Z
 ---------------------------------------------------------------------
      1          8           0        5.049153   -0.431291   -0.447942
      2          6           0        3.774158   -0.113224    0.128646
      3          6           0        3.277764    1.253253   -0.312715
      4          8           0        4.210051    2.309524   -0.037764
      5          1           0        5.130798    1.935642   -0.147671
      6          6           0        1.905849    1.571392    0.259025
      7          8           0        1.352616    2.718543   -0.400760
      8          1           0        0.502856    2.943582    0.076734
      9          6           0        3.049137   -2.584285    0.227171
     10          8           0        4.156400   -3.157136   -0.483649
     11          1           0        4.099662   -4.153991   -0.435580
     12          6           0        2.706960   -1.155757   -0.161636
     13          8           0        1.539075   -0.832329    0.607651
     14          6           0        0.957736    0.389771    0.129884
     15          8           0       -0.313500    0.580837    0.768648
     16          6           0       -1.511219    0.144486    0.109750
     17          6           0       -2.077670   -1.214478    0.484173
     18          8           0       -1.132542   -2.128776   -0.090408
     19          1           0       -0.190953   -1.882174    0.137290
     20          6           0       -3.430401   -1.499229   -0.150037
     21          8           0       -3.962837   -2.717068    0.391347
     22          1           0       -4.780915   -2.831023   -0.171951
     23          6           0       -2.282321    2.535874   -0.259887
     24          8           0       -1.226125    3.274836    0.370185
     25          1           0       -1.370964    4.260233    0.278588
     26          6           0       -2.621123    1.165082    0.303950
     27          8           0       -3.840814    0.884435   -0.397265
     28          6           0       -4.409079   -0.353958    0.052949
     29          8           0       -5.467112   -0.472568   -0.909233
     30          1           0       -6.299350   -0.618153   -0.453399
     31          1           0        5.672908   -0.641470    0.250882
     32          1           0        2.187394   -3.195036    0.056050
     33          1           0        3.274692   -2.603386    1.272953
     34          1           0        2.461307   -1.125104   -1.202604
     35          1           0        3.905240   -0.078058    1.190004
     36          1           0        3.166215    1.210642   -1.376031
     37          1           0        2.018578    1.801251    1.297946
     38          1           0        0.765861    0.258211   -0.914518
     39          1           0       -3.168629    3.133763   -0.216436
     40          1           0       -2.021091    2.408689   -1.289684
     41          1           0       -2.831299    1.258111    1.348973
     42          1           0       -1.293285    0.111927   -0.937315
     43          1           0       -2.120684   -1.330686    1.546974
     44          1           0       -3.286003   -1.634165   -1.201627
     45          1           0       -4.776009   -0.294419    1.056302
 ---------------------------------------------------------------------

 SCF Done:  E(RB3LYP) =  -1298.00183171     A.U. after   13 cycles

 The electronic state is 1-A.
 Alpha  occ. eigenvalues --  -19.18511 -19.18228 -19.18086 -19.18004 -19.17942
 Alpha  occ. eigenvalues --  -19.16899 -19.16785 -19.16143 -19.15048 -19.14366
 Alpha  occ. eigenvalues --  -19.13500 -10.30702 -10.30310 -10.25563 -10.25433
 Alpha  occ. eigenvalues --  -10.25398 -10.25064 -10.25044 -10.24705 -10.24509
 Alpha  occ. eigenvalues --  -10.24281 -10.24224 -10.24107  -1.09836  -1.09404
 Alpha  occ. eigenvalues --   -1.05258  -1.04664  -1.04215  -1.03853  -1.02891
 Alpha  occ. eigenvalues --   -1.02544  -1.01878  -1.01230  -1.00080  -0.81908
 Alpha  occ. eigenvalues --   -0.80262  -0.79190  -0.78234  -0.71619  -0.69878
 Alpha  occ. eigenvalues --   -0.67678  -0.65007  -0.63127  -0.62380  -0.61348
 Alpha  occ. eigenvalues --   -0.60373  -0.56628  -0.55468  -0.54902  -0.54569
 Alpha  occ. eigenvalues --   -0.54043  -0.53158  -0.52945  -0.52340  -0.51314
 Alpha  occ. eigenvalues --   -0.50595  -0.49535  -0.49331  -0.48777  -0.46103
 Alpha  occ. eigenvalues --   -0.45542  -0.44801  -0.44498  -0.43630  -0.43493
 Alpha  occ. eigenvalues --   -0.42540  -0.41984  -0.40961  -0.39971  -0.39508
 Alpha  occ. eigenvalues --   -0.39127  -0.38486  -0.37169  -0.36266  -0.35901
 Alpha  occ. eigenvalues --   -0.35421  -0.35198  -0.34235  -0.34028  -0.33579
 Alpha  occ. eigenvalues --   -0.32682  -0.31408  -0.31209  -0.30517  -0.30275
 Alpha  occ. eigenvalues --   -0.29319  -0.28961  -0.28756  -0.27673  -0.26542
 Alpha  occ. eigenvalues --   -0.26344
 Alpha virt. eigenvalues --   -0.01945  -0.01864  -0.01477  -0.00265   0.00270
 Alpha virt. eigenvalues --    0.01234   0.01868   0.02380   0.02744   0.03680
 Alpha virt. eigenvalues --    0.03797   0.04282   0.04855   0.05424   0.05537

 Mulliken atomic charges:
              1
     1  O   -0.538664
     2  C   -0.182475
     3  C    0.381553
     4  O   -0.563154
     5  H    0.342224
     6  C   -0.202591
     7  O   -0.550606
     8  H    0.404810
     9  C   -0.194586
    10  O   -0.519391
    11  H    0.340539
    12  C    0.225591
    13  O   -0.283821
    14  C    0.219396
    15  O   -0.238255
    16  C    0.208488
    17  C    0.136722
    18  O   -0.560623
    19  H    0.370489
    20  C    0.098268
    21  O   -0.530223
    22  H    0.330441
    23  C   -0.234777
    24  O   -0.580300
    25  H    0.359357
    26  C   -0.107057
    27  O   -0.207580
    28  C    0.103556
    29  O   -0.530204
    30  H    0.330912
    31  H    0.341884
    32  H    0.144166
    33  H    0.142999
    34  H    0.115542
    35  H    0.117209
    36  H    0.120290
    37  H    0.128021
    38  H    0.112894
    39  H    0.142434
    40  H    0.156347
    41  H    0.119465
    42  H    0.116339
    43  H    0.130797
    44  H    0.146696
    45  H    0.136878
 Sum of Mulliken atomic charges =   0.00000

 Dipole moment (field-independent basis, Debye):
    X=             -2.6318    Y=             -0.7560    Z=              2.2911  Tot=              3.5704
 Quadrupole moment (field-independent basis, Debye-Ang):
   XX=           -113.9040   YY=           -135.5353   ZZ=           -142.0453
   XY=            -16.5522   XZ=              3.9144   YZ=              1.9561

  Exact polarizability: 234.092   1.725 195.838   0.794  -0.189 144.376
 Approx polarizability: 274.629   0.972 254.813   0.974   0.121 241.164

 ******    6 imaginary frequencies (negative Signs) ******

                     1                      2                      3
                     A                      A                      A
 Frequencies --  -256.3062              -238.7707              -220.4052
 Red. masses --     1.5739                 1.7936                 1.2083
 Frc consts  --     0.0609                 0.0602                 0.0346
 IR Inten    --    41.8262                 4.2560               100.1611
 Raman Activ --     0.2561                 0.0355                 0.8403

                     4                      5                      6
                     A                      A                      A
 Frequencies --  -211.8094               -62.7762               -48.9665
 Red. masses --     1.3325                 6.7458                 6.1618
 Frc consts  --     0.0352                 0.0157                 0.0087
 IR Inten    --    66.5146                 1.2734                 0.5378
 Raman Activ --     0.6814                 0.0461                 0.0115

                     7                      8                      9
                     A                      A                      A
 Frequencies --    27.0250                36.8493                63.3488
 Red. masses --     6.8345                 6.1670                 5.9055
 Frc consts  --     0.0029                 0.0049                 0.0140
 IR Inten    --     0.2879                 0.5574                 4.9710
 Raman Activ --     0.0636                 0.0345                 0.1616

                    10                     11                     12
                     A                      A                      A
 Frequencies --    86.1998                92.2127               104.4974
 Red. masses --     6.3258                 6.5891                 5.6911
 Frc consts  --     0.0277                 0.0330                 0.0366
 IR Inten    --     0.8561                 0.9151                 1.8522
 Raman Activ --     0.1026                 0.0556                 0.1614

                    13                     14                     15
                     A                      A                      A
 Frequencies --   152.1490               175.6165               188.6822
 Red. masses --     6.6895                 6.1039                 6.9729
 Frc consts  --     0.0912                 0.1109                 0.1463
 IR Inten    --     1.8000                 5.2171                 0.0184
 Raman Activ --     0.7132                 0.8336                 0.5130

                    16                     17                     18
                     A                      A                      A
 Frequencies --   200.8724               230.3646               266.8232
 Red. masses --     6.7702                 6.0044                 4.8454
 Frc consts  --     0.1610                 0.1877                 0.2032
 IR Inten    --     0.4254                 1.4873                11.9797
 Raman Activ --     0.9851                 0.8675                 0.3688

                    19                     20                     21
                     A                      A                      A
 Frequencies --   276.8801               285.0110               287.2338
 Red. masses --     4.9010                 4.5694                 4.6786
 Frc consts  --     0.2214                 0.2187                 0.2274
 IR Inten    --     4.8053                 4.2451                 1.3315
 Raman Activ --     0.3348                 0.1522                 0.4772

                    22                     23                     24
                     A                      A                      A
 Frequencies --   296.5784               320.5978               328.9803
 Red. masses --     5.3991                 5.7869                 6.8833
 Frc consts  --     0.2798                 0.3504                 0.4389
 IR Inten    --     8.4133                 1.6617                 1.6535
 Raman Activ --     0.3763                 1.3691                 2.7169

                    25                     26                     27
                     A                      A                      A
 Frequencies --   343.5289               365.0654               372.5311
 Red. masses --     6.7343                 5.0884                 6.2765
 Frc consts  --     0.4682                 0.3996                 0.5132
 IR Inten    --     9.3028                 5.1265                 0.7297
 Raman Activ --     5.0052                 0.2407                 1.6395

                    28                     29                     30
                     A                      A                      A
 Frequencies --   409.2790               419.3914               437.8607
 Red. masses --     4.1581                 5.5392                 5.2109
 Frc consts  --     0.4104                 0.5740                 0.5886
 IR Inten    --    19.1256                 5.4562                 0.2378
 Raman Activ --     2.6143                 2.7645                 6.6319

                    31                     32                     33
                     A                      A                      A
 Frequencies --   442.9234               472.4759               487.2885
 Red. masses --     4.3910                 5.2924                 3.8353
 Frc consts  --     0.5075                 0.6961                 0.5366
 IR Inten    --     2.6360                 2.4457                13.3101
 Raman Activ --     1.4229                 3.8429                 1.0765

                    34                     35                     36
                     A                      A                      A
 Frequencies --   525.3966               533.1678               565.6601
 Red. masses --     3.2504                 3.8012                 3.6743
 Frc consts  --     0.5286                 0.6366                 0.6927
 IR Inten    --    11.3569                 5.5617                15.8588
 Raman Activ --     2.4352                 1.8525                 1.9490

                    37                     38                     39
                     A                      A                      A
 Frequencies --   578.9333               591.2496               617.7834
 Red. masses --     2.7493                 5.8458                 4.0907
 Frc consts  --     0.5429                 1.2040                 0.9199
 IR Inten    --    44.5429                 3.7923                16.5522
 Raman Activ --     0.1790                 0.5470                 0.7251

                    40                     41                     42
                     A                      A                      A
 Frequencies --   626.9061               682.3820               700.5058
 Red. masses --     6.2964                 4.6012                 1.1033
 Frc consts  --     1.4580                 1.2623                 0.3190
 IR Inten    --    21.6597                32.4914               105.8447
 Raman Activ --     0.6860                 0.4575                 1.9263

                    43                     44                     45
                     A                      A                      A
 Frequencies --   700.9275               733.5131               765.5174
 Red. masses --     1.0760                 1.0587                 1.1106
 Frc consts  --     0.3115                 0.3356                 0.3835
 IR Inten    --    93.2808                87.8672                88.7480
 Raman Activ --     1.9262                 1.5463                 1.5491

                    46                     47                     48
                     A                      A                      A
 Frequencies --   803.7006               839.2578               853.2484
 Red. masses --     1.0566                 1.1833                 1.7471
 Frc consts  --     0.4021                 0.4910                 0.7494
 IR Inten    --    74.0612                71.9399                 2.2987
 Raman Activ --     0.9094                 1.1917                 0.9240

                    49                     50                     51
                     A                      A                      A
 Frequencies --   868.6208               932.0209               960.6410
 Red. masses --     1.5160                 5.9415                 5.6226
 Frc consts  --     0.6739                 3.0409                 3.0571
 IR Inten    --    21.4321               152.3386                45.9662
 Raman Activ --     0.7691                 3.3222                 0.6339

                    52                     53                     54
                     A                      A                      A
 Frequencies --   983.3841               984.4975               986.3492
 Red. masses --     7.0440                 6.1601                 4.8120
 Frc consts  --     4.0134                 3.5178                 2.7583
 IR Inten    --    24.8354               398.4068               102.5001
 Raman Activ --     3.3734                 1.2522                 0.7816

                    55                     56                     57
                     A                      A                      A
 Frequencies --   999.6844              1011.5702              1024.5588
 Red. masses --     6.0124                 7.1198                 6.0192
 Frc consts  --     3.5402                 4.2925                 3.7227
 IR Inten    --   186.5036                75.6171               148.5256
 Raman Activ --     0.9355                 1.9810                 2.8872

                    58                     59                     60
                     A                      A                      A
 Frequencies --  1033.6021              1058.1673              1061.2787
 Red. masses --     6.7347                 3.2706                 6.9718
 Frc consts  --     4.2391                 2.1577                 4.6265
 IR Inten    --   206.4067               112.6294                54.4853
 Raman Activ --     2.1223                13.5465                 5.3718

                    61                     62                     63
                     A                      A                      A
 Frequencies --  1062.8906              1070.8801              1079.5816
 Red. masses --     5.6153                 3.7427                 4.6403
 Frc consts  --     3.7377                 2.5288                 3.1864
 IR Inten    --    33.0323                14.3423                74.3202
 Raman Activ --     4.0794                 5.9642                12.4141

                    64                     65                     66
                     A                      A                      A
 Frequencies --  1091.9191              1101.6375              1109.6733
 Red. masses --     2.9325                 3.1948                 3.1683
 Frc consts  --     2.0600                 2.2844                 2.2986
 IR Inten    --    54.8804                73.1442                 5.2908
 Raman Activ --     4.1275                 5.3040                 1.5468

                    67                     68                     69
                     A                      A                      A
 Frequencies --  1115.9124              1116.1692              1135.4928
 Red. masses --     2.2450                 2.4121                 2.8172
 Frc consts  --     1.6471                 1.7705                 2.1401
 IR Inten    --    21.7822                55.8370                14.6419
 Raman Activ --     5.6834                 7.2448                 2.7990

                    70                     71                     72
                     A                      A                      A
 Frequencies --  1139.7564              1150.5564              1160.7142
 Red. masses --     2.6509                 1.8214                 1.6736
 Frc consts  --     2.0289                 1.4206                 1.3285
 IR Inten    --    11.1126                 4.3016                 8.3685
 Raman Activ --     3.3761                 5.0868                 3.2639

                    73                     74                     75
                     A                      A                      A
 Frequencies --  1163.1121              1170.0294              1180.5492
 Red. masses --     1.6032                 1.7728                 1.8880
 Frc consts  --     1.2779                 1.4299                 1.5503
 IR Inten    --    13.8339                 0.7448                 9.2135
 Raman Activ --     5.1886                 1.4640                 2.0810

                    76                     77                     78
                     A                      A                      A
 Frequencies --  1190.3288              1206.3684              1216.9922
 Red. masses --     1.3260                 1.2334                 1.3075
 Frc consts  --     1.1069                 1.0576                 1.1409
 IR Inten    --    21.9039                10.2152                 7.6191
 Raman Activ --     3.1082                 3.6330                 1.4031

                    79                     80                     81
                     A                      A                      A
 Frequencies --  1238.4684              1245.2832              1261.2631
 Red. masses --     1.2642                 1.2905                 1.3256
 Frc consts  --     1.1424                 1.1791                 1.2424
 IR Inten    --     4.3503                 8.1779                22.8629
 Raman Activ --     0.2771                 1.5713                 0.9689

                    82                     83                     84
                     A                      A                      A
 Frequencies --  1268.1088              1276.4315              1286.3855
 Red. masses --     1.4201                 1.2022                 1.2695
 Frc consts  --     1.3455                 1.1540                 1.2377
 IR Inten    --     3.6827                 5.1490                 2.3545
 Raman Activ --     2.8986                 2.2011                 0.4055

                    85                     86                     87
                     A                      A                      A
 Frequencies --  1288.5470              1294.9702              1301.6591
 Red. masses --     1.2305                 1.4498                 1.2569
 Frc consts  --     1.2037                 1.4325                 1.2547
 IR Inten    --    31.5658                 9.1449                51.5593
 Raman Activ --     2.5734                 1.8426                 6.9782

                    88                     89                     90
                     A                      A                      A
 Frequencies --  1308.4423              1317.9870              1325.2029
 Red. masses --     1.2733                 1.1494                 1.2605
 Frc consts  --     1.2844                 1.1764                 1.3042
 IR Inten    --    15.8257                28.3770                25.0578
 Raman Activ --    12.1604                 5.4446                 6.7258

                    91                     92                     93
                     A                      A                      A
 Frequencies --  1337.0051              1343.1322              1348.2755
 Red. masses --     1.1769                 1.2545                 1.2949
 Frc consts  --     1.2395                 1.3334                 1.3869
 IR Inten    --    38.4400                12.4822                43.1133
 Raman Activ --     0.2408                 3.2214                 2.9521

                    94                     95                     96
                     A                      A                      A
 Frequencies --  1351.0982              1363.9663              1373.6030
 Red. masses --     1.2382                 1.4835                 1.6081
 Frc consts  --     1.3317                 1.6261                 1.7877
 IR Inten    --    28.3094                12.2081                 1.3662
 Raman Activ --     2.5349                 4.8622                 4.6891

                    97                     98                     99
                     A                      A                      A
 Frequencies --  1375.2570              1393.6905              1410.2202
 Red. masses --     1.6585                 1.3546                 1.3120
 Frc consts  --     1.8481                 1.5503                 1.5373
 IR Inten    --     7.2507                 2.2742                 1.0811
 Raman Activ --     7.6187                 4.6942                 9.6318

                   100                    101                    102
                     A                      A                      A
 Frequencies --  1434.0351              1451.1222              1457.4742
 Red. masses --     1.4530                 1.2964                 1.3861
 Frc consts  --     1.7605                 1.6084                 1.7348
 IR Inten    --    59.0229                49.3700                15.5465
 Raman Activ --     0.8163                 1.5887                 1.6449

                   103                    104                    105
                     A                      A                      A
 Frequencies --  1459.2485              1471.7530              1472.9654
 Red. masses --     1.3053                 1.0803                 1.1404
 Frc consts  --     1.6376                 1.3787                 1.4578
 IR Inten    --     6.5297                 2.8521                 5.1265
 Raman Activ --     2.4524                 3.9164                 2.7745

                   106                    107                    108
                     A                      A                      A
 Frequencies --  1481.6554              1510.4139              3257.0549
 Red. masses --     1.3961                 1.2418                 1.0568
 Frc consts  --     1.8057                 1.6692                 6.6051
 IR Inten    --    45.4937                40.9045                27.8133
 Raman Activ --     1.6706                 0.8929                81.0367

                   109                    110                    111
                     A                      A                      A
 Frequencies --  3260.0790              3265.8889              3268.6590
 Red. masses --     1.0596                 1.0829                 1.0795
 Frc consts  --     6.6352                 6.8054                 6.7952
 IR Inten    --   183.2072                 5.0756                14.7063
 Raman Activ --    20.2509                 8.8977               168.7875

                   112                    113                    114
                     A                      A                      A
 Frequencies --  3270.8601              3273.4663              3276.4817
 Red. masses --     1.0821                 1.0825                 1.0703
 Frc consts  --     6.8210                 6.8345                 6.7698
 IR Inten    --     3.3584                 2.3174               433.1643
 Raman Activ --    89.7633                95.1048               194.6753

                   115                    116                    117
                     A                      A                      A
 Frequencies --  3280.8004              3284.1857              3289.3231
 Red. masses --     1.0837                 1.0839                 1.0844
 Frc consts  --     6.8727                 6.8881                 6.9129
 IR Inten    --    12.9916                24.3925                21.4600
 Raman Activ --    40.0382                32.0058               157.8217

                   118                    119                    120
                     A                      A                      A
 Frequencies --  3292.1083              3296.4510              3305.4780
 Red. masses --     1.0861                 1.0866                 1.0868
 Frc consts  --     6.9353                 6.9570                 6.9965
 IR Inten    --     1.1511                84.9668                64.1480
 Raman Activ --    16.7901                 8.5298                21.2437

                   121                    122                    123
                     A                      A                      A
 Frequencies --  3315.2425              3319.6741              3324.2628
 Red. masses --     1.1069                 1.1061                 1.0689
 Frc consts  --     7.1676                 7.1821                 6.9596
 IR Inten    --    49.4508                64.1095               384.5948
 Raman Activ --    35.8078                34.3632               166.7399

                   124                    125                    126
                     A                      A                      A
 Frequencies --  3368.6472              3368.8400              3369.2302
 Red. masses --     1.0681                 1.0656                 1.0649
 Frc consts  --     7.1414                 7.1251                 7.1224
 IR Inten    --    61.8441                37.7370                20.8768
 Raman Activ --   136.7083                84.3274               144.2585

                   127                    128                    129
                     A                      A                      A
 Frequencies --  3372.9269              3888.2832              3891.5517
 Red. masses --     1.0677                 1.0677                 1.0673
 Frc consts  --     7.1567                 9.5109                 9.5233
 IR Inten    --    41.6182                78.4964                62.1409
 Raman Activ --   176.3068                81.7507               132.5619

 - Thermochemistry -
 -------------------
 Temperature   298.150 Kelvin.  Pressure   1.00000 Atm.
 Atom     1 has atomic number  8 and mass  15.99491

 Molecular mass:   342.11621 amu.
 Principal axes and moments of inertia in atomic units:
                           1         2         3
     Eigenvalues --  4376.97038********************
           X            0.99997  -0.00738   0.00060
           Y            0.00738   0.99997  -0.00103
           Z           -0.00060   0.00103   1.00000
 This molecule is an asymmetric top.
 Rotational symmetry number  1.
 Warning -- assumption of classical behavior for rotation
           may cause significant error
 Rotational temperatures (Kelvin)      0.01979     0.00688     0.00526
 Rotational constants (GHZ):           0.41233     0.14328     0.10970
    6 imaginary frequencies ignored.
 Zero-point vibrational energy     974612.7 (Joules/Mol)
                                  232.93802 (Kcal/Mol)
 Warning -- explicit consideration of  33 degrees of freedom as
           vibrations may cause significant error
 Vibrational temperatures:     38.88    53.02    91.14   124.02   132.67
          (Kelvin)            150.35   218.91   252.67   271.47   289.01
                              331.44   383.90   398.37   410.07   413.26
                              426.71   461.27   473.33   494.26   525.25
                              535.99   588.86   603.41   629.98   637.27
                              679.79   701.10   755.93   767.11   813.86
                              832.95   850.68   888.85   901.98   981.79
                             1007.87  1008.48  1055.36  1101.41  1156.34
                             1207.50  1227.63  1249.75  1340.97  1382.15
                             1414.87  1416.47  1419.13  1438.32  1455.42
                             1474.11  1487.12  1522.46  1526.94  1529.26
                             1540.76  1553.28  1571.03  1585.01  1596.57
                             1605.55  1605.92  1633.72  1639.85  1655.39
                             1670.01  1673.46  1683.41  1698.54  1712.62
                             1735.69  1750.98  1781.88  1791.68  1814.67
                             1824.52  1836.50  1850.82  1853.93  1863.17
                             1872.79  1882.55  1896.29  1906.67  1923.65
                             1932.47  1939.87  1943.93  1962.44  1976.31
                             1978.69  2005.21  2028.99  2063.25  2087.84
                             2096.98  2099.53  2117.52  2119.27  2131.77
                             2173.15  4686.17  4690.52  4698.88  4702.87
                             4706.03  4709.78  4714.12  4720.33  4725.20
                             4732.60  4736.60  4742.85  4755.84  4769.89
                             4776.26  4782.87  4846.73  4847.00  4847.56
                             4852.88  5594.37  5599.07

 Zero-point correction=                           0.371210 (Hartree/Particle)
 Thermal correction to Energy=                    0.390472
 Thermal correction to Enthalpy=                  0.391417
 Thermal correction to Gibbs Free Energy=         0.323449
 Sum of electronic and zero-point Energies=          -1297.630621
 Sum of electronic and thermal Energies=             -1297.611359
 Sum of electronic and thermal Enthalpies=           -1297.610415
 Sum of electronic and thermal Free Energies=        -1297.678382

                     E (Thermal)             CV                S
                      KCal/Mol        Cal/Mol-Kelvin    Cal/Mol-Kelvin
 Total                  245.025             77.895            143.049
 Electronic               0.000              0.000              0.000
 Translational            0.889              2.981             43.384
 Rotational               0.889              2.981             35.160
 Vibrational            243.248             71.934             64.505
 Vibration     1          0.593              1.984              6.037
 Vibration     2          0.594              1.982              5.422
 Vibration     3          0.597              1.972              4.350
 Vibration     4          0.601              1.959              3.745
 Vibration     5          0.602              1.955              3.613
 Vibration     6          0.605              1.946              3.369
 Vibration     7          0.619              1.900              2.645
 Vibration     8          0.628              1.872              2.375
 Vibration     9          0.633              1.855              2.241
 Vibration    10          0.638              1.839              2.125
 Vibration    11          0.652              1.795              1.876
 Vibration    12          0.672              1.734              1.617
 Vibration    13          0.678              1.716              1.553
 Vibration    14          0.683              1.701              1.503
 Vibration    15          0.684              1.697              1.490
 Vibration    16          0.690              1.680              1.436
 Vibration    17          0.706              1.634              1.307
 Vibration    18          0.712              1.618              1.265
 Vibration    19          0.722              1.588              1.196
 Vibration    20          0.738              1.544              1.100
 Vibration    21          0.744              1.529              1.069
 Vibration    22          0.774              1.450              0.929
 Vibration    23          0.782              1.428              0.894
 Vibration    24          0.798              1.388              0.833
 Vibration    25          0.803              1.377              0.817
 Vibration    26          0.829              1.311              0.731
 Vibration    27          0.843              1.278              0.691
 Vibration    28          0.880              1.194              0.598
 Vibration    29          0.888              1.177              0.580
 Vibration    30          0.922              1.106              0.513
 Vibration    31          0.936              1.077              0.487
 Vibration    32          0.949              1.050              0.465
 Vibration    33          0.978              0.994              0.420

 Normal termination of Gaussian 09 at Fri Apr  1 09:09:55 2016.
