 Gaussian 09, Revision B.01,
 Gaussian 09:  EM64L-G09RevB.01 12-Aug-2010

 --------------------------------------------------
 # freq=raman b3lyp/6-31+g(2df,p) geom=connectivity
 --------------------------------------------------

 ------------
 300 9000.com
 ------------
 Symbolic Z-matrix:
 Charge =  0 Multiplicity = 1

                         Standard orientation:
 ---------------------------------------------------------------------
 Center     Atomic      Atomic             Coordinates (Angstroms)
 Number     Number       Type             X           Y           Z
 ---------------------------------------------------------------------
      1          8           0       -4.990371   -0.389075    0.513575
      2          6           0       -3.766290   -0.171053   -0.203252
      3          6           0       -3.231381    1.208072    0.143546
      4          8           0       -4.145541    2.291902   -0.075746
      5          1           0       -5.062854    2.072883    0.257622
      6          6           0       -1.830339    1.526223   -0.353651
      7          8           0       -1.325798    2.683936    0.327680
      8          1           0       -0.375416    2.759619    0.024100
      9          6           0       -3.067493   -2.626751   -0.128382
     10          8           0       -4.194354   -3.283892    0.468583
     11          1           0       -3.999115   -4.250804    0.632895
     12          6           0       -2.716545   -1.187267    0.213113
     13          8           0       -1.419799   -0.882405   -0.320808
     14          6           0       -0.931674    0.393902    0.117120
     15          8           0        0.288402    0.647058   -0.593748
     16          6           0        1.511114    0.264392    0.051576
     17          6           0        2.096808   -1.016181   -0.519707
     18          8           0        1.152170   -2.095391   -0.536878
     19          1           0        0.304417   -1.612196   -0.755482
     20          6           0        3.357841   -1.555292    0.135540
     21          8           0        3.941267   -2.649078   -0.587405
     22          1           0        4.808802   -2.892651   -0.155315
     23          6           0        2.210615    2.715366    0.182964
     24          8           0        1.156038    3.423549   -0.483571
     25          1           0        1.253595    4.381706   -0.212346
     26          6           0        2.607718    1.292328   -0.175205
     27          8           0        3.689461    0.761872    0.604842
     28          6           0        4.366636   -0.418236    0.150122
     29          8           0        5.487195   -0.760103    0.979082
     30          1           0       -5.707712   -0.520593   -0.110703
     31          1           0        6.241097   -0.975510    0.425159
     32          1           0        4.714574   -0.252904   -0.848129
     33          1           0        3.142116   -1.859281    1.138513
     34          1           0        2.346391   -0.807168   -1.538983
     35          1           0        1.341775    0.145169    1.101343
     36          1           0        2.888552    1.268915   -1.207429
     37          1           0        3.092044    3.312442    0.075814
     38          1           0        1.960796    2.707932    1.223366
     39          1           0       -0.782728    0.420937    1.176357
     40          1           0       -1.799162    1.643046   -1.416797
     41          1           0       -3.123140    1.175805    1.207568
     42          1           0       -3.942872   -0.239502   -1.256358
     43          1           0       -2.636696   -1.130848    1.278637
     44          1           0       -2.206088   -3.218713    0.100666
     45          1           0       -3.209796   -2.668278   -1.188063
 ---------------------------------------------------------------------

 SCF Done:  E(RB3LYP) =  -1298.00673203     A.U. after   13 cycles

 The electronic state is 1-A.
 Alpha  occ. eigenvalues --  -19.19335 -19.18724 -19.18664 -19.18453 -19.17922
 Alpha  occ. eigenvalues --  -19.16815 -19.16293 -19.16029 -19.14670 -19.13867
 Alpha  occ. eigenvalues --  -19.13327 -10.30837 -10.30395 -10.26935 -10.25769
 Alpha  occ. eigenvalues --  -10.25570 -10.25437 -10.24958 -10.24485 -10.23967
 Alpha  occ. eigenvalues --  -10.23936 -10.23915 -10.23540  -1.10046  -1.08889
 Alpha  occ. eigenvalues --   -1.05978  -1.05133  -1.04302  -1.03894  -1.02964
 Alpha  occ. eigenvalues --   -1.02224  -1.01602  -1.00705  -0.99830  -0.82360
 Alpha  occ. eigenvalues --   -0.80261  -0.79348  -0.78004  -0.72374  -0.70120
 Alpha  occ. eigenvalues --   -0.67149  -0.64469  -0.62967  -0.62388  -0.61591
 Alpha  occ. eigenvalues --   -0.60135  -0.56496  -0.55871  -0.55289  -0.54840
 Alpha  occ. eigenvalues --   -0.53769  -0.53406  -0.52985  -0.51523  -0.51102
 Alpha  occ. eigenvalues --   -0.50687  -0.50294  -0.49343  -0.48296  -0.46907
 Alpha  occ. eigenvalues --   -0.46709  -0.45395  -0.44164  -0.43694  -0.43215
 Alpha  occ. eigenvalues --   -0.42571  -0.41723  -0.40850  -0.40315  -0.39264
 Alpha  occ. eigenvalues --   -0.38947  -0.38015  -0.37579  -0.36375  -0.35457
 Alpha  occ. eigenvalues --   -0.35250  -0.34927  -0.34070  -0.34044  -0.33883
 Alpha  occ. eigenvalues --   -0.33257  -0.31497  -0.31242  -0.30381  -0.29884
 Alpha  occ. eigenvalues --   -0.29326  -0.28649  -0.27966  -0.27381  -0.26572
 Alpha  occ. eigenvalues --   -0.26374
 Alpha virt. eigenvalues --   -0.02444  -0.02124  -0.01569  -0.00162   0.00308
 Alpha virt. eigenvalues --    0.00849   0.01910   0.02069   0.03310   0.03602
 Alpha virt. eigenvalues --    0.03913   0.04258   0.04757   0.05262   0.05450

 Mulliken atomic charges:
              1
     1  O   -0.437798
     2  C   -0.139071
     3  C    0.049543
     4  O   -0.493114
     5  H    0.349451
     6  C   -0.050927
     7  O   -0.471509
     8  H    0.442390
     9  C   -0.406106
    10  O   -0.448039
    11  H    0.351368
    12  C    0.080767
    13  O   -0.042621
    14  C   -0.032805
    15  O   -0.049603
    16  C   -0.058775
    17  C    0.093234
    18  O   -0.460496
    19  H    0.387935
    20  C    0.016926
    21  O   -0.450459
    22  H    0.337324
    23  C   -0.465826
    24  O   -0.459133
    25  H    0.364920
    26  C    0.005902
    27  O   -0.087437
    28  C   -0.058388
    29  O   -0.480548
    30  H    0.349993
    31  H    0.353275
    32  H    0.133739
    33  H    0.137991
    34  H    0.118817
    35  H    0.124287
    36  H    0.133013
    37  H    0.151159
    38  H    0.164094
    39  H    0.143027
    40  H    0.140827
    41  H    0.118612
    42  H    0.125703
    43  H    0.119256
    44  H    0.153373
    45  H    0.145728
 Sum of Mulliken atomic charges =   0.00000

 Dipole moment (field-independent basis, Debye):
    X=              2.7114    Y=              0.1151    Z=             -0.8169  Tot=              2.8342
 Quadrupole moment (field-independent basis, Debye-Ang):
   XX=           -115.3142   YY=           -134.5353   ZZ=           -142.3894
   XY=             13.6914   XZ=              0.4255   YZ=             -2.8853

  Exact polarizability: 232.569  -2.667 198.156   0.449  -0.046 144.526
 Approx polarizability: 273.413  -3.570 257.856  -0.563  -1.542 239.890

 ******    6 imaginary frequencies (negative Signs) ******

                     1                      2                      3
                     A                      A                      A
 Frequencies --  -309.4246              -298.6266              -251.0395
 Red. masses --     1.6858                 1.6679                 1.2489
 Frc consts  --     0.0951                 0.0876                 0.0464
 IR Inten    --     4.0602                 5.7989               122.8574
 Raman Activ --     0.0401                 0.0877                 1.0574

                     4                      5                      6
                     A                      A                      A
 Frequencies --  -200.9562               -83.2425               -32.7021
 Red. masses --     1.2053                 6.7245                 6.0279
 Frc consts  --     0.0287                 0.0275                 0.0038
 IR Inten    --   102.2819                 0.8434                 1.3246
 Raman Activ --     0.8356                 0.0456                 0.0209

                     7                      8                      9
                     A                      A                      A
 Frequencies --    26.7618                42.7920                63.1761
 Red. masses --     6.2700                 6.6086                 7.0204
 Frc consts  --     0.0026                 0.0071                 0.0165
 IR Inten    --     0.4875                 2.2879                 0.7699
 Raman Activ --     0.1126                 0.0452                 0.0602

                    10                     11                     12
                     A                      A                      A
 Frequencies --    83.8573                97.1949               136.5239
 Red. masses --     5.8164                 6.6247                 5.6085
 Frc consts  --     0.0241                 0.0369                 0.0616
 IR Inten    --     4.1851                 0.6446                 2.9059
 Raman Activ --     0.2624                 0.1528                 0.0650

                    13                     14                     15
                     A                      A                      A
 Frequencies --   153.8420               174.7924               181.1806
 Red. masses --     6.4150                 5.6325                 7.6299
 Frc consts  --     0.0895                 0.1014                 0.1476
 IR Inten    --     5.7912                 1.5798                 0.3901
 Raman Activ --     0.2249                 0.2144                 0.5692

                    16                     17                     18
                     A                      A                      A
 Frequencies --   205.9146               227.8219               262.6548
 Red. masses --     7.0678                 5.8813                 4.4021
 Frc consts  --     0.1766                 0.1799                 0.1789
 IR Inten    --     0.9732                 3.2924                17.7546
 Raman Activ --     1.9302                 1.6970                 0.5108

                    19                     20                     21
                     A                      A                      A
 Frequencies --   281.6340               288.9780               300.8788
 Red. masses --     4.4062                 4.7795                 5.6751
 Frc consts  --     0.2059                 0.2352                 0.3027
 IR Inten    --     0.6662                 0.6034                 0.9116
 Raman Activ --     0.0650                 0.1702                 4.3873

                    22                     23                     24
                     A                      A                      A
 Frequencies --   304.6992               312.0969               316.1625
 Red. masses --     4.9770                 5.3179                 6.7381
 Frc consts  --     0.2722                 0.3052                 0.3968
 IR Inten    --     2.2174                 8.9351                 7.0831
 Raman Activ --     0.2056                 0.5152                 4.3912

                    25                     26                     27
                     A                      A                      A
 Frequencies --   336.6963               352.0233               378.5158
 Red. masses --     6.8851                 4.6018                 5.9268
 Frc consts  --     0.4599                 0.3360                 0.5003
 IR Inten    --     8.8391                 1.7393                 0.8707
 Raman Activ --     2.1703                 0.2547                 0.7205

                    28                     29                     30
                     A                      A                      A
 Frequencies --   400.8256               421.9787               429.5793
 Red. masses --     4.9382                 6.0941                 4.8186
 Frc consts  --     0.4674                 0.6394                 0.5239
 IR Inten    --    16.5065                 5.3285                 5.1163
 Raman Activ --     1.7509                 6.2779                 0.5100

                    31                     32                     33
                     A                      A                      A
 Frequencies --   433.5043               472.8051               484.2304
 Red. masses --     5.2750                 4.6409                 4.0150
 Frc consts  --     0.5841                 0.6112                 0.5547
 IR Inten    --     2.7168                 6.5584                14.5529
 Raman Activ --     3.1158                 3.9344                 0.3579

                    34                     35                     36
                     A                      A                      A
 Frequencies --   515.9162               523.0670               565.5462
 Red. masses --     4.1393                 3.1404                 4.4870
 Frc consts  --     0.6491                 0.5062                 0.8456
 IR Inten    --    10.1826                 5.3751                25.1643
 Raman Activ --     1.8550                 3.9494                 2.2947

                    37                     38                     39
                     A                      A                      A
 Frequencies --   577.8937               592.9696               603.9075
 Red. masses --     4.3740                 3.7553                 5.0508
 Frc consts  --     0.8606                 0.7780                 1.0853
 IR Inten    --    11.5311                15.6714                30.5192
 Raman Activ --     0.8483                 1.3265                 0.2697

                    40                     41                     42
                     A                      A                      A
 Frequencies --   627.9164               666.5490               679.2343
 Red. masses --     3.5695                 1.4776                 2.3333
 Frc consts  --     0.8292                 0.3868                 0.6343
 IR Inten    --    14.8774                78.3864                29.2243
 Raman Activ --     0.6371                 1.0636                 1.7354

                    43                     44                     45
                     A                      A                      A
 Frequencies --   730.3486               733.6553               755.5874
 Red. masses --     1.0637                 1.0513                 1.0896
 Frc consts  --     0.3343                 0.3334                 0.3665
 IR Inten    --    88.7231                88.4392               127.8364
 Raman Activ --     1.7890                 1.9001                 1.6994

                    46                     47                     48
                     A                      A                      A
 Frequencies --   806.6927               838.4518               856.0523
 Red. masses --     1.1069                 1.7491                 1.6663
 Frc consts  --     0.4244                 0.7245                 0.7194
 IR Inten    --   104.0387                 5.8406                 2.7159
 Raman Activ --     3.1869                 0.7118                 0.4528

                    49                     50                     51
                     A                      A                      A
 Frequencies --   898.2704               924.8609               949.8862
 Red. masses --     1.1778                 4.5478                 4.3889
 Frc consts  --     0.5599                 2.2919                 2.3332
 IR Inten    --    98.6040               177.9209                22.0062
 Raman Activ --     0.5612                 3.7284                 0.5934

                    52                     53                     54
                     A                      A                      A
 Frequencies --   981.7352               986.0952               993.8941
 Red. masses --     5.5400                 4.2804                 6.5607
 Frc consts  --     3.1460                 2.4523                 3.8184
 IR Inten    --    19.0730                48.5170               216.9153
 Raman Activ --     3.2709                 0.9096                 1.0243

                    55                     56                     57
                     A                      A                      A
 Frequencies --  1003.4579              1005.5690              1020.1876
 Red. masses --     6.5105                 6.5740                 5.3711
 Frc consts  --     3.8625                 3.9165                 3.2936
 IR Inten    --   190.6656                23.7690               229.1241
 Raman Activ --     2.5733                 3.1504                 1.7328

                    58                     59                     60
                     A                      A                      A
 Frequencies --  1023.8543              1039.8843              1056.8647
 Red. masses --     6.9128                 5.4986                 4.3640
 Frc consts  --     4.2696                 3.5032                 2.8719
 IR Inten    --   482.0735               149.1701                25.2003
 Raman Activ --     1.6007                 1.6859                 5.4569

                    61                     62                     63
                     A                      A                      A
 Frequencies --  1064.5987              1070.0750              1084.7924
 Red. masses --     3.9074                 5.0918                 3.8626
 Frc consts  --     2.6092                 3.4352                 2.6781
 IR Inten    --   109.6600                29.9736                21.5775
 Raman Activ --     8.7503                 5.2678                11.0158

                    64                     65                     66
                     A                      A                      A
 Frequencies --  1099.6730              1103.0908              1106.7071
 Red. masses --     2.3401                 2.6762                 2.0346
 Frc consts  --     1.6673                 1.9186                 1.4682
 IR Inten    --    17.0672                63.5887                39.5758
 Raman Activ --     4.7717                 6.6273                 3.9873

                    67                     68                     69
                     A                      A                      A
 Frequencies --  1118.4289              1126.3989              1127.4893
 Red. masses --     2.5521                 2.9746                 2.3016
 Frc consts  --     1.8809                 2.2236                 1.7238
 IR Inten    --    30.3914                18.8183                14.6644
 Raman Activ --     5.7141                 3.0663                13.5452

                    70                     71                     72
                     A                      A                      A
 Frequencies --  1133.6767              1139.7529              1149.9612
 Red. masses --     2.3972                 1.6887                 2.0625
 Frc consts  --     1.8152                 1.2925                 1.6070
 IR Inten    --    24.5765                14.6303                 9.2351
 Raman Activ --     4.2092                 2.8695                 3.8776

                    73                     74                     75
                     A                      A                      A
 Frequencies --  1166.5139              1174.5096              1182.8072
 Red. masses --     2.3969                 1.7194                 2.4367
 Frc consts  --     1.9217                 1.3975                 2.0086
 IR Inten    --    18.3660                 5.0962                 1.2195
 Raman Activ --     3.6449                 2.0097                 1.0729

                    76                     77                     78
                     A                      A                      A
 Frequencies --  1197.5911              1201.7388              1212.1079
 Red. masses --     1.2698                 1.5196                 1.4508
 Frc consts  --     1.0730                 1.2930                 1.2559
 IR Inten    --    32.6398                 3.1939                 2.5112
 Raman Activ --     0.4368                 4.0598                 0.8964

                    79                     80                     81
                     A                      A                      A
 Frequencies --  1239.0385              1249.6736              1251.6320
 Red. masses --     1.2391                 1.1908                 1.2586
 Frc consts  --     1.1208                 1.0957                 1.1617
 IR Inten    --    13.0049                23.3373                19.1883
 Raman Activ --     0.4065                 1.9094                 2.3697

                    82                     83                     84
                     A                      A                      A
 Frequencies --  1261.5493              1277.6381              1285.9449
 Red. masses --     1.3060                 1.3531                 1.3034
 Frc consts  --     1.2246                 1.3014                 1.2699
 IR Inten    --     6.9271                23.1354                11.9887
 Raman Activ --     1.9305                 1.3954                 3.5320

                    85                     86                     87
                     A                      A                      A
 Frequencies --  1288.8420              1296.1987              1302.0617
 Red. masses --     1.3395                 1.2801                 1.3980
 Frc consts  --     1.3110                 1.2672                 1.3965
 IR Inten    --    35.1025                13.5422                28.2091
 Raman Activ --     4.8579                 5.1769                 4.4753

                    88                     89                     90
                     A                      A                      A
 Frequencies --  1303.4018              1314.0880              1322.1150
 Red. masses --     1.2218                 1.2240                 1.2945
 Frc consts  --     1.2229                 1.2453                 1.3331
 IR Inten    --    20.3090                13.4160                17.2848
 Raman Activ --     6.6113                 7.8097                 4.5997

                    91                     92                     93
                     A                      A                      A
 Frequencies --  1338.6709              1349.4202              1354.1136
 Red. masses --     1.2736                 1.1416                 1.3274
 Frc consts  --     1.3447                 1.2247                 1.4341
 IR Inten    --    16.9467                53.3987                 2.8355
 Raman Activ --     2.5598                 3.2275                 5.6801

                    94                     95                     96
                     A                      A                      A
 Frequencies --  1358.1933              1363.9216              1367.3118
 Red. masses --     1.3852                 1.2599                 1.3660
 Frc consts  --     1.5055                 1.3809                 1.5046
 IR Inten    --    14.1902                19.8441                28.2326
 Raman Activ --     5.9362                 7.7997                 3.9989

                    97                     98                     99
                     A                      A                      A
 Frequencies --  1377.7693              1387.2023              1388.6732
 Red. masses --     1.2836                 1.4701                 1.5111
 Frc consts  --     1.4356                 1.6668                 1.7169
 IR Inten    --     8.7146                 8.7188                 1.7247
 Raman Activ --     0.6878                 2.2159                 3.6051

                   100                    101                    102
                     A                      A                      A
 Frequencies --  1417.3882              1420.1005              1444.5312
 Red. masses --     1.4408                 1.4950                 1.3357
 Frc consts  --     1.7054                 1.7763                 1.6421
 IR Inten    --    27.6646                20.5021                18.0538
 Raman Activ --     1.8734                 1.9436                 2.3462

                   103                    104                    105
                     A                      A                      A
 Frequencies --  1459.8711              1467.2375              1476.4892
 Red. masses --     1.1015                 1.0744                 1.3731
 Frc consts  --     1.3831                 1.3627                 1.7637
 IR Inten    --     2.4675                10.1670                18.0088
 Raman Activ --     3.1696                 5.4203                 0.3404

                   106                    107                    108
                     A                      A                      A
 Frequencies --  1506.7953              1527.5635              3244.9001
 Red. masses --     1.2535                 1.2554                 1.0645
 Frc consts  --     1.6769                 1.7260                 6.6041
 IR Inten    --    55.8925                53.3260               568.6235
 Raman Activ --     1.4727                 1.6773                52.9372

                   109                    110                    111
                     A                      A                      A
 Frequencies --  3252.1638              3255.4031              3257.7102
 Red. masses --     1.0633                 1.0750                 1.0813
 Frc consts  --     6.6257                 6.7123                 6.7612
 IR Inten    --    18.9871                19.2493                76.6176
 Raman Activ --    32.7648               167.7308                11.8988

                   112                    113                    114
                     A                      A                      A
 Frequencies --  3259.9676              3267.9456              3270.7669
 Red. masses --     1.0632                 1.0805                 1.0827
 Frc consts  --     6.6570                 6.7989                 6.8244
 IR Inten    --   148.7856                10.5270                 2.8225
 Raman Activ --   224.4656                82.4317                24.3441

                   115                    116                    117
                     A                      A                      A
 Frequencies --  3274.6510              3286.8876              3286.9684
 Red. masses --     1.0837                 1.0864                 1.0865
 Frc consts  --     6.8468                 6.9156                 6.9164
 IR Inten    --    24.9809                15.4627                 7.7984
 Raman Activ --   189.2865                10.3223                12.6686

                   118                    119                    120
                     A                      A                      A
 Frequencies --  3293.3039              3297.5534              3303.2955
 Red. masses --     1.0852                 1.0873                 1.0883
 Frc consts  --     6.9347                 6.9662                 6.9965
 IR Inten    --     6.7017                40.4602                43.8229
 Raman Activ --    70.7719                25.1383                12.0739

                   121                    122                    123
                     A                      A                      A
 Frequencies --  3306.8528              3307.3999              3324.9477
 Red. masses --     1.1026                 1.1007                 1.0662
 Frc consts  --     7.1040                 7.0937                 6.9449
 IR Inten    --    32.0229               108.7518               372.4985
 Raman Activ --    48.4576                22.6723               141.5145

                   124                    125                    126
                     A                      A                      A
 Frequencies --  3354.0679              3357.8147              3358.5722
 Red. masses --     1.0659                 1.0669                 1.0698
 Frc consts  --     7.0651                 7.0871                 7.1101
 IR Inten    --    35.4346                82.9930                48.8740
 Raman Activ --   126.5077               124.3852               153.5618

                   127                    128                    129
                     A                      A                      A
 Frequencies --  3363.4783              3876.1322              3877.4911
 Red. masses --     1.0659                 1.0676                 1.0675
 Frc consts  --     7.1044                 9.4504                 9.4564
 IR Inten    --    31.7229                82.5352                84.5403
 Raman Activ --   139.3513                89.8466               104.9304

 - Thermochemistry -
 -------------------
 Temperature   298.150 Kelvin.  Pressure   1.00000 Atm.
 Atom     1 has atomic number  8 and mass  15.99491

 Molecular mass:   342.11621 amu.
 Principal axes and moments of inertia in atomic units:
                           1         2         3
     Eigenvalues --  4536.58953********************
           X            0.99997   0.00746  -0.00065
           Y           -0.00746   0.99997   0.00098
           Z            0.00066  -0.00097   1.00000
 This molecule is an asymmetric top.
 Rotational symmetry number  1.
 Warning -- assumption of classical behavior for rotation
           may cause significant error
 Rotational temperatures (Kelvin)      0.01909     0.00699     0.00529
 Rotational constants (GHZ):           0.39782     0.14562     0.11028
    6 imaginary frequencies ignored.
 Zero-point vibrational energy     972953.3 (Joules/Mol)
                                  232.54142 (Kcal/Mol)
 Warning -- explicit consideration of  33 degrees of freedom as
           vibrations may cause significant error
 Vibrational temperatures:     38.50    61.57    90.90   120.65   139.84
          (Kelvin)            196.43   221.34   251.49   260.68   296.26
                              327.78   377.90   405.21   415.77   432.90
                              438.39   449.04   454.89   484.43   506.48
                              544.60   576.70   607.13   618.07   623.72
                              680.26   696.70   742.29   752.58   813.69
                              831.46   853.15   868.89   903.43   959.01
                              977.27  1050.81  1055.57  1087.12  1160.65
                             1206.34  1231.67  1292.41  1330.67  1366.67
                             1412.50  1418.77  1429.99  1443.75  1446.79
                             1467.82  1473.10  1496.16  1520.59  1531.72
                             1539.60  1560.77  1582.18  1587.10  1592.30
                             1609.17  1620.63  1622.20  1631.11  1639.85
                             1654.54  1678.35  1689.86  1701.79  1723.06
                             1729.03  1743.95  1782.70  1798.00  1800.82
                             1815.09  1838.23  1850.19  1854.35  1864.94
                             1873.37  1875.30  1890.68  1902.23  1926.05
                             1941.51  1948.27  1954.13  1962.38  1967.25
                             1982.30  1995.87  1997.99  2039.30  2043.21
                             2078.36  2100.43  2111.02  2124.34  2167.94
                             2197.82  4668.68  4679.13  4683.79  4687.11
                             4690.36  4701.84  4705.90  4711.49  4729.09
                             4729.21  4738.32  4744.44  4752.70  4757.82
                             4758.60  4783.85  4825.75  4831.14  4832.23
                             4839.29  5576.88  5578.84

 Zero-point correction=                           0.370578 (Hartree/Particle)
 Thermal correction to Energy=                    0.389831
 Thermal correction to Enthalpy=                  0.390775
 Thermal correction to Gibbs Free Energy=         0.323086
 Sum of electronic and zero-point Energies=          -1297.636154
 Sum of electronic and thermal Energies=             -1297.616901
 Sum of electronic and thermal Enthalpies=           -1297.615957
 Sum of electronic and thermal Free Energies=        -1297.683646

                     E (Thermal)             CV                S
                      KCal/Mol        Cal/Mol-Kelvin    Cal/Mol-Kelvin
 Total                  244.623             78.075            142.464
 Electronic               0.000              0.000              0.000
 Translational            0.889              2.981             43.384
 Rotational               0.889              2.981             35.174
 Vibrational            242.845             72.114             63.905
 Vibration     1          0.593              1.984              6.056
 Vibration     2          0.595              1.980              5.125
 Vibration     3          0.597              1.972              4.355
 Vibration     4          0.601              1.960              3.799
 Vibration     5          0.603              1.951              3.510
 Vibration     6          0.614              1.917              2.852
 Vibration     7          0.619              1.898              2.624
 Vibration     8          0.627              1.873              2.383
 Vibration     9          0.630              1.865              2.316
 Vibration    10          0.640              1.831              2.080
 Vibration    11          0.651              1.799              1.896
 Vibration    12          0.670              1.741              1.644
 Vibration    13          0.681              1.708              1.524
 Vibration    14          0.686              1.694              1.480
 Vibration    15          0.693              1.672              1.412
 Vibration    16          0.696              1.665              1.391
 Vibration    17          0.700              1.651              1.351
 Vibration    18          0.703              1.643              1.330
 Vibration    19          0.717              1.602              1.228
 Vibration    20          0.729              1.571              1.157
 Vibration    21          0.749              1.516              1.045
 Vibration    22          0.767              1.468              0.960
 Vibration    23          0.784              1.422              0.885
 Vibration    24          0.791              1.406              0.860
 Vibration    25          0.794              1.397              0.847
 Vibration    26          0.830              1.310              0.730
 Vibration    27          0.840              1.285              0.699
 Vibration    28          0.871              1.215              0.620
 Vibration    29          0.878              1.199              0.603
 Vibration    30          0.921              1.106              0.513
 Vibration    31          0.934              1.079              0.489
 Vibration    32          0.951              1.047              0.462
 Vibration    33          0.962              1.024              0.443

 Normal termination of Gaussian 09 at Fri Feb 12 12:28:08 2016.
