 Gaussian 09, Revision B.01,
 Gaussian 09:  EM64L-G09RevB.01 12-Aug-2010

 -------------------------------------------------
 # freq=raman b3lyp/6-31+g(2d,p) geom=connectivity
 -------------------------------------------------

 -----------------
 350 9908/9908.com
 -----------------
 Symbolic Z-matrix:
 Charge =  0 Multiplicity = 1

                         Standard orientation:
 ---------------------------------------------------------------------
 Center     Atomic      Atomic             Coordinates (Angstroms)
 Number     Number       Type             X           Y           Z
 ---------------------------------------------------------------------
      1          8           0       -5.046421   -0.623776    0.447649
      2          6           0       -3.790555   -0.175893   -0.084827
      3          6           0       -3.332867    1.248917    0.179632
      4          8           0       -4.240256    2.181503   -0.425997
      5          1           0       -5.123948    1.918120   -0.039267
      6          6           0       -1.883416    1.557948   -0.160311
      7          8           0       -1.347715    2.739678    0.450654
      8          1           0       -0.438863    2.914623    0.071121
      9          6           0       -2.925392   -2.578124   -0.200081
     10          8           0       -4.022081   -3.168542    0.512573
     11          1           0       -4.020926   -4.134284    0.250678
     12          6           0       -2.694589   -1.158575    0.294483
     13          8           0       -1.437727   -0.774269   -0.279775
     14          6           0       -0.927452    0.453042    0.258905
     15          8           0        0.263816    0.648085   -0.516615
     16          6           0        1.520796    0.264750    0.062032
     17          6           0        2.095398   -0.995775   -0.562845
     18          8           0        1.210341   -2.121529   -0.635831
     19          1           0        0.299408   -1.709243   -0.657324
     20          6           0        3.326953   -1.555693    0.130167
     21          8           0        3.852978   -2.831278   -0.263058
     22          1           0        4.771663   -3.008563    0.089111
     23          6           0        2.299469    2.712059    0.143283
     24          8           0        1.128952    3.392334   -0.333621
     25          1           0        1.341005    4.360473   -0.200561
     26          6           0        2.637938    1.266264   -0.182286
     27          8           0        3.828142    0.793626    0.464625
     28          6           0        4.320338   -0.428805   -0.102692
     29          8           0        5.383448   -0.641682    0.837695
     30          1           0        6.178345   -0.904507    0.367949
     31          1           0        3.136246    3.294785   -0.180962
     32          1           0        2.269078    2.778375    1.210794
     33          1           0        2.837653    1.239618   -1.233144
     34          1           0        1.398383    0.116956    1.114682
     35          1           0        2.378334   -0.747905   -1.564547
     36          1           0        3.119291   -1.601096    1.178840
     37          1           0        4.654958   -0.334970   -1.114682
     38          1           0       -5.603614   -0.938141   -0.268110
     39          1           0       -3.150573   -2.558069   -1.245926
     40          1           0       -2.041771   -3.159286   -0.037709
     41          1           0       -2.598502   -1.174511    1.360041
     42          1           0       -3.891473   -0.248039   -1.147611
     43          1           0       -3.421624    1.393544    1.236091
     44          1           0       -1.812424    1.673000   -1.221736
     45          1           0       -0.748193    0.415247    1.313105
 ---------------------------------------------------------------------

 SCF Done:  E(RB3LYP) =  -1297.96564001     A.U. after   13 cycles

 The electronic state is 1-A.
 Alpha  occ. eigenvalues --  -19.19499 -19.18396 -19.18355 -19.17565 -19.17340
 Alpha  occ. eigenvalues --  -19.16506 -19.16279 -19.15932 -19.15376 -19.13801
 Alpha  occ. eigenvalues --  -19.12932 -10.30486 -10.30314 -10.26366 -10.25961
 Alpha  occ. eigenvalues --  -10.25720 -10.24776 -10.24719 -10.24483 -10.24322
 Alpha  occ. eigenvalues --  -10.24099 -10.24075 -10.23755  -1.10054  -1.09499
 Alpha  occ. eigenvalues --   -1.06196  -1.04900  -1.03683  -1.03261  -1.02646
 Alpha  occ. eigenvalues --   -1.02256  -1.02067  -1.00558  -0.99993  -0.82510
 Alpha  occ. eigenvalues --   -0.79741  -0.79690  -0.78088  -0.72255  -0.69760
 Alpha  occ. eigenvalues --   -0.67156  -0.64620  -0.62985  -0.62235  -0.61937
 Alpha  occ. eigenvalues --   -0.59913  -0.56658  -0.55983  -0.55138  -0.54803
 Alpha  occ. eigenvalues --   -0.54034  -0.53308  -0.52668  -0.51490  -0.50993
 Alpha  occ. eigenvalues --   -0.50404  -0.49968  -0.49334  -0.48570  -0.46877
 Alpha  occ. eigenvalues --   -0.46464  -0.44918  -0.43988  -0.43815  -0.42886
 Alpha  occ. eigenvalues --   -0.42182  -0.41700  -0.41100  -0.40300  -0.39434
 Alpha  occ. eigenvalues --   -0.38845  -0.38344  -0.37552  -0.36531  -0.35884
 Alpha  occ. eigenvalues --   -0.35114  -0.34806  -0.34491  -0.33909  -0.33165
 Alpha  occ. eigenvalues --   -0.32617  -0.31413  -0.30758  -0.30493  -0.29658
 Alpha  occ. eigenvalues --   -0.29210  -0.28639  -0.28178  -0.27199  -0.26369
 Alpha  occ. eigenvalues --   -0.25977
 Alpha virt. eigenvalues --   -0.02389  -0.02069  -0.01589  -0.00237   0.00314
 Alpha virt. eigenvalues --    0.00971   0.01775   0.02002   0.03172   0.03463
 Alpha virt. eigenvalues --    0.03613   0.04315   0.04486   0.05162   0.05659

 Mulliken atomic charges:
              1
     1  O   -0.524109
     2  C   -0.060483
     3  C    0.280524
     4  O   -0.539906
     5  H    0.337748
     6  C   -0.084707
     7  O   -0.597547
     8  H    0.435745
     9  C   -0.110562
    10  O   -0.508416
    11  H    0.332406
    12  C    0.030299
    13  O   -0.236364
    14  C    0.190212
    15  O   -0.233911
    16  C    0.059067
    17  C    0.364795
    18  O   -0.580515
    19  H    0.376280
    20  C   -0.001673
    21  O   -0.559999
    22  H    0.338770
    23  C   -0.451112
    24  O   -0.541926
    25  H    0.360579
    26  C    0.018471
    27  O   -0.236967
    28  C    0.195483
    29  O   -0.531584
    30  H    0.326629
    31  H    0.144726
    32  H    0.156625
    33  H    0.116358
    34  H    0.111092
    35  H    0.103121
    36  H    0.124274
    37  H    0.141160
    38  H    0.341317
    39  H    0.136454
    40  H    0.151262
    41  H    0.113605
    42  H    0.114269
    43  H    0.124398
    44  H    0.137814
    45  H    0.136299
 Sum of Mulliken atomic charges =   0.00000

 Dipole moment (field-independent basis, Debye):
    X=              2.8836    Y=              0.1944    Z=             -1.4860  Tot=              3.2498
 Quadrupole moment (field-independent basis, Debye-Ang):
   XX=           -115.6941   YY=           -134.3231   ZZ=           -141.7384
   XY=             16.8558   XZ=              0.6392   YZ=              0.6731

  Exact polarizability: 232.661  -2.038 198.555   0.999   0.632 144.301
 Approx polarizability: 273.716  -1.538 258.574  -0.144   0.310 240.561

 ******    6 imaginary frequencies (negative Signs) ******

                     1                      2                      3
                     A                      A                      A
 Frequencies --  -317.7534              -276.2816              -270.8838
 Red. masses --     1.6887                 1.1877                 1.2467
 Frc consts  --     0.1005                 0.0534                 0.0539
 IR Inten    --     1.9621               103.2615               109.2727
 Raman Activ --     0.0258                 1.1045                 0.8627

                     4                      5                      6
                     A                      A                      A
 Frequencies --  -185.3371               -86.4149               -62.6585
 Red. masses --     1.8235                 6.2499                 6.1975
 Frc consts  --     0.0369                 0.0275                 0.0143
 IR Inten    --     8.9262                 0.9569                 0.8080
 Raman Activ --     0.2757                 0.0690                 0.0257

                     7                      8                      9
                     A                      A                      A
 Frequencies --    17.8400                51.0591                64.9281
 Red. masses --     6.0657                 6.5902                 6.0499
 Frc consts  --     0.0011                 0.0101                 0.0150
 IR Inten    --     2.2712                 0.6963                 3.3717
 Raman Activ --     0.0281                 0.1033                 0.0440

                    10                     11                     12
                     A                      A                      A
 Frequencies --    74.0459                92.5889               116.0324
 Red. masses --     6.3962                 7.0280                 5.6028
 Frc consts  --     0.0207                 0.0355                 0.0444
 IR Inten    --     0.2819                 0.0485                 0.8749
 Raman Activ --     0.1851                 0.1101                 0.0653

                    13                     14                     15
                     A                      A                      A
 Frequencies --   161.6654               180.1878               199.0433
 Red. masses --     6.2319                 5.6582                 6.2771
 Frc consts  --     0.0960                 0.1082                 0.1465
 IR Inten    --     3.0837                 4.3248                 0.6015
 Raman Activ --     0.5156                 0.8600                 0.9003

                    16                     17                     18
                     A                      A                      A
 Frequencies --   205.8146               231.4112               260.6902
 Red. masses --     6.6161                 6.0004                 5.2669
 Frc consts  --     0.1651                 0.1893                 0.2109
 IR Inten    --     0.1464                 3.3641                12.7171
 Raman Activ --     0.9860                 1.1369                 0.4961

                    19                     20                     21
                     A                      A                      A
 Frequencies --   269.7405               290.2436               297.3016
 Red. masses --     4.8504                 4.6615                 5.7290
 Frc consts  --     0.2079                 0.2314                 0.2983
 IR Inten    --     4.6850                 1.5644                 1.6383
 Raman Activ --     0.1154                 0.1990                 1.0655

                    22                     23                     24
                     A                      A                      A
 Frequencies --   304.9748               311.9300               333.8925
 Red. masses --     6.8078                 5.1400                 6.1642
 Frc consts  --     0.3731                 0.2947                 0.4049
 IR Inten    --     7.8184                 1.8521                 2.3109
 Raman Activ --     1.6246                 2.1022                 1.7089

                    25                     26                     27
                     A                      A                      A
 Frequencies --   343.0468               355.9299               377.3114
 Red. masses --     5.8957                 4.8046                 6.9085
 Frc consts  --     0.4088                 0.3586                 0.5795
 IR Inten    --    19.5902                 1.7630                 3.3040
 Raman Activ --     3.8391                 1.0896                 1.4111

                    28                     29                     30
                     A                      A                      A
 Frequencies --   402.8661               414.2651               434.5183
 Red. masses --     4.2541                 6.3534                 4.8719
 Frc consts  --     0.4068                 0.6424                 0.5420
 IR Inten    --    14.7394                 2.1692                 6.8308
 Raman Activ --     0.9916                 4.9040                 4.3525

                    31                     32                     33
                     A                      A                      A
 Frequencies --   447.2789               477.3360               495.4503
 Red. masses --     4.6096                 4.1315                 4.3860
 Frc consts  --     0.5433                 0.5546                 0.6343
 IR Inten    --     3.0982                 2.6005                12.6050
 Raman Activ --     2.0256                 3.3822                 1.2497

                    34                     35                     36
                     A                      A                      A
 Frequencies --   517.1024               521.5374               562.9008
 Red. masses --     3.7944                 3.1429                 4.2375
 Frc consts  --     0.5978                 0.5037                 0.7911
 IR Inten    --    14.4488                 2.5294                22.1356
 Raman Activ --     0.9250                 3.8683                 2.8480

                    37                     38                     39
                     A                      A                      A
 Frequencies --   597.3013               606.2998               628.5895
 Red. masses --     3.9516                 3.6247                 4.1083
 Frc consts  --     0.8306                 0.7850                 0.9564
 IR Inten    --    13.7185                17.4488                 5.5471
 Raman Activ --     0.2268                 1.0381                 0.5377

                    40                     41                     42
                     A                      A                      A
 Frequencies --   639.1412               665.8857               694.6332
 Red. masses --     6.3424                 1.0506                 5.5681
 Frc consts  --     1.5265                 0.2745                 1.5829
 IR Inten    --    39.3402                85.0656                11.4781
 Raman Activ --     0.4725                 2.0399                 1.4475

                    43                     44                     45
                     A                      A                      A
 Frequencies --   733.8693               742.5498               753.4015
 Red. masses --     1.0976                 1.0789                 1.0939
 Frc consts  --     0.3483                 0.3505                 0.3658
 IR Inten    --   112.2746                95.5874                96.6601
 Raman Activ --     1.5373                 1.8402                 1.5864

                    46                     47                     48
                     A                      A                      A
 Frequencies --   794.7793               856.0883               864.4665
 Red. masses --     1.0899                 1.5336                 1.7351
 Frc consts  --     0.4056                 0.6622                 0.7640
 IR Inten    --    73.8720                20.5032                 9.8523
 Raman Activ --     1.1614                 0.5323                 1.1399

                    49                     50                     51
                     A                      A                      A
 Frequencies --   887.5834               919.0058               943.7129
 Red. masses --     1.2510                 4.5665                 5.1768
 Frc consts  --     0.5807                 2.2723                 2.7164
 IR Inten    --    40.4161                94.4096                52.9090
 Raman Activ --     0.8459                 3.0893                 0.4273

                    52                     53                     54
                     A                      A                      A
 Frequencies --   977.4677               982.1424               985.5208
 Red. masses --     4.8810                 6.0974                 4.8371
 Frc consts  --     2.7477                 3.4653                 2.7680
 IR Inten    --    20.0087               180.6312               237.8440
 Raman Activ --     0.8573                 1.9556                 4.0460

                    55                     56                     57
                     A                      A                      A
 Frequencies --  1001.5213              1010.5152              1020.0547
 Red. masses --     5.6500                 6.2921                 5.2804
 Frc consts  --     3.3390                 3.7855                 3.2371
 IR Inten    --   118.0896                22.2392                77.6253
 Raman Activ --     3.3257                 1.7770                 2.1710

                    58                     59                     60
                     A                      A                      A
 Frequencies --  1040.1577              1047.5340              1059.7113
 Red. masses --     5.0817                 4.9297                 4.6212
 Frc consts  --     3.2394                 3.1872                 3.0576
 IR Inten    --   393.5608               109.6341                85.6593
 Raman Activ --     3.2042                 6.3041                 9.3357

                    61                     62                     63
                     A                      A                      A
 Frequencies --  1071.3891              1073.9539              1078.2024
 Red. masses --     4.4523                 4.3159                 2.8176
 Frc consts  --     3.0112                 2.9328                 1.9299
 IR Inten    --    54.4413                29.4289               124.3687
 Raman Activ --     7.9119                 2.1212                 2.4442

                    64                     65                     66
                     A                      A                      A
 Frequencies --  1085.3674              1091.9055              1113.0552
 Red. masses --     2.5167                 3.7247                 2.6209
 Frc consts  --     1.7467                 2.6164                 1.9131
 IR Inten    --     2.4154                13.5807                66.2699
 Raman Activ --    10.5202                 7.9836                 2.7578

                    67                     68                     69
                     A                      A                      A
 Frequencies --  1120.1790              1124.1848              1130.6953
 Red. masses --     2.2337                 2.6165                 2.3793
 Frc consts  --     1.6514                 1.9483                 1.7922
 IR Inten    --    12.2119                 9.4912                17.4393
 Raman Activ --     3.9009                 5.2064                13.3195

                    70                     71                     72
                     A                      A                      A
 Frequencies --  1139.5332              1147.1729              1161.9542
 Red. masses --     2.1673                 2.7193                 1.8181
 Frc consts  --     1.6581                 2.1085                 1.4462
 IR Inten    --    47.5421                48.3351                 7.8829
 Raman Activ --     4.4779                 4.3789                 5.1548

                    73                     74                     75
                     A                      A                      A
 Frequencies --  1166.2812              1179.3966              1195.8553
 Red. masses --     2.0419                 1.6580                 1.4447
 Frc consts  --     1.6364                 1.3588                 1.2172
 IR Inten    --    31.1584                10.2147                22.7582
 Raman Activ --     1.3319                 2.7040                 6.2042

                    76                     77                     78
                     A                      A                      A
 Frequencies --  1199.0241              1203.7853              1219.2217
 Red. masses --     1.9739                 1.4640                 1.1777
 Frc consts  --     1.6720                 1.2499                 1.0315
 IR Inten    --     5.3828                 7.8222                15.9891
 Raman Activ --     3.2817                 0.3468                 3.1224

                    79                     80                     81
                     A                      A                      A
 Frequencies --  1230.6084              1233.5215              1264.7533
 Red. masses --     1.4181                 1.4826                 1.3953
 Frc consts  --     1.2653                 1.3292                 1.3151
 IR Inten    --     5.5988                 3.3264                42.1304
 Raman Activ --     1.3211                 1.9284                 3.1730

                    82                     83                     84
                     A                      A                      A
 Frequencies --  1268.8206              1276.7970              1288.7786
 Red. masses --     1.1680                 1.3372                 1.2512
 Frc consts  --     1.1079                 1.2844                 1.2244
 IR Inten    --     3.9494                 9.0637                 0.4101
 Raman Activ --     3.4103                 1.6578                 1.5873

                    85                     86                     87
                     A                      A                      A
 Frequencies --  1294.5064              1307.8991              1313.9984
 Red. masses --     1.3043                 1.3543                 1.2354
 Frc consts  --     1.2877                 1.3649                 1.2568
 IR Inten    --    26.4599                21.9328                 4.7577
 Raman Activ --     1.9662                 1.3942                 2.6254

                    88                     89                     90
                     A                      A                      A
 Frequencies --  1316.5059              1325.3692              1326.7978
 Red. masses --     1.2104                 1.2838                 1.3131
 Frc consts  --     1.2360                 1.3287                 1.3619
 IR Inten    --    17.4465                32.9500                26.5072
 Raman Activ --     5.8860                 1.2306                13.2083

                    91                     92                     93
                     A                      A                      A
 Frequencies --  1333.4963              1346.9095              1352.2679
 Red. masses --     1.3272                 1.2085                 1.3728
 Frc consts  --     1.3905                 1.2917                 1.4790
 IR Inten    --    13.9097                20.7136                 8.1036
 Raman Activ --     1.6911                 4.2780                 0.7918

                    94                     95                     96
                     A                      A                      A
 Frequencies --  1357.3272              1366.6013              1371.9591
 Red. masses --     1.3724                 1.3990                 1.6039
 Frc consts  --     1.4897                 1.5394                 1.7788
 IR Inten    --    37.3933                 2.2324                20.4015
 Raman Activ --     4.3059                 6.7230                 9.0632

                    97                     98                     99
                     A                      A                      A
 Frequencies --  1388.0338              1398.7382              1408.7746
 Red. masses --     1.2147                 1.3964                 1.2623
 Frc consts  --     1.3788                 1.6097                 1.4760
 IR Inten    --    22.1729                13.2021                 1.3102
 Raman Activ --     3.9909                 1.9974                 4.4891

                   100                    101                    102
                     A                      A                      A
 Frequencies --  1414.5874              1467.1501              1475.3474
 Red. masses --     1.3557                 1.2497                 1.0799
 Frc consts  --     1.5984                 1.5849                 1.3850
 IR Inten    --     5.6039                59.1241                 4.4131
 Raman Activ --     2.3244                 1.3022                 5.3169

                   103                    104                    105
                     A                      A                      A
 Frequencies --  1476.0726              1480.1754              1485.7502
 Red. masses --     1.1152                 1.3253                 1.4021
 Frc consts  --     1.4316                 1.7108                 1.8235
 IR Inten    --     7.8598                11.8602                33.0879
 Raman Activ --     5.3047                 0.7142                 1.1474

                   106                    107                    108
                     A                      A                      A
 Frequencies --  1506.1912              1521.9722              3240.1259
 Red. masses --     1.2927                 1.2428                 1.0682
 Frc consts  --     1.7278                 1.6961                 6.6074
 IR Inten    --    33.6524                47.2099               841.0502
 Raman Activ --     1.8191                 1.4198               112.3006

                   109                    110                    111
                     A                      A                      A
 Frequencies --  3250.4737              3256.2598              3259.2576
 Red. masses --     1.0821                 1.0574                 1.0640
 Frc consts  --     6.7364                 6.6055                 6.6593
 IR Inten    --    96.7181                26.3748                19.6893
 Raman Activ --     1.3384                41.7208               370.2626

                   112                    113                    114
                     A                      A                      A
 Frequencies --  3260.6492              3264.8098              3270.4306
 Red. masses --     1.0751                 1.0800                 1.0828
 Frc consts  --     6.7345                 6.7825                 6.8238
 IR Inten    --    29.8506                41.3019                11.7717
 Raman Activ --    58.2474                84.8270                 9.5266

                   115                    116                    117
                     A                      A                      A
 Frequencies --  3284.5447              3285.0671              3290.7983
 Red. masses --     1.0846                 1.0850                 1.0860
 Frc consts  --     6.8938                 6.8987                 6.9291
 IR Inten    --     4.9333                15.0800                35.7406
 Raman Activ --    65.8988                23.2875                13.4862

                   118                    119                    120
                     A                      A                      A
 Frequencies --  3292.9167              3303.6370              3305.0692
 Red. masses --     1.0860                 1.0902                 1.0885
 Frc consts  --     6.9382                 7.0105                 7.0055
 IR Inten    --     6.4711                24.8090                27.3217
 Raman Activ --    79.1192                36.6293                27.8233

                   121                    122                    123
                     A                      A                      A
 Frequencies --  3307.8668              3319.8521              3325.0848
 Red. masses --     1.0992                 1.1090                 1.0674
 Frc consts  --     7.0861                 7.2016                 6.9530
 IR Inten    --   124.4568                32.4005               365.9616
 Raman Activ --    48.0259                30.7412               160.8592

                   124                    125                    126
                     A                      A                      A
 Frequencies --  3358.9703              3368.2357              3372.1427
 Red. masses --     1.0666                 1.0654                 1.0666
 Frc consts  --     7.0900                 7.1214                 7.1457
 IR Inten    --    26.3917                35.0486                50.7538
 Raman Activ --   169.2807               102.8326               143.9664

                   127                    128                    129
                     A                      A                      A
 Frequencies --  3373.9935              3889.3485              3889.4395
 Red. masses --     1.0666                 1.0676                 1.0674
 Frc consts  --     7.1536                 9.5149                 9.5139
 IR Inten    --    66.0671               112.5685                21.0473
 Raman Activ --   147.1632                34.3526               174.7554

 - Thermochemistry -
 -------------------
 Temperature   298.150 Kelvin.  Pressure   1.00000 Atm.
 Atom     1 has atomic number  8 and mass  15.99491

 Molecular mass:   342.11621 amu.
 Principal axes and moments of inertia in atomic units:
                           1         2         3
     Eigenvalues --  4492.05521********************
           X            0.99996   0.00838  -0.00003
           Y           -0.00838   0.99996   0.00198
           Z            0.00005  -0.00198   1.00000
 This molecule is an asymmetric top.
 Rotational symmetry number  1.
 Warning -- assumption of classical behavior for rotation
           may cause significant error
 Rotational temperatures (Kelvin)      0.01928     0.00703     0.00531
 Rotational constants (GHZ):           0.40176     0.14640     0.11062
    6 imaginary frequencies ignored.
 Zero-point vibrational energy     975762.2 (Joules/Mol)
                                  233.21277 (Kcal/Mol)
 Warning -- explicit consideration of  32 degrees of freedom as
           vibrations may cause significant error
 Vibrational temperatures:     25.67    73.46    93.42   106.54   133.21
          (Kelvin)            166.94   232.60   259.25   286.38   296.12
                              332.95   375.07   388.10   417.60   427.75
                              438.79   448.80   480.40   493.57   512.10
                              542.87   579.63   596.03   625.17   643.53
                              686.78   712.84   743.99   750.38   809.89
                              859.38   872.33   904.40   919.58   958.06
                              999.42  1055.87  1068.36  1083.98  1143.51
                             1231.72  1243.77  1277.03  1322.24  1357.79
                             1406.36  1413.08  1417.94  1440.96  1453.90
                             1467.63  1496.55  1507.17  1524.69  1541.49
                             1545.18  1551.29  1561.60  1571.01  1601.44
                             1611.69  1617.45  1626.82  1639.53  1650.52
                             1671.79  1678.02  1696.89  1720.57  1725.13
                             1731.98  1754.19  1770.57  1774.76  1819.70
                             1825.55  1837.02  1854.26  1862.50  1881.77
                             1890.55  1894.16  1906.91  1908.96  1918.60
                             1937.90  1945.61  1952.89  1966.23  1973.94
                             1997.07  2012.47  2026.91  2035.27  2110.90
                             2122.69  2123.74  2129.64  2137.66  2167.07
                             2189.78  4661.81  4676.70  4685.03  4689.34
                             4691.34  4697.33  4705.41  4725.72  4726.47
                             4734.72  4737.77  4753.19  4755.25  4759.28
                             4776.52  4784.05  4832.80  4846.13  4851.76
                             4854.42  5595.90  5596.03

 Zero-point correction=                           0.371648 (Hartree/Particle)
 Thermal correction to Energy=                    0.390823
 Thermal correction to Enthalpy=                  0.391767
 Thermal correction to Gibbs Free Energy=         0.323882
 Sum of electronic and zero-point Energies=          -1297.593992
 Sum of electronic and thermal Energies=             -1297.574817
 Sum of electronic and thermal Enthalpies=           -1297.573873
 Sum of electronic and thermal Free Energies=        -1297.641758

                     E (Thermal)             CV                S
                      KCal/Mol        Cal/Mol-Kelvin    Cal/Mol-Kelvin
 Total                  245.245             77.682            142.875
 Electronic               0.000              0.000              0.000
 Translational            0.889              2.981             43.384
 Rotational               0.889              2.981             35.156
 Vibrational            243.467             71.721             64.335
 Vibration     1          0.593              1.986              6.861
 Vibration     2          0.595              1.977              4.776
 Vibration     3          0.597              1.971              4.302
 Vibration     4          0.599              1.966              4.043
 Vibration     5          0.602              1.954              3.605
 Vibration     6          0.608              1.936              3.165
 Vibration     7          0.622              1.889              2.530
 Vibration     8          0.629              1.867              2.326
 Vibration     9          0.637              1.841              2.142
 Vibration    10          0.640              1.832              2.080
 Vibration    11          0.653              1.793              1.868
 Vibration    12          0.669              1.745              1.657
 Vibration    13          0.674              1.729              1.598
 Vibration    14          0.686              1.692              1.473
 Vibration    15          0.691              1.679              1.432
 Vibration    16          0.696              1.664              1.389
 Vibration    17          0.700              1.651              1.352
 Vibration    18          0.715              1.608              1.241
 Vibration    19          0.722              1.589              1.198
 Vibration    20          0.731              1.563              1.140
 Vibration    21          0.748              1.518              1.050
 Vibration    22          0.768              1.464              0.952
 Vibration    23          0.778              1.439              0.912
 Vibration    24          0.795              1.395              0.844
 Vibration    25          0.806              1.367              0.804
 Vibration    26          0.834              1.300              0.717
 Vibration    27          0.851              1.260              0.670
 Vibration    28          0.872              1.212              0.617
 Vibration    29          0.877              1.202              0.606
 Vibration    30          0.919              1.112              0.518
 Vibration    31          0.955              1.038              0.454
 Vibration    32          0.965              1.018              0.439

 Normal termination of Gaussian 09 at Fri Mar 25 22:19:12 2016.
