 Gaussian 09, Revision B.01,
 Gaussian 09:  EM64L-G09RevB.01 12-Aug-2010

 -------------------------------------------------
 # freq=raman b3lyp/6-31+g(2d,p) geom=connectivity
 -------------------------------------------------

 -----------------
 310 7205/7205.com
 -----------------
 Symbolic Z-matrix:
 Charge =  0 Multiplicity = 1

                         Standard orientation:
 ---------------------------------------------------------------------
 Center     Atomic      Atomic             Coordinates (Angstroms)
 Number     Number       Type             X           Y           Z
 ---------------------------------------------------------------------
      1          8           0       -5.028549   -0.538448    0.433547
      2          6           0       -3.770998   -0.077266   -0.080836
      3          6           0       -3.329353    1.309728    0.358613
      4          8           0       -4.312453    2.251811   -0.095655
      5          1           0       -5.155219    1.823985    0.230165
      6          6           0       -1.960677    1.614271   -0.227688
      7          8           0       -1.415664    2.818536    0.332419
      8          1           0       -0.530354    2.831260   -0.131334
      9          6           0       -2.922346   -2.482576   -0.335876
     10          8           0       -4.098738   -3.263598   -0.082547
     11          1           0       -4.023842   -4.260942   -0.079230
     12          6           0       -2.725536   -1.114546    0.295115
     13          8           0       -1.477468   -0.755284   -0.314112
     14          6           0       -0.981309    0.512086    0.140448
     15          8           0        0.322120    0.681968   -0.436834
     16          6           0        1.600067    0.375685    0.139298
     17          6           0        1.913636   -1.074544   -0.193232
     18          8           0        0.940629   -1.998162    0.315599
     19          1           0        0.032888   -1.622508    0.128911
     20          6           0        3.290599   -1.585582    0.198646
     21          8           0        3.629343   -2.872700   -0.339328
     22          1           0        4.418151   -3.171841    0.198322
     23          6           0        2.636711    2.592838    0.084211
     24          8           0        1.441568    3.250523   -0.361687
     25          1           0        1.555095    4.219402   -0.144016
     26          6           0        2.740036    1.179321   -0.464328
     27          8           0        4.009976    0.789577    0.080608
     28          6           0        4.346541   -0.573824   -0.215247
     29          8           0        5.409128   -0.728934    0.737363
     30          1           0        6.236779   -0.873281    0.272865
     31          1           0        3.486402    3.155876   -0.241233
     32          1           0        2.633934    2.552336    1.153441
     33          1           0        2.733943    1.160731   -1.534149
     34          1           0        1.571010    0.513327    1.200010
     35          1           0        1.864143   -1.146734   -1.259646
     36          1           0        3.315088   -1.664033    1.265485
     37          1           0        4.682100   -0.708053   -1.222363
     38          1           0       -5.600970   -0.786849   -0.295994
     39          1           0       -2.084559   -3.081237   -0.044986
     40          1           0       -2.863337   -2.346278   -1.395518
     41          1           0       -2.622844   -1.192801    1.357297
     42          1           0       -3.845828   -0.065549   -1.148152
     43          1           0       -3.273205    1.342571    1.426634
     44          1           0       -2.028880    1.703256   -1.291798
     45          1           0       -0.883867    0.481498    1.205563
 ---------------------------------------------------------------------

 SCF Done:  E(RB3LYP) =  -1297.98928248     A.U. after   13 cycles

 The electronic state is 1-A.
 Alpha  occ. eigenvalues --  -19.18613 -19.17880 -19.17740 -19.17439 -19.17149
 Alpha  occ. eigenvalues --  -19.17058 -19.16449 -19.15727 -19.15643 -19.14646
 Alpha  occ. eigenvalues --  -19.13445 -10.31001 -10.29989 -10.26022 -10.25705
 Alpha  occ. eigenvalues --  -10.25699 -10.25190 -10.24859 -10.24834 -10.24456
 Alpha  occ. eigenvalues --  -10.24306 -10.24093 -10.23683  -1.10015  -1.09209
 Alpha  occ. eigenvalues --   -1.05455  -1.04625  -1.03865  -1.03315  -1.02948
 Alpha  occ. eigenvalues --   -1.02145  -1.01800  -1.01369  -1.00185  -0.82473
 Alpha  occ. eigenvalues --   -0.80452  -0.78949  -0.78594  -0.71644  -0.69633
 Alpha  occ. eigenvalues --   -0.67546  -0.64625  -0.62962  -0.62518  -0.61218
 Alpha  occ. eigenvalues --   -0.60429  -0.56390  -0.55775  -0.55292  -0.54630
 Alpha  occ. eigenvalues --   -0.53886  -0.53252  -0.52299  -0.52041  -0.51527
 Alpha  occ. eigenvalues --   -0.50207  -0.49597  -0.49275  -0.48744  -0.46336
 Alpha  occ. eigenvalues --   -0.45452  -0.44992  -0.44437  -0.43703  -0.42882
 Alpha  occ. eigenvalues --   -0.42481  -0.41485  -0.41334  -0.40827  -0.39923
 Alpha  occ. eigenvalues --   -0.38710  -0.37968  -0.37389  -0.36266  -0.35783
 Alpha  occ. eigenvalues --   -0.35245  -0.35145  -0.34788  -0.34059  -0.32874
 Alpha  occ. eigenvalues --   -0.32181  -0.31389  -0.30930  -0.30348  -0.30180
 Alpha  occ. eigenvalues --   -0.29302  -0.28665  -0.28363  -0.28159  -0.26858
 Alpha  occ. eigenvalues --   -0.26284
 Alpha virt. eigenvalues --   -0.01707  -0.01416  -0.01367  -0.00033   0.00308
 Alpha virt. eigenvalues --    0.01056   0.01987   0.02199   0.02625   0.03310
 Alpha virt. eigenvalues --    0.03908   0.04227   0.04612   0.05353   0.05845

 Mulliken atomic charges:
              1
     1  O   -0.537535
     2  C   -0.048131
     3  C    0.253507
     4  O   -0.541154
     5  H    0.341726
     6  C   -0.160494
     7  O   -0.534951
     8  H    0.390818
     9  C   -0.279783
    10  O   -0.589185
    11  H    0.350237
    12  C    0.214146
    13  O   -0.248312
    14  C    0.159234
    15  O   -0.312889
    16  C    0.238306
    17  C    0.193854
    18  O   -0.593754
    19  H    0.397955
    20  C    0.016703
    21  O   -0.530991
    22  H    0.334956
    23  C   -0.210278
    24  O   -0.543171
    25  H    0.348455
    26  C   -0.100288
    27  O   -0.201060
    28  C    0.175222
    29  O   -0.523551
    30  H    0.324782
    31  H    0.141239
    32  H    0.152978
    33  H    0.131741
    34  H    0.121665
    35  H    0.116884
    36  H    0.139241
    37  H    0.136114
    38  H    0.347727
    39  H    0.148543
    40  H    0.145258
    41  H    0.117758
    42  H    0.121460
    43  H    0.125778
    44  H    0.137318
    45  H    0.131922
 Sum of Mulliken atomic charges =   0.00000

 Dipole moment (field-independent basis, Debye):
    X=              2.5525    Y=             -0.6428    Z=             -1.2502  Tot=              2.9140
 Quadrupole moment (field-independent basis, Debye-Ang):
   XX=           -118.8208   YY=           -136.9928   ZZ=           -138.3603
   XY=             13.5825   XZ=             -0.1950   YZ=              0.3773

  Exact polarizability: 233.832  -1.188 198.344   0.738   0.225 143.420
 Approx polarizability: 274.568   0.233 257.661   1.765   0.069 238.772

 ******    6 imaginary frequencies (negative Signs) ******

                     1                      2                      3
                     A                      A                      A
 Frequencies --  -276.2647              -240.9941              -234.0300
 Red. masses --     1.6606                 1.1657                 1.2010
 Frc consts  --     0.0747                 0.0399                 0.0388
 IR Inten    --    26.0622                87.7816                97.2459
 Raman Activ --     0.0924                 1.3041                 0.6671

                     4                      5                      6
                     A                      A                      A
 Frequencies --  -179.9508               -66.7777               -57.5063
 Red. masses --     2.1426                 5.7403                 6.9026
 Frc consts  --     0.0409                 0.0151                 0.0134
 IR Inten    --     2.4840                 0.4251                 0.2015
 Raman Activ --     0.1282                 0.0441                 0.0218

                     7                      8                      9
                     A                      A                      A
 Frequencies --    22.5609                28.1253                55.3293
 Red. masses --     6.2202                 6.3972                 6.9914
 Frc consts  --     0.0019                 0.0030                 0.0126
 IR Inten    --     0.6282                 3.2071                 1.4177
 Raman Activ --     0.0387                 0.0501                 0.3379

                    10                     11                     12
                     A                      A                      A
 Frequencies --    87.7448                95.1964                97.7062
 Red. masses --     6.4925                 5.7004                 6.0670
 Frc consts  --     0.0295                 0.0304                 0.0341
 IR Inten    --     3.7956                 1.5591                 0.5088
 Raman Activ --     0.0307                 0.0855                 0.0189

                    13                     14                     15
                     A                      A                      A
 Frequencies --   143.2245               167.6002               181.1251
 Red. masses --     6.1757                 6.0587                 6.5828
 Frc consts  --     0.0746                 0.1003                 0.1272
 IR Inten    --     1.5476                 2.6237                 0.2066
 Raman Activ --     0.6052                 0.0328                 2.0458

                    16                     17                     18
                     A                      A                      A
 Frequencies --   191.9067               232.8744               255.7124
 Red. masses --     7.4479                 5.8429                 5.0818
 Frc consts  --     0.1616                 0.1867                 0.1958
 IR Inten    --     0.3933                 0.2331                14.5326
 Raman Activ --     0.4439                 1.0136                 0.4408

                    19                     20                     21
                     A                      A                      A
 Frequencies --   264.2437               273.7867               297.6285
 Red. masses --     5.3968                 4.5403                 6.1418
 Frc consts  --     0.2220                 0.2005                 0.3205
 IR Inten    --     1.7341                 5.9432                 1.6427
 Raman Activ --     0.0910                 0.2702                 0.5270

                    22                     23                     24
                     A                      A                      A
 Frequencies --   313.5006               323.1383               330.8308
 Red. masses --     5.4819                 5.1768                 6.1612
 Frc consts  --     0.3174                 0.3185                 0.3973
 IR Inten    --     8.8979                 5.8940                 2.3626
 Raman Activ --     0.0993                 1.3056                 2.7957

                    25                     26                     27
                     A                      A                      A
 Frequencies --   339.7936               367.3865               379.1494
 Red. masses --     6.7155                 4.7611                 5.2659
 Frc consts  --     0.4568                 0.3786                 0.4460
 IR Inten    --     4.3435                 0.2720                 7.4922
 Raman Activ --     4.8726                 0.4909                 1.4306

                    28                     29                     30
                     A                      A                      A
 Frequencies --   405.0920               415.6687               436.7386
 Red. masses --     4.9739                 6.0640                 5.1414
 Frc consts  --     0.4809                 0.6173                 0.5778
 IR Inten    --    16.2467                 4.3093                 3.2418
 Raman Activ --     2.7145                 4.5676                 2.5883

                    31                     32                     33
                     A                      A                      A
 Frequencies --   449.5462               471.5723               495.0954
 Red. masses --     4.4069                 3.8362                 4.9685
 Frc consts  --     0.5247                 0.5026                 0.7176
 IR Inten    --     7.5654                 4.7871                 2.7604
 Raman Activ --     2.8072                 2.8069                 0.7328

                    34                     35                     36
                     A                      A                      A
 Frequencies --   519.5405               522.2534               561.4814
 Red. masses --     3.0081                 3.2707                 2.7781
 Frc consts  --     0.4784                 0.5256                 0.5160
 IR Inten    --     5.8905                19.2688                34.0830
 Raman Activ --     3.9264                 1.7587                 1.3456

                    37                     38                     39
                     A                      A                      A
 Frequencies --   589.1596               600.1837               606.7250
 Red. masses --     1.8660                 1.6904                 5.9279
 Frc consts  --     0.3816                 0.3588                 1.2857
 IR Inten    --    47.8009                54.9195                 7.8302
 Raman Activ --     1.0683                 0.9275                 0.8396

                    40                     41                     42
                     A                      A                      A
 Frequencies --   621.5300               642.3863               690.0868
 Red. masses --     4.1689                 4.2912                 5.3621
 Frc consts  --     0.9489                 1.0433                 1.5045
 IR Inten    --    18.4978                55.2022                12.8096
 Raman Activ --     1.4175                 1.4503                 0.6582

                    43                     44                     45
                     A                      A                      A
 Frequencies --   740.0217               741.4241               772.2381
 Red. masses --     1.0831                 1.0890                 1.0922
 Frc consts  --     0.3495                 0.3527                 0.3838
 IR Inten    --    18.0227               175.2173                94.3474
 Raman Activ --     2.5221                 0.5355                 1.4830

                    46                     47                     48
                     A                      A                      A
 Frequencies --   823.4583               844.5574               856.0285
 Red. masses --     1.1393                 1.5997                 1.1286
 Frc consts  --     0.4552                 0.6723                 0.4873
 IR Inten    --    89.2161                11.0020                45.7488
 Raman Activ --     1.9594                 0.7101                 0.6592

                    49                     50                     51
                     A                      A                      A
 Frequencies --   879.5289               910.7596               949.8919
 Red. masses --     1.5863                 5.1954                 5.5913
 Frc consts  --     0.7230                 2.5391                 2.9724
 IR Inten    --    13.3768               126.1898                87.3718
 Raman Activ --     0.5292                 2.5425                 0.9872

                    52                     53                     54
                     A                      A                      A
 Frequencies --   973.5860               980.1803               987.6918
 Red. masses --     6.6625                 4.7335                 5.9636
 Frc consts  --     3.7208                 2.6794                 3.4277
 IR Inten    --    27.2611                24.8005                60.8686
 Raman Activ --     1.5432                 1.2752                 5.2823

                    55                     56                     57
                     A                      A                      A
 Frequencies --   997.2542              1015.3197              1021.4172
 Red. masses --     6.0536                 7.0321                 6.1362
 Frc consts  --     3.5471                 4.2711                 3.7719
 IR Inten    --   534.3993                41.3899               223.8457
 Raman Activ --     1.7234                 3.1185                 2.3377

                    58                     59                     60
                     A                      A                      A
 Frequencies --  1033.4648              1053.2580              1057.4089
 Red. masses --     5.6251                 5.2812                 3.8799
 Frc consts  --     3.5398                 3.4518                 2.5560
 IR Inten    --   180.8326                15.5222               116.1684
 Raman Activ --     3.6264                 3.8076                23.5692

                    61                     62                     63
                     A                      A                      A
 Frequencies --  1069.2998              1073.4535              1077.4587
 Red. masses --     4.8481                 5.1532                 3.1668
 Frc consts  --     3.2661                 3.4986                 2.1661
 IR Inten    --    83.1442                62.7557                 2.7015
 Raman Activ --    12.3739                 1.2368                 3.5389

                    64                     65                     66
                     A                      A                      A
 Frequencies --  1090.9808              1096.3229              1102.8261
 Red. masses --     2.2715                 3.4821                 2.6597
 Frc consts  --     1.5929                 2.4659                 1.9059
 IR Inten    --    62.9399                26.7426               123.8472
 Raman Activ --     6.6774                 9.9933                 0.8382

                    67                     68                     69
                     A                      A                      A
 Frequencies --  1117.8825              1120.6132              1128.6555
 Red. masses --     2.7298                 2.2808                 2.3262
 Frc consts  --     2.0099                 1.6875                 1.7459
 IR Inten    --    19.3965                 4.9212               102.6791
 Raman Activ --     2.6327                 2.7430                 6.9387

                    70                     71                     72
                     A                      A                      A
 Frequencies --  1133.5635              1144.7259              1150.1397
 Red. masses --     2.2744                 2.9710                 1.4614
 Frc consts  --     1.7219                 2.2938                 1.1390
 IR Inten    --     1.5750                16.7607                16.0562
 Raman Activ --     3.9419                 5.7896                 2.1045

                    73                     74                     75
                     A                      A                      A
 Frequencies --  1152.8048              1155.2592              1172.4788
 Red. masses --     1.7650                 2.3645                 1.4672
 Frc consts  --     1.3820                 1.8593                 1.1884
 IR Inten    --    28.7407                 7.3725                 3.7677
 Raman Activ --     4.0592                 3.3340                 1.0215

                    76                     77                     78
                     A                      A                      A
 Frequencies --  1195.3087              1204.7052              1215.9484
 Red. masses --     1.3885                 1.2792                 1.3730
 Frc consts  --     1.1689                 1.0939                 1.1960
 IR Inten    --    22.4083                22.0310                 3.7811
 Raman Activ --     5.6424                 1.0102                 1.9457

                    79                     80                     81
                     A                      A                      A
 Frequencies --  1224.0187              1234.8078              1247.5835
 Red. masses --     1.2961                 1.2649                 1.3539
 Frc consts  --     1.1441                 1.1364                 1.2416
 IR Inten    --     3.4149                 0.9768                17.3572
 Raman Activ --     2.3912                 1.5372                 1.0703

                    82                     83                     84
                     A                      A                      A
 Frequencies --  1266.0979              1267.0200              1268.9217
 Red. masses --     1.2018                 1.1935                 1.2854
 Frc consts  --     1.1350                 1.1289                 1.2194
 IR Inten    --    13.2062                 9.9334                 5.0835
 Raman Activ --     3.8932                 3.3673                 1.1696

                    85                     86                     87
                     A                      A                      A
 Frequencies --  1276.4930              1279.9582              1298.3909
 Red. masses --     1.2427                 1.3045                 1.3619
 Frc consts  --     1.1930                 1.2592                 1.3527
 IR Inten    --     7.8735                17.6329                34.4778
 Raman Activ --     2.1888                 3.0372                 3.3314

                    88                     89                     90
                     A                      A                      A
 Frequencies --  1305.3864              1315.0770              1323.6732
 Red. masses --     1.3187                 1.3350                 1.3044
 Frc consts  --     1.3240                 1.3603                 1.3465
 IR Inten    --    31.0813                 6.5172                29.1047
 Raman Activ --     4.9898                 8.7141                 3.0609

                    91                     92                     93
                     A                      A                      A
 Frequencies --  1331.6521              1334.8336              1338.5382
 Red. masses --     1.1851                 1.1969                 1.3284
 Frc consts  --     1.2382                 1.2565                 1.4023
 IR Inten    --    54.2514                28.0809                16.3489
 Raman Activ --     1.5854                 4.6000                 4.7238

                    94                     95                     96
                     A                      A                      A
 Frequencies --  1346.1816              1349.3185              1372.9529
 Red. masses --     1.4462                 1.2438                 1.5320
 Frc consts  --     1.5441                 1.3343                 1.7014
 IR Inten    --     7.6039                27.6206                 7.9175
 Raman Activ --     6.7994                 4.8308                 2.3734

                    97                     98                     99
                     A                      A                      A
 Frequencies --  1375.8893              1379.7914              1398.1123
 Red. masses --     1.7175                 1.7548                 1.3472
 Frc consts  --     1.9156                 1.9684                 1.5515
 IR Inten    --     4.3332                10.3232                 1.8781
 Raman Activ --     9.9859                 5.2723                 4.2477

                   100                    101                    102
                     A                      A                      A
 Frequencies --  1424.2596              1461.5718              1467.6557
 Red. masses --     1.3447                 1.3135                 1.0928
 Frc consts  --     1.6071                 1.6532                 1.3869
 IR Inten    --    12.9382                27.0290                 4.2480
 Raman Activ --     1.0936                 1.9307                 3.4454

                   103                    104                    105
                     A                      A                      A
 Frequencies --  1477.8383              1484.6957              1488.5031
 Red. masses --     1.2476                 1.1669                 1.3048
 Frc consts  --     1.6054                 1.5156                 1.7033
 IR Inten    --    29.2393                18.9108                30.2109
 Raman Activ --     4.1943                 2.3528                 0.8247

                   106                    107                    108
                     A                      A                      A
 Frequencies --  1517.8196              1533.9012              3259.9062
 Red. masses --     1.2599                 1.2594                 1.0599
 Frc consts  --     1.7101                 1.7459                 6.6366
 IR Inten    --    42.1537                51.6938                46.6838
 Raman Activ --     2.0236                 1.1582                60.6034

                   109                    110                    111
                     A                      A                      A
 Frequencies --  3260.0916              3261.4686              3275.4404
 Red. masses --     1.0591                 1.0733                 1.0803
 Frc consts  --     6.6318                 6.7266                 6.8285
 IR Inten    --    16.3453               164.2832               164.2799
 Raman Activ --    73.0583               165.6635                45.3883

                   112                    113                    114
                     A                      A                      A
 Frequencies --  3276.2902              3280.8556              3284.5616
 Red. masses --     1.0783                 1.0835                 1.0806
 Frc consts  --     6.8196                 6.8713                 6.8687
 IR Inten    --   169.5564                 3.6352               139.0610
 Raman Activ --   134.1542                66.5455                84.7795

                   115                    116                    117
                     A                      A                      A
 Frequencies --  3287.3538              3290.7975              3291.3755
 Red. masses --     1.0844                 1.0857                 1.0851
 Frc consts  --     6.9042                 6.9272                 6.9261
 IR Inten    --     0.5129                 3.1774                13.3833
 Raman Activ --     2.6790                 9.8302               255.2930

                   118                    119                    120
                     A                      A                      A
 Frequencies --  3298.0011              3303.0293              3304.2612
 Red. masses --     1.0877                 1.0878                 1.0882
 Frc consts  --     6.9704                 6.9922                 6.9999
 IR Inten    --    20.9382                33.6081                93.9931
 Raman Activ --    28.5383                13.0407                26.3986

                   121                    122                    123
                     A                      A                      A
 Frequencies --  3315.8309              3322.8435              3332.7299
 Red. masses --     1.1033                 1.1068                 1.0670
 Frc consts  --     7.1473                 7.1998                 6.9823
 IR Inten    --    58.9931                38.7646               424.8654
 Raman Activ --    28.5587                57.7462               103.9487

                   124                    125                    126
                     A                      A                      A
 Frequencies --  3363.5758              3366.4239              3367.4059
 Red. masses --     1.0650                 1.0698                 1.0659
 Frc consts  --     7.0991                 7.1433                 7.1214
 IR Inten    --    33.5831                66.4408                41.4218
 Raman Activ --    82.1524               191.5583               134.8002

                   127                    128                    129
                     A                      A                      A
 Frequencies --  3375.4315              3888.6117              3890.7315
 Red. masses --     1.0666                 1.0674                 1.0676
 Frc consts  --     7.1597                 9.5093                 9.5220
 IR Inten    --    41.6382                57.7213                82.6643
 Raman Activ --   143.8607               135.5575                82.1544

 - Thermochemistry -
 -------------------
 Temperature   298.150 Kelvin.  Pressure   1.00000 Atm.
 Atom     1 has atomic number  8 and mass  15.99491

 Molecular mass:   342.11621 amu.
 Principal axes and moments of inertia in atomic units:
                           1         2         3
     Eigenvalues --  4406.69218********************
           X            0.99997   0.00733   0.00032
           Y           -0.00734   0.99997   0.00205
           Z           -0.00031  -0.00205   1.00000
 This molecule is an asymmetric top.
 Rotational symmetry number  1.
 Warning -- assumption of classical behavior for rotation
           may cause significant error
 Rotational temperatures (Kelvin)      0.01966     0.00696     0.00526
 Rotational constants (GHZ):           0.40955     0.14494     0.10955
    6 imaginary frequencies ignored.
 Zero-point vibrational energy     973781.2 (Joules/Mol)
                                  232.73929 (Kcal/Mol)
 Warning -- explicit consideration of  33 degrees of freedom as
           vibrations may cause significant error
 Vibrational temperatures:     32.46    40.47    79.61   126.25   136.97
          (Kelvin)            140.58   206.07   241.14   260.60   276.11
                              335.05   367.91   380.19   393.92   428.22
                              451.06   464.92   475.99   488.89   528.59
                              545.51   582.84   598.05   628.37   646.80
                              678.49   712.33   747.50   751.41   807.85
                              847.67   863.53   872.94   894.24   924.25
                              992.88  1064.72  1066.74  1111.08  1184.77
                             1215.13  1231.63  1265.44  1310.38  1366.68
                             1400.77  1410.26  1421.07  1434.82  1460.82
                             1469.59  1486.92  1515.40  1521.37  1538.48
                             1544.46  1550.22  1569.68  1577.36  1586.72
                             1608.38  1612.31  1623.88  1630.94  1647.00
                             1654.79  1658.63  1662.16  1686.93  1719.78
                             1733.30  1749.48  1761.09  1776.61  1794.99
                             1821.63  1822.96  1825.69  1836.59  1841.57
                             1868.09  1878.16  1892.10  1904.47  1915.95
                             1920.53  1925.86  1936.85  1941.37  1975.37
                             1979.60  1985.21  2011.57  2049.19  2102.87
                             2111.63  2126.28  2136.14  2141.62  2183.80
                             2206.94  4690.27  4690.54  4692.52  4712.62
                             4713.84  4720.41  4725.75  4729.76  4734.72
                             4735.55  4745.08  4752.32  4754.09  4770.74
                             4780.82  4795.05  4839.43  4843.53  4844.94
                             4856.49  5594.84  5597.89

 Zero-point correction=                           0.370894 (Hartree/Particle)
 Thermal correction to Energy=                    0.390281
 Thermal correction to Enthalpy=                  0.391225
 Thermal correction to Gibbs Free Energy=         0.322483
 Sum of electronic and zero-point Energies=          -1297.618389
 Sum of electronic and thermal Energies=             -1297.599002
 Sum of electronic and thermal Enthalpies=           -1297.598058
 Sum of electronic and thermal Free Energies=        -1297.666800

                     E (Thermal)             CV                S
                      KCal/Mol        Cal/Mol-Kelvin    Cal/Mol-Kelvin
 Total                  244.905             78.066            144.680
 Electronic               0.000              0.000              0.000
 Translational            0.889              2.981             43.384
 Rotational               0.889              2.981             35.157
 Vibrational            243.127             72.104             66.138
 Vibration     1          0.593              1.985              6.395
 Vibration     2          0.593              1.984              5.957
 Vibration     3          0.596              1.975              4.617
 Vibration     4          0.601              1.958              3.710
 Vibration     5          0.603              1.953              3.550
 Vibration     6          0.603              1.951              3.500
 Vibration     7          0.616              1.910              2.760
 Vibration     8          0.624              1.882              2.462
 Vibration     9          0.630              1.865              2.317
 Vibration    10          0.634              1.851              2.209
 Vibration    11          0.654              1.791              1.857
 Vibration    12          0.666              1.753              1.691
 Vibration    13          0.671              1.738              1.634
 Vibration    14          0.676              1.722              1.572
 Vibration    15          0.691              1.678              1.430
 Vibration    16          0.701              1.648              1.344
 Vibration    17          0.708              1.629              1.294
 Vibration    18          0.713              1.614              1.256
 Vibration    19          0.720              1.596              1.213
 Vibration    20          0.740              1.539              1.091
 Vibration    21          0.749              1.515              1.043
 Vibration    22          0.770              1.459              0.944
 Vibration    23          0.779              1.436              0.907
 Vibration    24          0.797              1.390              0.837
 Vibration    25          0.808              1.362              0.797
 Vibration    26          0.829              1.313              0.733
 Vibration    27          0.851              1.261              0.671
 Vibration    28          0.875              1.207              0.611
 Vibration    29          0.877              1.201              0.605
 Vibration    30          0.917              1.115              0.521
 Vibration    31          0.946              1.055              0.469
 Vibration    32          0.958              1.031              0.449
 Vibration    33          0.965              1.018              0.438

 Normal termination of Gaussian 09 at Thu Mar 24 10:51:51 2016.
