 Gaussian 09, Revision B.01,
 Gaussian 09:  EM64L-G09RevB.01 12-Aug-2010

 --------------------------------------------------
 # freq=raman b3lyp/6-31+g(2df,p) geom=connectivity
 --------------------------------------------------

 ------------
 310 9000.com
 ------------
 Symbolic Z-matrix:
 Charge =  0 Multiplicity = 1

                         Standard orientation:
 ---------------------------------------------------------------------
 Center     Atomic      Atomic             Coordinates (Angstroms)
 Number     Number       Type             X           Y           Z
 ---------------------------------------------------------------------
      1          8           0        5.078325    0.451707    0.232537
      2          6           0        3.777142    0.056712   -0.226341
      3          6           0        3.297107   -1.317343    0.210320
      4          8           0        4.206277   -2.302195   -0.302877
      5          1           0        5.126235   -1.953703   -0.128361
      6          6           0        1.859948   -1.598702   -0.197698
      7          8           0        1.312975   -2.804495    0.355413
      8          1           0        0.374248   -2.777484    0.011079
      9          6           0        2.996120    2.629573   -0.115900
     10          8           0        3.996392    3.432700    0.526722
     11          1           0        3.822477    4.390189    0.297103
     12          6           0        2.781027    1.146438    0.136979
     13          8           0        1.451865    0.799175   -0.276646
     14          6           0        0.956230   -0.450418    0.223474
     15          8           0       -0.278366   -0.639659   -0.483102
     16          6           0       -1.476674   -0.211780    0.180760
     17          6           0       -1.956803    1.148564   -0.298687
     18          8           0       -0.984681    2.169938   -0.033388
     19          1           0       -0.181001    1.633068   -0.289601
     20          6           0       -3.368392    1.539648    0.109285
     21          8           0       -4.029221    2.613511   -0.574706
     22          1           0       -4.896257    2.790533   -0.108723
     23          6           0       -2.319817   -2.561753    0.252359
     24          8           0       -1.159109   -3.271830   -0.202766
     25          1           0       -1.252012   -4.266813   -0.151797
     26          6           0       -2.567782   -1.161819   -0.286160
     27          8           0       -3.847281   -0.822819    0.269641
     28          6           0       -4.381545    0.438762   -0.157843
     29          8           0       -5.521513    0.520430    0.709381
     30          1           0        5.610886    0.729862   -0.516201
     31          1           0       -6.312088    0.669332    0.185530
     32          1           0       -4.673350    0.410410   -1.186894
     33          1           0       -3.367911    1.755079    1.157373
     34          1           0       -1.992121    1.068328   -1.365090
     35          1           0       -1.367568   -0.237113    1.244882
     36          1           0       -2.618027   -1.177477   -1.354865
     37          1           0       -3.176569   -3.156287    0.012768
     38          1           0       -2.257915   -2.491385    1.318247
     39          1           0        0.807182   -0.425858    1.282758
     40          1           0        1.826488   -1.676472   -1.264344
     41          1           0        3.344541   -1.354837    1.278611
     42          1           0        3.827430    0.032372   -1.294882
     43          1           0        2.743136    1.087481    1.204681
     44          1           0        2.059193    3.103521    0.090110
     45          1           0        3.168322    2.728272   -1.167330
 ---------------------------------------------------------------------

 SCF Done:  E(RB3LYP) =  -1297.99794298     A.U. after   13 cycles

 The electronic state is 1-A.
 Alpha  occ. eigenvalues --  -19.19023 -19.18447 -19.18446 -19.18155 -19.17362
 Alpha  occ. eigenvalues --  -19.17203 -19.16437 -19.16189 -19.15372 -19.14341
 Alpha  occ. eigenvalues --  -19.13068 -10.30760 -10.30340 -10.26018 -10.25856
 Alpha  occ. eigenvalues --  -10.25605 -10.25361 -10.25115 -10.24994 -10.24642
 Alpha  occ. eigenvalues --  -10.24599 -10.24273 -10.24163  -1.10425  -1.09126
 Alpha  occ. eigenvalues --   -1.05648  -1.05163  -1.04234  -1.03646  -1.02709
 Alpha  occ. eigenvalues --   -1.02461  -1.02140  -1.01522  -1.00166  -0.82519
 Alpha  occ. eigenvalues --   -0.80231  -0.79162  -0.78322  -0.72022  -0.70077
 Alpha  occ. eigenvalues --   -0.67601  -0.64947  -0.63183  -0.62693  -0.61376
 Alpha  occ. eigenvalues --   -0.60063  -0.56837  -0.55986  -0.55118  -0.54959
 Alpha  occ. eigenvalues --   -0.54056  -0.53436  -0.52735  -0.51936  -0.50668
 Alpha  occ. eigenvalues --   -0.50413  -0.50267  -0.50018  -0.48557  -0.46784
 Alpha  occ. eigenvalues --   -0.46115  -0.45074  -0.44707  -0.44025  -0.43554
 Alpha  occ. eigenvalues --   -0.42788  -0.42339  -0.40879  -0.40565  -0.39343
 Alpha  occ. eigenvalues --   -0.38620  -0.38287  -0.37742  -0.37063  -0.36009
 Alpha  occ. eigenvalues --   -0.35225  -0.34850  -0.34617  -0.34249  -0.33454
 Alpha  occ. eigenvalues --   -0.32838  -0.31755  -0.31199  -0.30532  -0.30203
 Alpha  occ. eigenvalues --   -0.29527  -0.28531  -0.28043  -0.27535  -0.26688
 Alpha  occ. eigenvalues --   -0.26609
 Alpha virt. eigenvalues --   -0.01988  -0.01911  -0.01632  -0.00305   0.00192
 Alpha virt. eigenvalues --    0.00929   0.01785   0.02251   0.02701   0.03422
 Alpha virt. eigenvalues --    0.03878   0.04221   0.04765   0.05276   0.05471

 Mulliken atomic charges:
              1
     1  O   -0.437554
     2  C   -0.232428
     3  C    0.096304
     4  O   -0.458277
     5  H    0.346915
     6  C   -0.175141
     7  O   -0.486079
     8  H    0.457200
     9  C   -0.314306
    10  O   -0.437280
    11  H    0.344096
    12  C    0.069224
    13  O   -0.043886
    14  C   -0.069575
    15  O   -0.019285
    16  C    0.057390
    17  C   -0.025834
    18  O   -0.469872
    19  H    0.400487
    20  C    0.074509
    21  O   -0.451847
    22  H    0.346168
    23  C   -0.336263
    24  O   -0.512286
    25  H    0.377439
    26  C   -0.141265
    27  O   -0.029945
    28  C   -0.102336
    29  O   -0.462522
    30  H    0.351877
    31  H    0.345110
    32  H    0.142959
    33  H    0.143732
    34  H    0.124677
    35  H    0.131384
    36  H    0.134711
    37  H    0.150324
    38  H    0.161128
    39  H    0.140848
    40  H    0.140652
    41  H    0.131697
    42  H    0.123146
    43  H    0.113046
    44  H    0.162279
    45  H    0.138679
 Sum of Mulliken atomic charges =   0.00000

 Dipole moment (field-independent basis, Debye):
    X=             -2.8782    Y=              0.1997    Z=             -2.0035  Tot=              3.5125
 Quadrupole moment (field-independent basis, Debye-Ang):
   XX=           -118.1011   YY=           -138.2170   ZZ=           -139.8382
   XY=             13.8538   XZ=             -3.8148   YZ=             -0.9126

  Exact polarizability: 235.154  -1.672 197.758  -1.150  -0.693 143.690
 Approx polarizability: 275.310  -1.218 257.508  -1.066  -0.303 239.545

 ******    7 imaginary frequencies (negative Signs) ******

                     1                      2                      3
                     A                      A                      A
 Frequencies --  -346.6217              -241.5685              -159.0568
 Red. masses --     1.6525                 1.8508                 1.2582
 Frc consts  --     0.1170                 0.0636                 0.0188
 IR Inten    --     4.0614                 3.3704               103.8685
 Raman Activ --     0.1388                 0.0534                 0.8010

                     4                      5                      6
                     A                      A                      A
 Frequencies --  -121.1353               -83.6228               -57.4702
 Red. masses --     1.4270                 6.6033                 5.8067
 Frc consts  --     0.0123                 0.0272                 0.0113
 IR Inten    --    85.8708                 1.3337                 0.7868
 Raman Activ --     0.6611                 0.0228                 0.0475

                     7                      8                      9
                     A                      A                      A
 Frequencies --   -48.3911                25.0917                54.9388
 Red. masses --     5.9223                 5.7936                 6.4555
 Frc consts  --     0.0082                 0.0021                 0.0115
 IR Inten    --     3.5072                 4.3865                 2.5665
 Raman Activ --     0.0579                 0.0827                 0.0416

                    10                     11                     12
                     A                      A                      A
 Frequencies --    78.6372                80.0717               104.8255
 Red. masses --     4.4470                 6.4673                 5.5784
 Frc consts  --     0.0162                 0.0244                 0.0361
 IR Inten    --    16.1897                 0.2324                 0.2097
 Raman Activ --     0.1796                 0.3077                 0.1347

                    13                     14                     15
                     A                      A                      A
 Frequencies --   155.2970               168.5549               184.9701
 Red. masses --     6.4175                 5.4920                 7.9455
 Frc consts  --     0.0912                 0.0919                 0.1602
 IR Inten    --     3.5997                 1.9300                 0.3910
 Raman Activ --     0.4224                 0.2363                 0.7027

                    16                     17                     18
                     A                      A                      A
 Frequencies --   214.7910               228.1201               245.6806
 Red. masses --     7.5289                 4.3261                 5.7547
 Frc consts  --     0.2047                 0.1326                 0.2046
 IR Inten    --     3.8515                14.5765                 9.1764
 Raman Activ --     2.9220                 0.5544                 0.4111

                    19                     20                     21
                     A                      A                      A
 Frequencies --   265.0716               275.4431               301.4746
 Red. masses --     4.7190                 4.2198                 5.3295
 Frc consts  --     0.1954                 0.1886                 0.2854
 IR Inten    --     0.5670                 1.6532                 0.9565
 Raman Activ --     0.1261                 0.1090                 0.4140

                    22                     23                     24
                     A                      A                      A
 Frequencies --   312.1867               315.2060               324.4691
 Red. masses --     5.7664                 5.5759                 5.4360
 Frc consts  --     0.3311                 0.3264                 0.3372
 IR Inten    --     4.2085                 1.4494                 1.9741
 Raman Activ --     0.7623                 5.4206                 2.1191

                    25                     26                     27
                     A                      A                      A
 Frequencies --   355.3332               369.2508               377.2342
 Red. masses --     6.6384                 4.6763                 4.6860
 Frc consts  --     0.4938                 0.3757                 0.3929
 IR Inten    --    11.2522                 0.9952                 3.0800
 Raman Activ --     1.3111                 1.5870                 0.3361

                    28                     29                     30
                     A                      A                      A
 Frequencies --   397.2631               421.0142               430.0247
 Red. masses --     5.3563                 5.8283                 5.8673
 Frc consts  --     0.4981                 0.6087                 0.6393
 IR Inten    --    28.2024                 1.1318                 3.0046
 Raman Activ --     2.6247                 9.4197                 1.3978

                    31                     32                     33
                     A                      A                      A
 Frequencies --   445.7179               468.8833               486.6646
 Red. masses --     4.1502                 4.9546                 3.6342
 Frc consts  --     0.4858                 0.6418                 0.5071
 IR Inten    --     3.6647                 5.4828                18.5151
 Raman Activ --     1.4742                 1.1173                 0.7377

                    34                     35                     36
                     A                      A                      A
 Frequencies --   512.8094               520.2838               565.0125
 Red. masses --     3.4078                 3.8502                 3.5672
 Frc consts  --     0.5280                 0.6141                 0.6709
 IR Inten    --     3.4021                15.6325                 3.7555
 Raman Activ --     5.7469                 1.4980                 2.2566

                    37                     38                     39
                     A                      A                      A
 Frequencies --   583.5987               607.2359               627.3554
 Red. masses --     2.8259                 6.3770                 4.7973
 Frc consts  --     0.5671                 1.3854                 1.1124
 IR Inten    --    47.8269                 2.9966                45.6973
 Raman Activ --     0.3817                 0.2572                 1.6978

                    40                     41                     42
                     A                      A                      A
 Frequencies --   640.3174               682.5624               689.5247
 Red. masses --     5.6236                 1.8458                 1.6299
 Frc consts  --     1.3585                 0.5067                 0.4566
 IR Inten    --     4.5194                62.5358                28.7414
 Raman Activ --     0.3578                 0.7743                 2.7247

                    43                     44                     45
                     A                      A                      A
 Frequencies --   690.6928               730.3766               753.1360
 Red. masses --     1.1030                 1.0753                 1.0657
 Frc consts  --     0.3100                 0.3380                 0.3561
 IR Inten    --   140.2166                98.6968                94.6190
 Raman Activ --     1.2331                 1.6548                 1.6049

                    46                     47                     48
                     A                      A                      A
 Frequencies --   832.2866               845.0971               858.5504
 Red. masses --     1.9506                 1.1129                 1.5616
 Frc consts  --     0.7961                 0.4683                 0.6782
 IR Inten    --     2.2220                65.9905                 6.7305
 Raman Activ --     0.8220                 1.7629                 0.3706

                    49                     50                     51
                     A                      A                      A
 Frequencies --   909.3852               920.2055               949.0775
 Red. masses --     1.5302                 2.5362                 5.2000
 Frc consts  --     0.7456                 1.2653                 2.7597
 IR Inten    --    57.6778               111.2071                62.2640
 Raman Activ --     0.9256                 3.2395                 0.6967

                    52                     53                     54
                     A                      A                      A
 Frequencies --   977.8473               978.2650               982.5730
 Red. masses --     6.3665                 5.1109                 4.4186
 Frc consts  --     3.5867                 2.8818                 2.5134
 IR Inten    --    89.8543                96.7473                19.6541
 Raman Activ --     2.0614                 4.0848                 1.0364

                    55                     56                     57
                     A                      A                      A
 Frequencies --  1003.7459              1008.7381              1020.1003
 Red. masses --     6.8941                 5.7669                 5.2129
 Frc consts  --     4.0924                 3.4574                 3.1960
 IR Inten    --   376.7509                63.9568                85.5021
 Raman Activ --     2.0201                 2.4888                 3.3221

                    58                     59                     60
                     A                      A                      A
 Frequencies --  1033.3983              1053.3583              1060.8797
 Red. masses --     5.2493                 3.9377                 3.8735
 Frc consts  --     3.3028                 2.5742                 2.5685
 IR Inten    --   322.2907               140.5990                 5.5030
 Raman Activ --     3.0660                 5.8293                 3.2488

                    61                     62                     63
                     A                      A                      A
 Frequencies --  1070.0935              1073.8858              1086.4094
 Red. masses --     4.4045                 3.4639                 7.8362
 Frc consts  --     2.9716                 2.3536                 5.4493
 IR Inten    --   123.8168                 0.5833                14.1513
 Raman Activ --     1.4470                23.1640                 0.5895

                    64                     65                     66
                     A                      A                      A
 Frequencies --  1091.6486              1107.4566              1112.0331
 Red. masses --     2.5344                 3.4369                 2.0837
 Frc consts  --     1.7795                 2.4835                 1.5182
 IR Inten    --    36.3113               131.2430                31.2802
 Raman Activ --     8.9741                 4.6754                 2.6030

                    67                     68                     69
                     A                      A                      A
 Frequencies --  1117.2874              1124.8676              1130.0149
 Red. masses --     3.0338                 2.9997                 2.4047
 Frc consts  --     2.2313                 2.2363                 1.8092
 IR Inten    --    11.2101                62.1114                62.8617
 Raman Activ --     8.7371                 2.1647                 8.1901

                    70                     71                     72
                     A                      A                      A
 Frequencies --  1141.4843              1145.8656              1157.5451
 Red. masses --     2.0637                 3.2646                 1.9260
 Frc consts  --     1.5843                 2.5255                 1.5205
 IR Inten    --    20.5505                36.5345                 2.9663
 Raman Activ --     4.9591                 9.6898                 1.8758

                    73                     74                     75
                     A                      A                      A
 Frequencies --  1169.2084              1179.8588              1203.8576
 Red. masses --     1.7798                 1.5910                 1.5758
 Frc consts  --     1.4335                 1.3049                 1.3456
 IR Inten    --     5.5407                11.4411                12.8974
 Raman Activ --     0.7625                 1.7234                 4.5971

                    76                     77                     78
                     A                      A                      A
 Frequencies --  1205.4580              1217.2837              1222.3030
 Red. masses --     1.8108                 1.3345                 1.2723
 Frc consts  --     1.5503                 1.1651                 1.1200
 IR Inten    --     3.8243                10.0582                 6.5960
 Raman Activ --     1.2542                 0.8702                 1.7037

                    79                     80                     81
                     A                      A                      A
 Frequencies --  1225.2544              1231.1705              1255.1737
 Red. masses --     1.3250                 1.2095                 1.3164
 Frc consts  --     1.1720                 1.0802                 1.2219
 IR Inten    --     1.3019                 9.2056                10.8867
 Raman Activ --     3.7045                 1.1446                 2.1208

                    82                     83                     84
                     A                      A                      A
 Frequencies --  1262.6793              1270.7728              1274.5107
 Red. masses --     1.2336                 1.2861                 1.3546
 Frc consts  --     1.1588                 1.2236                 1.2964
 IR Inten    --     8.0991                22.3079                60.0215
 Raman Activ --     3.0446                 1.0758                 3.3263

                    85                     86                     87
                     A                      A                      A
 Frequencies --  1280.1920              1293.1341              1308.5109
 Red. masses --     1.3175                 1.3200                 1.3175
 Frc consts  --     1.2722                 1.3006                 1.3291
 IR Inten    --     6.5715                24.0034                11.8680
 Raman Activ --     3.3786                 1.7323                 8.2933

                    88                     89                     90
                     A                      A                      A
 Frequencies --  1311.7921              1322.7782              1327.4431
 Red. masses --     1.2738                 1.1655                 1.2786
 Frc consts  --     1.2914                 1.2016                 1.3274
 IR Inten    --    13.1795                11.2063                23.9249
 Raman Activ --     2.2536                11.0507                 4.5542

                    91                     92                     93
                     A                      A                      A
 Frequencies --  1332.0748              1335.0648              1347.7831
 Red. masses --     1.2928                 1.2166                 1.5077
 Frc consts  --     1.3516                 1.2777                 1.6137
 IR Inten    --    20.7140                47.3671                12.3821
 Raman Activ --     2.6813                 2.4819                 8.1692

                    94                     95                     96
                     A                      A                      A
 Frequencies --  1354.1931              1358.3567              1368.5455
 Red. masses --     1.1815                 1.2219                 1.4175
 Frc consts  --     1.2766                 1.3284                 1.5642
 IR Inten    --    39.5960                35.5510                 5.5381
 Raman Activ --     2.7189                 6.5845                 3.2366

                    97                     98                     99
                     A                      A                      A
 Frequencies --  1375.8824              1392.7340              1396.4111
 Red. masses --     1.6122                 1.3209                 1.4613
 Frc consts  --     1.7982                 1.5096                 1.6788
 IR Inten    --     2.0564                 1.3893                 3.2517
 Raman Activ --     4.0535                 4.2332                 4.8607

                   100                    101                    102
                     A                      A                      A
 Frequencies --  1435.4519              1440.8590              1444.9900
 Red. masses --     1.4011                 1.4052                 1.3880
 Frc consts  --     1.7010                 1.7188                 1.7076
 IR Inten    --    45.1347                13.8251                47.9579
 Raman Activ --     1.1617                 1.5866                 1.1552

                   103                    104                    105
                     A                      A                      A
 Frequencies --  1461.0317              1468.0047              1468.8709
 Red. masses --     1.1033                 1.3397                 1.0873
 Frc consts  --     1.3876                 1.7010                 1.3822
 IR Inten    --     5.0161                12.1670                 3.8273
 Raman Activ --     4.8198                 0.4534                 4.1425

                   106                    107                    108
                     A                      A                      A
 Frequencies --  1531.5677              1567.5062              3214.3920
 Red. masses --     1.2383                 1.2080                 1.0678
 Frc consts  --     1.7114                 1.7488                 6.5006
 IR Inten    --    89.8031                66.9368               984.9818
 Raman Activ --     1.8558                 2.1397               152.7693

                   109                    110                    111
                     A                      A                      A
 Frequencies --  3240.1885              3252.1239              3255.0646
 Red. masses --     1.0720                 1.0666                 1.0800
 Frc consts  --     6.6310                 6.6464                 6.7418
 IR Inten    --     3.5671                54.5482                37.1846
 Raman Activ --   136.1160                16.2622                56.3927

                   112                    113                    114
                     A                      A                      A
 Frequencies --  3261.4803              3264.3900              3275.5180
 Red. masses --     1.0581                 1.0808                 1.0835
 Frc consts  --     6.6315                 6.7857                 6.8490
 IR Inten    --     9.6509                14.1527                15.4697
 Raman Activ --   178.5395                90.8563                30.7954

                   115                    116                    117
                     A                      A                      A
 Frequencies --  3281.7658              3284.0932              3285.9648
 Red. masses --     1.0839                 1.0843                 1.0839
 Frc consts  --     6.8776                 6.8904                 6.8955
 IR Inten    --     0.8340                 1.0377                55.5370
 Raman Activ --    34.9659               117.3885                41.0100

                   118                    119                    120
                     A                      A                      A
 Frequencies --  3292.1820              3293.2862              3298.3310
 Red. masses --     1.0712                 1.0861                 1.0873
 Frc consts  --     6.8406                 6.9405                 6.9694
 IR Inten    --   463.7763                84.7705                16.3446
 Raman Activ --    72.7455                45.4000                26.4976

                   121                    122                    123
                     A                      A                      A
 Frequencies --  3301.0455              3302.5425              3317.4803
 Red. masses --     1.0999                 1.0868                 1.1047
 Frc consts  --     7.0619                 6.9838                 7.1631
 IR Inten    --     1.6986               193.4942                50.9621
 Raman Activ --    24.6556                66.0270                36.6970

                   124                    125                    126
                     A                      A                      A
 Frequencies --  3353.8043              3355.5413              3360.2703
 Red. masses --     1.0661                 1.0687                 1.0673
 Frc consts  --     7.0651                 7.0897                 7.1005
 IR Inten    --    51.1424                67.1549                58.5855
 Raman Activ --   110.8447               174.3516               141.5479

                   127                    128                    129
                     A                      A                      A
 Frequencies --  3364.2297              3873.9498              3877.3609
 Red. masses --     1.0656                 1.0677                 1.0674
 Frc consts  --     7.1061                 9.4407                 9.4546
 IR Inten    --    39.2925                82.4510                65.8554
 Raman Activ --   109.3770                81.5674               128.1105

 - Thermochemistry -
 -------------------
 Temperature   298.150 Kelvin.  Pressure   1.00000 Atm.
 Atom     1 has atomic number  8 and mass  15.99491

 Molecular mass:   342.11621 amu.
 Principal axes and moments of inertia in atomic units:
                           1         2         3
     Eigenvalues --  4449.60365********************
           X            0.99997   0.00722  -0.00053
           Y           -0.00723   0.99997  -0.00227
           Z            0.00052   0.00227   1.00000
 This molecule is an asymmetric top.
 Rotational symmetry number  1.
 Warning -- assumption of classical behavior for rotation
           may cause significant error
 Rotational temperatures (Kelvin)      0.01947     0.00697     0.00526
 Rotational constants (GHZ):           0.40560     0.14526     0.10950
    7 imaginary frequencies ignored.
 Zero-point vibrational energy     973323.2 (Joules/Mol)
                                  232.62983 (Kcal/Mol)
 Warning -- explicit consideration of  31 degrees of freedom as
           vibrations may cause significant error
 Vibrational temperatures:     36.10    79.04   113.14   115.21   150.82
          (Kelvin)            223.44   242.51   266.13   309.04   328.21
                              353.48   381.38   396.30   433.75   449.17
                              453.51   466.84   511.24   531.27   542.76
                              571.57   605.74   618.71   641.29   674.62
                              700.20   737.82   748.57   812.93   839.67
                              873.68   902.62   921.27   982.05   992.07
                              993.75  1050.85  1083.59  1197.47  1215.90
                             1235.26  1308.40  1323.97  1365.51  1406.90
                             1407.50  1413.70  1444.16  1451.35  1467.70
                             1486.83  1515.55  1526.37  1539.62  1545.08
                             1563.10  1570.64  1593.38  1599.97  1607.53
                             1618.43  1625.84  1642.34  1648.64  1665.45
                             1682.23  1697.55  1732.08  1734.38  1751.40
                             1758.62  1762.87  1771.38  1805.91  1816.71
                             1828.36  1833.73  1841.91  1860.53  1882.65
                             1887.37  1903.18  1909.89  1916.56  1920.86
                             1939.16  1948.38  1954.37  1969.03  1979.59
                             2003.83  2009.12  2065.29  2073.07  2079.02
                             2102.10  2112.13  2113.37  2203.58  2255.29
                             4624.79  4661.90  4679.08  4683.31  4692.54
                             4696.72  4712.73  4721.72  4725.07  4727.76
                             4736.71  4738.30  4745.56  4749.46  4751.62
                             4773.11  4825.37  4827.87  4834.67  4840.37
                             5573.74  5578.65

 Zero-point correction=                           0.370719 (Hartree/Particle)
 Thermal correction to Energy=                    0.389193
 Thermal correction to Enthalpy=                  0.390137
 Thermal correction to Gibbs Free Energy=         0.324282
 Sum of electronic and zero-point Energies=          -1297.627224
 Sum of electronic and thermal Energies=             -1297.608750
 Sum of electronic and thermal Enthalpies=           -1297.607806
 Sum of electronic and thermal Free Energies=        -1297.673661

                     E (Thermal)             CV                S
                      KCal/Mol        Cal/Mol-Kelvin    Cal/Mol-Kelvin
 Total                  244.222             75.887            138.603
 Electronic               0.000              0.000              0.000
 Translational            0.889              2.981             43.384
 Rotational               0.889              2.981             35.165
 Vibrational            242.445             69.926             60.054
 Vibration     1          0.593              1.985              6.184
 Vibration     2          0.596              1.976              4.631
 Vibration     3          0.600              1.964              3.925
 Vibration     4          0.600              1.963              3.889
 Vibration     5          0.605              1.945              3.363
 Vibration     6          0.620              1.897              2.606
 Vibration     7          0.625              1.881              2.452
 Vibration     8          0.631              1.860              2.278
 Vibration     9          0.645              1.818              2.003
 Vibration    10          0.651              1.798              1.894
 Vibration    11          0.660              1.770              1.761
 Vibration    12          0.671              1.737              1.628
 Vibration    13          0.677              1.719              1.562
 Vibration    14          0.693              1.671              1.409
 Vibration    15          0.701              1.650              1.351
 Vibration    16          0.703              1.645              1.335
 Vibration    17          0.709              1.627              1.287
 Vibration    18          0.731              1.564              1.142
 Vibration    19          0.742              1.535              1.083
 Vibration    20          0.748              1.519              1.050
 Vibration    21          0.764              1.476              0.973
 Vibration    22          0.784              1.425              0.889
 Vibration    23          0.791              1.405              0.859
 Vibration    24          0.805              1.370              0.809
 Vibration    25          0.826              1.319              0.741
 Vibration    26          0.843              1.280              0.692
 Vibration    27          0.868              1.222              0.627
 Vibration    28          0.875              1.205              0.609
 Vibration    29          0.921              1.107              0.514
 Vibration    30          0.940              1.067              0.479
 Vibration    31          0.966              1.016              0.437

 Normal termination of Gaussian 09 at Fri Feb 12 10:09:57 2016.
