 Gaussian 09, Revision B.01,
 Gaussian 09:  EM64L-G09RevB.01 12-Aug-2010

 -------------------------------------------------
 # freq=raman b3lyp/6-31+g(2d,p) geom=connectivity
 -------------------------------------------------

 -----------------
 500 5777/5777.com
 -----------------
 Symbolic Z-matrix:
 Charge =  0 Multiplicity = 1

                         Standard orientation:
 ---------------------------------------------------------------------
 Center     Atomic      Atomic             Coordinates (Angstroms)
 Number     Number       Type             X           Y           Z
 ---------------------------------------------------------------------
      1          8           0        5.073508   -0.491696   -0.638275
      2          6           0        3.895896   -0.043058    0.049241
      3          6           0        3.376532    1.322780   -0.368542
      4          8           0        4.359772    2.364963   -0.440399
      5          1           0        5.297684    2.018452   -0.408273
      6          6           0        2.056940    1.697586    0.286921
      7          8           0        1.487664    2.902548   -0.246316
      8          1           0        2.291083    3.390059   -0.588447
      9          6           0        3.238991   -2.339200    0.586897
     10          8           0        2.587657   -3.611463    0.715509
     11          1           0        3.154003   -4.215933    1.275772
     12          6           0        2.818949   -1.092223   -0.174496
     13          8           0        1.537562   -0.639534    0.287554
     14          6           0        1.100269    0.629438   -0.218169
     15          8           0       -0.176375    0.671986    0.435942
     16          6           0       -1.446945    0.234705   -0.068458
     17          6           0       -1.765478   -1.220191    0.231934
     18          8           0       -0.655175   -2.018690   -0.202212
     19          1           0        0.241587   -1.686290    0.091569
     20          6           0       -3.047793   -1.557614   -0.512913
     21          8           0       -3.387993   -2.951330   -0.538000
     22          1           0       -2.569615   -3.320310   -0.977222
     23          6           0       -2.371064    2.546963    0.426408
     24          8           0       -3.398005    3.544292    0.528711
     25          1           0       -3.186184    4.206645   -0.189722
     26          6           0       -2.598383    1.045761    0.503369
     27          8           0       -3.786739    0.667232   -0.206578
     28          6           0       -4.191160   -0.694689   -0.003900
     29          8           0       -5.544724   -0.817199   -0.463745
     30          1           0       -6.144977   -0.722530    0.279446
     31          1           0       -4.226517   -0.848940    1.054333
     32          1           0       -2.885833   -1.272401   -1.531404
     33          1           0       -1.913761   -1.348063    1.283866
     34          1           0       -1.443782    0.362596   -1.130783
     35          1           0       -2.720582    0.777316    1.531914
     36          1           0       -1.882642    2.722778   -0.509237
     37          1           0       -1.660902    2.776476    1.193150
     38          1           0        5.789946   -0.600101   -0.008541
     39          1           0        3.367747   -2.003910    1.594817
     40          1           0        4.207009   -2.574907    0.196663
     41          1           0        2.758111   -1.319185   -1.218377
     42          1           0        4.115535   -0.008081    1.095872
     43          1           0        3.105753    1.176928   -1.393386
     44          1           0        2.118332    1.710811    1.355077
     45          1           0        1.010280    0.628169   -1.284377
 ---------------------------------------------------------------------

 SCF Done:  E(RB3LYP) =  -1297.94558618     A.U. after   14 cycles

 The electronic state is 1-A.
 Alpha  occ. eigenvalues --  -19.20387 -19.19359 -19.19249 -19.18049 -19.16958
 Alpha  occ. eigenvalues --  -19.16877 -19.15740 -19.15134 -19.14642 -19.14605
 Alpha  occ. eigenvalues --  -19.13171 -10.32009 -10.28750 -10.28638 -10.27700
 Alpha  occ. eigenvalues --  -10.27695 -10.27228 -10.25423 -10.24857 -10.24190
 Alpha  occ. eigenvalues --  -10.23704 -10.23672 -10.22290  -1.10990  -1.08340
 Alpha  occ. eigenvalues --   -1.06623  -1.06189  -1.04290  -1.03687  -1.03059
 Alpha  occ. eigenvalues --   -1.01984  -1.01330  -1.00437  -0.99584  -0.83882
 Alpha  occ. eigenvalues --   -0.82726  -0.79438  -0.77776  -0.72706  -0.69653
 Alpha  occ. eigenvalues --   -0.68210  -0.65040  -0.63747  -0.63280  -0.60844
 Alpha  occ. eigenvalues --   -0.60286  -0.58358  -0.56679  -0.55717  -0.54226
 Alpha  occ. eigenvalues --   -0.54002  -0.53194  -0.52526  -0.52178  -0.51394
 Alpha  occ. eigenvalues --   -0.51122  -0.50167  -0.48846  -0.47518  -0.47309
 Alpha  occ. eigenvalues --   -0.46061  -0.45642  -0.45122  -0.44605  -0.44106
 Alpha  occ. eigenvalues --   -0.43069  -0.42620  -0.41447  -0.40804  -0.40587
 Alpha  occ. eigenvalues --   -0.39365  -0.38635  -0.38041  -0.36512  -0.35971
 Alpha  occ. eigenvalues --   -0.35012  -0.34171  -0.33780  -0.33322  -0.32577
 Alpha  occ. eigenvalues --   -0.32200  -0.31779  -0.30763  -0.30430  -0.30235
 Alpha  occ. eigenvalues --   -0.30027  -0.29062  -0.27919  -0.27365  -0.26714
 Alpha  occ. eigenvalues --   -0.25309
 Alpha virt. eigenvalues --   -0.04481  -0.02731  -0.01056  -0.00322   0.00137
 Alpha virt. eigenvalues --    0.00505   0.01095   0.02110   0.02477   0.02841
 Alpha virt. eigenvalues --    0.03603   0.04251   0.04971   0.05277   0.05701

 Mulliken atomic charges:
              1
     1  O   -0.528914
     2  C   -0.227718
     3  C    0.134417
     4  O   -0.598846
     5  H    0.348622
     6  C    0.143138
     7  O   -0.522694
     8  H    0.351126
     9  C   -0.462487
    10  O   -0.524310
    11  H    0.335313
    12  C    0.419222
    13  O   -0.254561
    14  C    0.260288
    15  O   -0.304342
    16  C    0.080324
    17  C    0.304118
    18  O   -0.625813
    19  H    0.419926
    20  C   -0.061330
    21  O   -0.515247
    22  H    0.345151
    23  C   -0.357302
    24  O   -0.503581
    25  H    0.325910
    26  C    0.077317
    27  O   -0.224117
    28  C    0.225818
    29  O   -0.510636
    30  H    0.328771
    31  H    0.095731
    32  H    0.118158
    33  H    0.114483
    34  H    0.114555
    35  H    0.113189
    36  H    0.129639
    37  H    0.158539
    38  H    0.342091
    39  H    0.130370
    40  H    0.154688
    41  H    0.131310
    42  H    0.120868
    43  H    0.117942
    44  H    0.138442
    45  H    0.142431
 Sum of Mulliken atomic charges =   0.00000

 Dipole moment (field-independent basis, Debye):
    X=             10.0472    Y=              0.6556    Z=              1.8710  Tot=             10.2410
 Quadrupole moment (field-independent basis, Debye-Ang):
   XX=           -121.1175   YY=           -147.6981   ZZ=           -134.6940
   XY=             -8.1655   XZ=              2.3246   YZ=            -10.5033

  Exact polarizability: 230.399   1.689 201.750  -0.778  -2.366 145.496
 Approx polarizability: 275.377   0.314 260.447  -1.251  -4.594 240.503

 ******    7 imaginary frequencies (negative Signs) ******

                     1                      2                      3
                     A                      A                      A
 Frequencies --  -352.6795              -327.5913              -278.2185
 Red. masses --     1.6184                 1.5679                 1.1312
 Frc consts  --     0.1186                 0.0991                 0.0516
 IR Inten    --     4.0786                 0.9132                92.8110
 Raman Activ --     0.0693                 0.1226                 1.0325

                     4                      5                      6
                     A                      A                      A
 Frequencies --   -80.9446               -70.7544               -53.6566
 Red. masses --     5.0495                 1.9966                 3.1940
 Frc consts  --     0.0195                 0.0059                 0.0054
 IR Inten    --     8.1127                63.1853                27.4233
 Raman Activ --     0.1112                 0.4860                 0.3150

                     7                      8                      9
                     A                      A                      A
 Frequencies --    -5.9732                46.8327                56.6224
 Red. masses --     5.7960                 6.5046                 6.6013
 Frc consts  --     0.0001                 0.0084                 0.0125
 IR Inten    --     2.6228                 1.5267                 0.6968
 Raman Activ --     0.0479                 0.0508                 0.0200

                    10                     11                     12
                     A                      A                      A
 Frequencies --    72.5303                90.2596               108.0158
 Red. masses --     6.9874                 7.6937                 6.1138
 Frc consts  --     0.0217                 0.0369                 0.0420
 IR Inten    --     0.1878                 3.3551                 4.7110
 Raman Activ --     0.0588                 0.0783                 0.8099

                    13                     14                     15
                     A                      A                      A
 Frequencies --   139.6549               150.4200               169.3785
 Red. masses --     6.0059                 6.7110                 6.3910
 Frc consts  --     0.0690                 0.0895                 0.1080
 IR Inten    --     0.8454                 0.9426                 2.7534
 Raman Activ --     0.1366                 0.4015                 0.4529

                    16                     17                     18
                     A                      A                      A
 Frequencies --   184.7217               204.9693               253.1144
 Red. masses --     6.6115                 6.4202                 5.1808
 Frc consts  --     0.1329                 0.1589                 0.1956
 IR Inten    --     0.6746                 2.5116                 9.3515
 Raman Activ --     2.3033                 1.3144                 0.6272

                    19                     20                     21
                     A                      A                      A
 Frequencies --   264.2548               278.4968               291.7021
 Red. masses --     5.5554                 4.6260                 4.7065
 Frc consts  --     0.2286                 0.2114                 0.2360
 IR Inten    --     4.8474                 2.5996                 8.0990
 Raman Activ --     0.4164                 0.3109                 0.5368

                    22                     23                     24
                     A                      A                      A
 Frequencies --   299.1143               313.0401               324.8974
 Red. masses --     4.0282                 4.8218                 5.5518
 Frc consts  --     0.2123                 0.2784                 0.3453
 IR Inten    --     1.0241                 4.2145                 2.5107
 Raman Activ --     1.3082                 3.0617                 2.8684

                    25                     26                     27
                     A                      A                      A
 Frequencies --   335.5029               360.1690               365.1264
 Red. masses --     6.0780                 3.9816                 6.3087
 Frc consts  --     0.4031                 0.3043                 0.4955
 IR Inten    --     1.6538                 3.8318                 6.9783
 Raman Activ --     6.5662                 0.3138                 0.8645

                    28                     29                     30
                     A                      A                      A
 Frequencies --   401.7695               406.4215               426.6108
 Red. masses --     4.8992                 6.0924                 6.8323
 Frc consts  --     0.4659                 0.5929                 0.7326
 IR Inten    --    15.9553                 3.5644                 2.0200
 Raman Activ --     2.2928                 4.1487                 0.8805

                    31                     32                     33
                     A                      A                      A
 Frequencies --   447.8234               469.3189               480.4611
 Red. masses --     5.0855                 3.7506                 4.8128
 Frc consts  --     0.6009                 0.4867                 0.6546
 IR Inten    --     8.7296                 8.8863                 4.4917
 Raman Activ --     1.1929                 3.8562                 1.1032

                    34                     35                     36
                     A                      A                      A
 Frequencies --   526.0800               537.1828               557.2107
 Red. masses --     3.9154                 3.0702                 4.9138
 Frc consts  --     0.6384                 0.5220                 0.8989
 IR Inten    --    24.1987                26.6967                 9.0851
 Raman Activ --     3.1573                 5.0072                 0.7064

                    37                     38                     39
                     A                      A                      A
 Frequencies --   579.9753               588.3928               599.5693
 Red. masses --     2.8518                 2.9486                 2.0405
 Frc consts  --     0.5652                 0.6015                 0.4322
 IR Inten    --    17.9046                24.6766                26.1098
 Raman Activ --     0.7233                 0.9421                 2.2163

                    40                     41                     42
                     A                      A                      A
 Frequencies --   623.4664               637.2657               653.6337
 Red. masses --     2.1772                 2.6662                 1.0580
 Frc consts  --     0.4986                 0.6379                 0.2663
 IR Inten    --    35.4060                50.4284               109.4875
 Raman Activ --     1.3032                 1.3943                 2.0395

                    43                     44                     45
                     A                      A                      A
 Frequencies --   667.2446               672.9452               728.7611
 Red. masses --     4.7010                 1.0951                 1.0981
 Frc consts  --     1.2331                 0.2922                 0.3436
 IR Inten    --    24.8126                84.6941                71.0774
 Raman Activ --     0.3198                 0.9694                 0.9943

                    46                     47                     48
                     A                      A                      A
 Frequencies --   743.2163               777.7868               835.5466
 Red. masses --     1.1355                 1.1110                 2.6076
 Frc consts  --     0.3695                 0.3960                 1.0726
 IR Inten    --   112.1507               108.4567                 9.6286
 Raman Activ --     1.3158                 2.6074                 1.9483

                    49                     50                     51
                     A                      A                      A
 Frequencies --   839.1971               894.8281               941.9267
 Red. masses --     2.7159                 6.2157                 6.3281
 Frc consts  --     1.1269                 2.9324                 3.3079
 IR Inten    --     5.9068               155.0711               177.7460
 Raman Activ --     4.0335                 3.6790                 1.1568

                    52                     53                     54
                     A                      A                      A
 Frequencies --   950.8221               963.3675               975.1676
 Red. masses --     4.4521                 3.7136                 5.8547
 Frc consts  --     2.3714                 2.0306                 3.2803
 IR Inten    --    36.1015                35.7594                96.4150
 Raman Activ --     4.5129                 2.4089                 0.4777

                    55                     56                     57
                     A                      A                      A
 Frequencies --   987.7806               999.6126              1011.7191
 Red. masses --     5.1035                 6.0132                 5.6620
 Frc consts  --     2.9338                 3.5401                 3.4146
 IR Inten    --   208.4952               159.7476               263.0962
 Raman Activ --     0.8697                 2.4300                 1.0286

                    58                     59                     60
                     A                      A                      A
 Frequencies --  1039.7039              1052.3675              1059.2718
 Red. masses --     3.8368                 2.9428                 3.2434
 Frc consts  --     2.4437                 1.9202                 2.1442
 IR Inten    --   296.2492                13.3344                17.3685
 Raman Activ --     0.7935                16.9196                10.5477

                    61                     62                     63
                     A                      A                      A
 Frequencies --  1072.6695              1074.5480              1079.6326
 Red. masses --     5.5958                 6.3890                 6.2516
 Frc consts  --     3.7935                 4.3465                 4.2933
 IR Inten    --    31.4967                48.5289               182.2702
 Raman Activ --     1.9611                 9.0918                 6.3096

                    64                     65                     66
                     A                      A                      A
 Frequencies --  1099.8349              1103.8094              1109.2119
 Red. masses --     2.7141                 2.8520                 3.0020
 Frc consts  --     1.9343                 2.0473                 2.1762
 IR Inten    --    74.9329                 2.0692                40.5707
 Raman Activ --     1.5559                 3.1622                11.0349

                    67                     68                     69
                     A                      A                      A
 Frequencies --  1118.6210              1136.3078              1136.8613
 Red. masses --     2.8797                 2.4569                 2.5039
 Frc consts  --     2.1231                 1.8691                 1.9067
 IR Inten    --    18.5405                17.4954                45.9046
 Raman Activ --     9.0508                 2.4800                 4.4259

                    70                     71                     72
                     A                      A                      A
 Frequencies --  1150.5372              1153.8461              1156.8232
 Red. masses --     2.4578                 2.8015                 1.7224
 Frc consts  --     1.9169                 2.1975                 1.3581
 IR Inten    --    64.4870                34.7123                35.9551
 Raman Activ --     6.5728                 5.6208                 0.7733

                    73                     74                     75
                     A                      A                      A
 Frequencies --  1169.3513              1175.3559              1185.4287
 Red. masses --     2.9667                 1.9831                 2.3877
 Frc consts  --     2.3901                 1.6141                 1.9769
 IR Inten    --    15.8550                 8.0509                31.8658
 Raman Activ --     3.6592                 0.5455                 2.3277

                    76                     77                     78
                     A                      A                      A
 Frequencies --  1213.7087              1220.6832              1224.1977
 Red. masses --     1.1922                 1.7066                 1.3711
 Frc consts  --     1.0347                 1.4983                 1.2106
 IR Inten    --    21.2614                19.1627                 7.4918
 Raman Activ --     1.0626                 0.4427                 1.6881

                    79                     80                     81
                     A                      A                      A
 Frequencies --  1231.5845              1256.8559              1277.8625
 Red. masses --     1.3114                 1.2762                 1.2380
 Frc consts  --     1.1720                 1.1878                 1.1911
 IR Inten    --     7.5498                 7.7663                44.1965
 Raman Activ --     3.1930                 2.7520                 5.1550

                    82                     83                     84
                     A                      A                      A
 Frequencies --  1281.4555              1296.5664              1307.3978
 Red. masses --     1.2716                 1.2349                 1.2178
 Frc consts  --     1.2303                 1.2231                 1.2264
 IR Inten    --     1.8594                 3.5999                 6.8565
 Raman Activ --     1.5537                 1.1958                 6.3589

                    85                     86                     87
                     A                      A                      A
 Frequencies --  1313.6128              1320.3832              1327.1877
 Red. masses --     1.3517                 1.2837                 1.3554
 Frc consts  --     1.3742                 1.3187                 1.4066
 IR Inten    --    12.8594                28.9794                18.6366
 Raman Activ --     0.4107                 4.1580                 2.3571

                    88                     89                     90
                     A                      A                      A
 Frequencies --  1330.5675              1337.3971              1342.5859
 Red. masses --     1.2301                 1.5134                 1.6976
 Frc consts  --     1.2831                 1.5948                 1.8029
 IR Inten    --    16.2334                 4.1901                 6.2384
 Raman Activ --     7.0799                 5.7514                 5.3952

                    91                     92                     93
                     A                      A                      A
 Frequencies --  1349.2735              1353.8785              1357.8797
 Red. masses --     1.1864                 1.2080                 1.2750
 Frc consts  --     1.2726                 1.3045                 1.3851
 IR Inten    --     9.7176                21.1035                33.4635
 Raman Activ --     3.3510                 4.1233                 6.2543

                    94                     95                     96
                     A                      A                      A
 Frequencies --  1373.9465              1384.4115              1388.6992
 Red. masses --     1.1776                 1.2377                 1.1634
 Frc consts  --     1.3097                 1.3977                 1.3219
 IR Inten    --     6.3870                 3.0759                19.9592
 Raman Activ --     1.7735                 3.2743                 6.3101

                    97                     98                     99
                     A                      A                      A
 Frequencies --  1410.4351              1416.8937              1429.1658
 Red. masses --     1.5375                 1.0854                 1.2393
 Frc consts  --     1.8021                 1.2839                 1.4913
 IR Inten    --    41.0700                32.1834                 7.0419
 Raman Activ --     1.9058                 2.7173                 3.8174

                   100                    101                    102
                     A                      A                      A
 Frequencies --  1430.0000              1444.0865              1448.3817
 Red. masses --     1.1146                 1.2732                 1.0785
 Frc consts  --     1.3429                 1.5643                 1.3331
 IR Inten    --     2.3556                16.4027                 6.1924
 Raman Activ --     2.3303                 1.9055                 3.7321

                   103                    104                    105
                     A                      A                      A
 Frequencies --  1449.2095              1478.5653              1484.1968
 Red. masses --     1.1267                 1.2499                 1.2878
 Frc consts  --     1.3942                 1.6100                 1.6715
 IR Inten    --     5.2847                 6.9066                17.1464
 Raman Activ --     2.7138                 2.0835                 1.3500

                   106                    107                    108
                     A                      A                      A
 Frequencies --  1491.0865              1506.1725              3231.6113
 Red. masses --     1.2511                 1.3596                 1.0697
 Frc consts  --     1.6388                 1.8172                 6.5822
 IR Inten    --   101.4412                58.1336              1070.2348
 Raman Activ --     2.3635                 2.8824               202.2119

                   109                    110                    111
                     A                      A                      A
 Frequencies --  3245.5195              3250.8749              3252.0665
 Red. masses --     1.0609                 1.0787                 1.0824
 Frc consts  --     6.5837                 6.7168                 6.7448
 IR Inten    --    20.3158                 4.1855                13.3969
 Raman Activ --    52.1087               101.0401                42.8572

                   112                    113                    114
                     A                      A                      A
 Frequencies --  3255.0066              3263.7354              3269.8958
 Red. masses --     1.0608                 1.0818                 1.0838
 Frc consts  --     6.6222                 6.7892                 6.8278
 IR Inten    --    49.2399                46.2631                16.5669
 Raman Activ --    70.0278                16.6898                61.0820

                   115                    116                    117
                     A                      A                      A
 Frequencies --  3276.6378              3278.4721              3287.5655
 Red. masses --     1.0828                 1.0825                 1.0880
 Frc consts  --     6.8495                 6.8555                 6.9285
 IR Inten    --     7.3696                 4.3528                18.3672
 Raman Activ --    93.7763                87.0371                20.6398

                   118                    119                    120
                     A                      A                      A
 Frequencies --  3294.6345              3298.5151              3305.6949
 Red. masses --     1.0878                 1.0858                 1.0974
 Frc consts  --     6.9569                 6.9607                 7.0652
 IR Inten    --    58.3459                 2.6340                17.1769
 Raman Activ --    14.2255               122.6387                34.3893

                   121                    122                    123
                     A                      A                      A
 Frequencies --  3309.7622              3310.8996              3365.9866
 Red. masses --     1.0980                 1.0925                 1.0660
 Frc consts  --     7.0867                 7.0563                 7.1158
 IR Inten    --     7.0170               140.4662                46.4870
 Raman Activ --    26.9249                19.8674                64.5757

                   124                    125                    126
                     A                      A                      A
 Frequencies --  3369.1767              3369.3526              3373.4409
 Red. masses --     1.0671                 1.0674                 1.0690
 Frc consts  --     7.1365                 7.1395                 7.1675
 IR Inten    --    47.6668                80.1599                40.5837
 Raman Activ --    86.0147               194.4389                91.2323

                   127                    128                    129
                     A                      A                      A
 Frequencies --  3380.6823              3886.2051              3890.2148
 Red. masses --     1.0649                 1.0678                 1.0677
 Frc consts  --     7.1709                 9.5011                 9.5200
 IR Inten    --    37.4202                78.2245                88.4638
 Raman Activ --    58.9085                88.2753               107.9404

 - Thermochemistry -
 -------------------
 Temperature   298.150 Kelvin.  Pressure   1.00000 Atm.
 Atom     1 has atomic number  8 and mass  15.99491

 Molecular mass:   342.11621 amu.
 Principal axes and moments of inertia in atomic units:
                           1         2         3
     Eigenvalues --  4786.46415********************
           X            0.99998  -0.00704   0.00017
           Y            0.00704   0.99996  -0.00529
           Z           -0.00013   0.00529   0.99999
 This molecule is an asymmetric top.
 Rotational symmetry number  1.
 Warning -- assumption of classical behavior for rotation
           may cause significant error
 Rotational temperatures (Kelvin)      0.01810     0.00702     0.00523
 Rotational constants (GHZ):           0.37705     0.14617     0.10889
    7 imaginary frequencies ignored.
 Zero-point vibrational energy     972279.2 (Joules/Mol)
                                  232.38030 (Kcal/Mol)
 Warning -- explicit consideration of  32 degrees of freedom as
           vibrations may cause significant error
 Vibrational temperatures:     67.38    81.47   104.35   129.86   155.41
          (Kelvin)            200.93   216.42   243.70   265.77   294.90
                              364.17   380.20   400.69   419.69   430.36
                              450.39   467.45   482.71   518.20   525.33
                              578.06   584.75   613.80   644.32   675.24
                              691.28   756.91   772.89   801.70   834.45
                              846.56   862.65   897.03   916.88   940.43
                              960.01   968.22  1048.52  1069.32  1119.06
                             1202.16  1207.42  1287.46  1355.22  1368.02
                             1386.07  1403.05  1421.19  1438.22  1455.64
                             1495.90  1514.12  1524.05  1543.33  1546.03
                             1553.35  1582.42  1588.13  1595.91  1609.44
                             1634.89  1635.69  1655.36  1660.13  1664.41
                             1682.43  1691.07  1705.57  1746.25  1756.29
                             1761.35  1771.97  1808.33  1838.56  1843.73
                             1865.47  1881.05  1889.99  1899.73  1909.52
                             1914.39  1924.21  1931.68  1941.30  1947.93
                             1953.68  1976.80  1991.86  1998.03  2029.30
                             2038.59  2056.25  2057.45  2077.72  2083.90
                             2085.09  2127.32  2135.43  2145.34  2167.04
                             4649.56  4669.57  4677.28  4678.99  4683.22
                             4695.78  4704.64  4714.35  4716.98  4730.07
                             4740.24  4745.82  4756.15  4762.00  4763.64
                             4842.90  4847.49  4847.74  4853.62  4864.04
                             5591.38  5597.14

 Zero-point correction=                           0.370322 (Hartree/Particle)
 Thermal correction to Energy=                    0.389137
 Thermal correction to Enthalpy=                  0.390081
 Thermal correction to Gibbs Free Energy=         0.324001
 Sum of electronic and zero-point Energies=          -1297.575265
 Sum of electronic and thermal Energies=             -1297.556449
 Sum of electronic and thermal Enthalpies=           -1297.555505
 Sum of electronic and thermal Free Energies=        -1297.621586

                     E (Thermal)             CV                S
                      KCal/Mol        Cal/Mol-Kelvin    Cal/Mol-Kelvin
 Total                  244.187             76.935            139.079
 Electronic               0.000              0.000              0.000
 Translational            0.889              2.981             43.384
 Rotational               0.889              2.981             35.237
 Vibrational            242.410             70.973             60.458
 Vibration     1          0.595              1.979              4.947
 Vibration     2          0.596              1.975              4.572
 Vibration     3          0.599              1.967              4.083
 Vibration     4          0.602              1.956              3.654
 Vibration     5          0.606              1.943              3.304
 Vibration     6          0.615              1.914              2.809
 Vibration     7          0.618              1.902              2.667
 Vibration     8          0.625              1.880              2.442
 Vibration     9          0.631              1.861              2.280
 Vibration    10          0.640              1.833              2.088
 Vibration    11          0.664              1.758              1.709
 Vibration    12          0.671              1.738              1.633
 Vibration    13          0.679              1.713              1.543
 Vibration    14          0.687              1.689              1.464
 Vibration    15          0.692              1.675              1.422
 Vibration    16          0.701              1.649              1.346
 Vibration    17          0.709              1.626              1.285
 Vibration    18          0.717              1.605              1.233
 Vibration    19          0.735              1.554              1.121
 Vibration    20          0.738              1.544              1.100
 Vibration    21          0.767              1.466              0.956
 Vibration    22          0.771              1.456              0.939
 Vibration    23          0.788              1.412              0.870
 Vibration    24          0.807              1.366              0.802
 Vibration    25          0.826              1.318              0.739
 Vibration    26          0.837              1.293              0.709
 Vibration    27          0.881              1.192              0.596
 Vibration    28          0.892              1.168              0.571
 Vibration    29          0.913              1.124              0.529
 Vibration    30          0.937              1.075              0.485
 Vibration    31          0.946              1.057              0.470
 Vibration    32          0.958              1.033              0.450

 Normal termination of Gaussian 09 at Fri Apr  1 09:19:45 2016.
