 Gaussian 09, Revision B.01,
 Gaussian 09:  EM64L-G09RevB.01 12-Aug-2010

 ------------------------------------------------
 # freq=raman b3lyp/6-31+g(d,p) geom=connectivity
 ------------------------------------------------

 -------------
 500 10000.com
 -------------
 Symbolic Z-matrix:
 Charge =  0 Multiplicity = 1

                         Standard orientation:
 ---------------------------------------------------------------------
 Center     Atomic      Atomic             Coordinates (Angstroms)
 Number     Number       Type             X           Y           Z
 ---------------------------------------------------------------------
      1          8           0       -5.020872   -0.156977    0.540525
      2          6           0       -3.791494    0.043903   -0.172299
      3          6           0       -3.272434    1.347832    0.411781
      4          8           0       -4.202099    2.404985    0.135884
      5          1           0       -5.176331    2.272449    0.318588
      6          6           0       -1.857264    1.711148   -0.006506
      7          8           0       -1.385585    2.778172    0.828957
      8          1           0       -1.962248    3.588600    0.728536
      9          6           0       -3.396108   -2.448928   -0.452546
     10          8           0       -2.611279   -3.606537   -0.130803
     11          1           0       -3.000962   -4.494784   -0.370001
     12          6           0       -2.879420   -1.137393    0.116254
     13          8           0       -1.581096   -0.763280   -0.365811
     14          6           0       -0.994363    0.463511    0.093053
     15          8           0        0.134565    0.499895   -0.791224
     16          6           0        1.443266    0.286682   -0.243001
     17          6           0        1.829268   -1.181343   -0.322079
     18          8           0        0.787373   -2.151751   -0.145601
     19          1           0       -0.108529   -1.759330   -0.349562
     20          6           0        3.006636   -1.610683    0.538340
     21          8           0        3.204103   -2.963453    0.099540
     22          1           0        2.338528   -3.460366    0.156354
     23          6           0        2.330966    2.553511   -0.243712
     24          8           0        3.134477    3.651156   -0.699586
     25          1           0        2.827707    4.439535   -0.166742
     26          6           0        2.663249    1.116580   -0.608901
     27          8           0        3.840580    0.709357    0.102268
     28          6           0        4.151107   -0.690393    0.146056
     29          8           0        5.265365   -0.787537    1.045073
     30          1           0        6.082678   -0.668747    0.555698
     31          1           0        4.486041   -0.983150   -0.827090
     32          1           0        2.779436   -1.553725    1.582388
     33          1           0        2.161176   -1.315737   -1.330383
     34          1           0        1.311926    0.475377    0.802008
     35          1           0        2.839905    1.047217   -1.661936
     36          1           0        2.314587    2.605128    0.824917
     37          1           0        1.333958    2.736962   -0.586088
     38          1           0       -5.757966   -0.107825   -0.072563
     39          1           0       -3.439382   -2.358577   -1.517846
     40          1           0       -4.389457   -2.604946   -0.086739
     41          1           0       -2.814036   -1.248142    1.178496
     42          1           0       -3.972413    0.141080   -1.222406
     43          1           0       -3.254355    1.222428    1.474254
     44          1           0       -1.869642    2.045076   -1.022990
     45          1           0       -0.655343    0.342670    1.100705
 ---------------------------------------------------------------------

 SCF Done:  E(RB3LYP) =  -1297.92618366     A.U. after   14 cycles

 The electronic state is 1-A.
 Alpha  occ. eigenvalues --  -19.20334 -19.19860 -19.18948 -19.18738 -19.18654
 Alpha  occ. eigenvalues --  -19.17490 -19.17095 -19.16073 -19.15660 -19.14512
 Alpha  occ. eigenvalues --  -19.14420 -10.32872 -10.29280 -10.27590 -10.27449
 Alpha  occ. eigenvalues --  -10.27377 -10.26922 -10.26109 -10.25536 -10.25506
 Alpha  occ. eigenvalues --  -10.23969 -10.23238 -10.22898  -1.10944  -1.07757
 Alpha  occ. eigenvalues --   -1.06974  -1.05224  -1.04306  -1.03157  -1.02878
 Alpha  occ. eigenvalues --   -1.02387  -1.01592  -1.00483  -0.98909  -0.82864
 Alpha  occ. eigenvalues --   -0.82271  -0.79451  -0.77903  -0.73109  -0.69758
 Alpha  occ. eigenvalues --   -0.67929  -0.65713  -0.64198  -0.62300  -0.61653
 Alpha  occ. eigenvalues --   -0.59769  -0.57242  -0.56794  -0.55648  -0.54929
 Alpha  occ. eigenvalues --   -0.54204  -0.53758  -0.52815  -0.52106  -0.51454
 Alpha  occ. eigenvalues --   -0.50572  -0.49810  -0.48671  -0.48632  -0.47176
 Alpha  occ. eigenvalues --   -0.46623  -0.45609  -0.44350  -0.44153  -0.43796
 Alpha  occ. eigenvalues --   -0.42959  -0.42466  -0.41469  -0.40073  -0.39405
 Alpha  occ. eigenvalues --   -0.38358  -0.36931  -0.36702  -0.36495  -0.36191
 Alpha  occ. eigenvalues --   -0.35170  -0.34783  -0.33973  -0.33564  -0.33298
 Alpha  occ. eigenvalues --   -0.32441  -0.31205  -0.30802  -0.30163  -0.29904
 Alpha  occ. eigenvalues --   -0.29751  -0.29489  -0.28071  -0.26952  -0.26545
 Alpha  occ. eigenvalues --   -0.26158
 Alpha virt. eigenvalues --   -0.03695  -0.01993  -0.01114  -0.00201   0.00652
 Alpha virt. eigenvalues --    0.00919   0.01589   0.01987   0.02483   0.03165
 Alpha virt. eigenvalues --    0.03317   0.03996   0.04643   0.05256   0.06022

 Mulliken atomic charges:
              1
     1  O   -0.572923
     2  C   -0.162864
     3  C    0.091599
     4  O   -0.586949
     5  H    0.372777
     6  C    0.130782
     7  O   -0.525037
     8  H    0.378394
     9  C   -0.153205
    10  O   -0.567695
    11  H    0.371914
    12  C    0.256835
    13  O   -0.391798
    14  C    0.193968
    15  O   -0.342424
    16  C   -0.166484
    17  C    0.166201
    18  O   -0.631013
    19  H    0.449853
    20  C    0.076826
    21  O   -0.508981
    22  H    0.385853
    23  C   -0.187118
    24  O   -0.504641
    25  H    0.338450
    26  C   -0.011755
    27  O   -0.285550
    28  C    0.219023
    29  O   -0.500982
    30  H    0.352254
    31  H    0.122305
    32  H    0.144382
    33  H    0.133209
    34  H    0.108304
    35  H    0.142155
    36  H    0.135284
    37  H    0.148444
    38  H    0.364537
    39  H    0.134811
    40  H    0.150150
    41  H    0.141247
    42  H    0.146303
    43  H    0.152698
    44  H    0.157812
    45  H    0.133048
 Sum of Mulliken atomic charges =   0.00000

 Dipole moment (field-independent basis, Debye):
    X=             -9.4206    Y=              1.1312    Z=             -1.4471  Tot=              9.5980
 Quadrupole moment (field-independent basis, Debye-Ang):
   XX=           -117.7725   YY=           -135.1873   ZZ=           -142.7799
   XY=              7.1455   XZ=              2.7621   YZ=              8.3889

  Exact polarizability: 220.135  -1.320 200.612   1.676   1.369 142.832
 Approx polarizability: 259.826  -0.745 254.824   1.426   2.065 230.411

 ******    7 imaginary frequencies (negative Signs) ******

                     1                      2                      3
                     A                      A                      A
 Frequencies --  -282.5161              -274.9866              -259.0027
 Red. masses --     1.4127                 1.2464                 1.8565
 Frc consts  --     0.0664                 0.0555                 0.0734
 IR Inten    --    39.7752                70.5806                10.0587
 Raman Activ --     0.5074                 1.0461                 0.0639

                     4                      5                      6
                     A                      A                      A
 Frequencies --  -208.2819               -87.2136               -72.2939
 Red. masses --     1.2269                 5.8614                 6.8849
 Frc consts  --     0.0314                 0.0263                 0.0212
 IR Inten    --   132.9286                 0.8870                 0.0932
 Raman Activ --     1.2645                 0.0211                 0.0463

                     7                      8                      9
                     A                      A                      A
 Frequencies --   -55.3350                49.0581                54.0027
 Red. masses --     6.7754                 6.9938                 6.7407
 Frc consts  --     0.0122                 0.0099                 0.0116
 IR Inten    --     0.2524                 1.1580                 1.4334
 Raman Activ --     0.1082                 0.0299                 0.0330

                    10                     11                     12
                     A                      A                      A
 Frequencies --    59.4392                63.4970                89.6741
 Red. masses --     7.0602                 6.8338                 6.2474
 Frc consts  --     0.0147                 0.0162                 0.0296
 IR Inten    --     3.6526                 0.4908                 1.3060
 Raman Activ --     0.1023                 0.0246                 0.1247

                    13                     14                     15
                     A                      A                      A
 Frequencies --   113.6376               155.3268               168.9695
 Red. masses --     5.9833                 6.2633                 6.0246
 Frc consts  --     0.0455                 0.0890                 0.1013
 IR Inten    --     1.9433                 0.5997                 2.2573
 Raman Activ --     0.7410                 0.5681                 0.3093

                    16                     17                     18
                     A                      A                      A
 Frequencies --   194.0839               216.2874               240.1587
 Red. masses --     5.8169                 6.4145                 4.7618
 Frc consts  --     0.1291                 0.1768                 0.1618
 IR Inten    --     3.1984                 0.7192                14.1371
 Raman Activ --     1.3679                 1.5994                 0.5712

                    19                     20                     21
                     A                      A                      A
 Frequencies --   271.1417               278.5576               302.3182
 Red. masses --     4.7531                 5.9325                 5.6129
 Frc consts  --     0.2059                 0.2712                 0.3023
 IR Inten    --     7.2107                 1.1577                 4.4373
 Raman Activ --     0.1957                 0.7848                 0.2342

                    22                     23                     24
                     A                      A                      A
 Frequencies --   317.7773               326.1621               337.9887
 Red. masses --     5.5008                 6.4307                 5.1097
 Frc consts  --     0.3273                 0.4031                 0.3439
 IR Inten    --     4.6469                 2.5630                 9.9964
 Raman Activ --     1.8067                 4.4330                 1.8240

                    25                     26                     27
                     A                      A                      A
 Frequencies --   351.8975               358.3758               373.4583
 Red. masses --     4.8460                 6.3335                 4.7468
 Frc consts  --     0.3536                 0.4793                 0.3901
 IR Inten    --     4.2155                 0.3068                 4.4518
 Raman Activ --     3.3213                 0.5316                 1.2399

                    28                     29                     30
                     A                      A                      A
 Frequencies --   405.8193               423.6995               437.7176
 Red. masses --     3.8052                 7.1736                 5.8322
 Frc consts  --     0.3692                 0.7588                 0.6584
 IR Inten    --     8.7137                 0.9420                 1.9498
 Raman Activ --     3.4427                 4.0777                 2.5899

                    31                     32                     33
                     A                      A                      A
 Frequencies --   446.8095               466.2049               496.0840
 Red. masses --     4.7591                 4.4461                 3.5180
 Frc consts  --     0.5598                 0.5694                 0.5101
 IR Inten    --     2.4695                 7.2312                12.5353
 Raman Activ --     0.3707                 0.3454                 0.6234

                    34                     35                     36
                     A                      A                      A
 Frequencies --   514.2039               526.4498               555.8876
 Red. masses --     4.0702                 4.5735                 4.9551
 Frc consts  --     0.6341                 0.7468                 0.9022
 IR Inten    --    13.8472                20.8269                13.8118
 Raman Activ --     5.7183                 0.9648                 3.3612

                    37                     38                     39
                     A                      A                      A
 Frequencies --   581.3115               587.6342               604.0254
 Red. masses --     2.4919                 2.2929                 1.4066
 Frc consts  --     0.4961                 0.4665                 0.3024
 IR Inten    --    54.4602                33.6010                68.5310
 Raman Activ --     1.0474                 0.8660                 1.6337

                    40                     41                     42
                     A                      A                      A
 Frequencies --   610.6601               635.7500               655.0130
 Red. masses --     2.8825                 2.9690                 2.2162
 Frc consts  --     0.6333                 0.7070                 0.5602
 IR Inten    --    10.1747                79.9807                34.2057
 Raman Activ --     0.6916                 1.1560                 0.8827

                    43                     44                     45
                     A                      A                      A
 Frequencies --   664.2907               678.6034               687.6603
 Red. masses --     1.5464                 1.0836                 1.0871
 Frc consts  --     0.4021                 0.2940                 0.3029
 IR Inten    --    71.8748               100.7174               110.7977
 Raman Activ --     1.3713                 0.8591                 2.3854

                    46                     47                     48
                     A                      A                      A
 Frequencies --   724.5059               774.6429               833.1146
 Red. masses --     1.0646                 1.0918                 2.5671
 Frc consts  --     0.3293                 0.3860                 1.0498
 IR Inten    --   149.3813                76.9956                 3.1167
 Raman Activ --     1.7121                 2.0942                 3.4935

                    49                     50                     51
                     A                      A                      A
 Frequencies --   837.4768               931.9367               956.4061
 Red. masses --     2.8430                 6.3522                 6.4278
 Frc consts  --     1.1748                 3.2505                 3.4641
 IR Inten    --     4.6861               187.9010               198.5557
 Raman Activ --     5.0901                 1.1827                 0.3806

                    52                     53                     54
                     A                      A                      A
 Frequencies --   979.4173               993.3328              1002.5677
 Red. masses --     4.1577                 3.9497                 4.3031
 Frc consts  --     2.3499                 2.2962                 2.5483
 IR Inten    --    44.1564                32.9513               135.7875
 Raman Activ --     2.8364                 5.1509                 3.1085

                    55                     56                     57
                     A                      A                      A
 Frequencies --  1009.5991              1018.6694              1023.4594
 Red. masses --     5.1785                 5.2962                 4.4829
 Frc consts  --     3.1099                 3.2380                 2.7666
 IR Inten    --   203.7691               165.3876                68.9821
 Raman Activ --     2.7305                 1.7841                 0.7311

                    58                     59                     60
                     A                      A                      A
 Frequencies --  1034.4005              1050.4752              1052.3242
 Red. masses --     2.8708                 2.7316                 3.9579
 Frc consts  --     1.8098                 1.7760                 2.5823
 IR Inten    --   263.9349                41.7783                42.0117
 Raman Activ --     1.2720                 4.3500                18.3657

                    61                     62                     63
                     A                      A                      A
 Frequencies --  1072.7114              1079.2717              1083.2152
 Red. masses --     3.8045                 3.9167                 3.8680
 Frc consts  --     2.5794                 2.6880                 2.6741
 IR Inten    --   156.5907               120.1550                82.4523
 Raman Activ --     3.4326                 3.1766                 5.3181

                    64                     65                     66
                     A                      A                      A
 Frequencies --  1095.9829              1101.6198              1105.1657
 Red. masses --     2.7160                 2.5057                 2.8885
 Frc consts  --     1.9221                 1.7916                 2.0786
 IR Inten    --     3.3110                89.7625                24.0985
 Raman Activ --     9.8777                 5.7714                 8.7019

                    67                     68                     69
                     A                      A                      A
 Frequencies --  1108.4973              1124.1128              1128.1468
 Red. masses --     3.0014                 2.1461                 2.1888
 Frc consts  --     2.1729                 1.5978                 1.6413
 IR Inten    --     4.8060                87.6994                 8.3065
 Raman Activ --     2.1704                 4.4004                 2.2026

                    70                     71                     72
                     A                      A                      A
 Frequencies --  1130.9870              1152.2153              1165.7353
 Red. masses --     2.2567                 2.2884                 1.5664
 Frc consts  --     1.7008                 1.7900                 1.2542
 IR Inten    --    28.0300                11.6203                 6.2995
 Raman Activ --     4.2562                 1.6241                 1.5043

                    73                     74                     75
                     A                      A                      A
 Frequencies --  1169.0468              1184.6329              1190.7653
 Red. masses --     2.0713                 1.5078                 2.8053
 Frc consts  --     1.6678                 1.2467                 2.3436
 IR Inten    --     0.5456                 2.1249                27.3884
 Raman Activ --     1.0497                 2.7584                 2.6042

                    76                     77                     78
                     A                      A                      A
 Frequencies --  1191.9841              1221.8298              1226.7626
 Red. masses --     2.9576                 1.5532                 1.3612
 Frc consts  --     2.4759                 1.3661                 1.2070
 IR Inten    --     4.1043                14.5260                13.6047
 Raman Activ --     5.1732                 0.7896                 3.7263

                    79                     80                     81
                     A                      A                      A
 Frequencies --  1238.0404              1245.5991              1246.9248
 Red. masses --     1.1643                 1.4261                 1.2045
 Frc consts  --     1.0515                 1.3037                 1.1035
 IR Inten    --     4.3436                19.0828                22.7485
 Raman Activ --     3.3917                 0.9906                 4.8406

                    82                     83                     84
                     A                      A                      A
 Frequencies --  1257.9774              1263.9686              1273.6163
 Red. masses --     1.1981                 1.2654                 1.2847
 Frc consts  --     1.1171                 1.1911                 1.2278
 IR Inten    --    54.9593                24.3400                26.1165
 Raman Activ --     1.0093                 5.1284                 0.5621

                    85                     86                     87
                     A                      A                      A
 Frequencies --  1280.9191              1291.2449              1304.2664
 Red. masses --     1.2597                 1.2380                 1.2320
 Frc consts  --     1.2178                 1.2161                 1.2347
 IR Inten    --    14.0478                56.8374                 7.4801
 Raman Activ --     1.9257                 6.8318                 6.1055

                    88                     89                     90
                     A                      A                      A
 Frequencies --  1320.2485              1322.9659              1326.3719
 Red. masses --     1.2191                 1.3798                 1.3158
 Frc consts  --     1.2520                 1.4229                 1.3639
 IR Inten    --    15.2298                 5.6318                 6.8934
 Raman Activ --     7.2313                 0.9122                 1.6604

                    91                     92                     93
                     A                      A                      A
 Frequencies --  1335.9850              1347.4676              1352.4647
 Red. masses --     1.3832                 1.2125                 1.1767
 Frc consts  --     1.4546                 1.2971                 1.2681
 IR Inten    --    27.2264                47.9218                 4.9997
 Raman Activ --     9.4163                 2.5673                 2.5573

                    94                     95                     96
                     A                      A                      A
 Frequencies --  1354.8570              1363.0804              1367.5981
 Red. masses --     1.7329                 1.1369                 1.4273
 Frc consts  --     1.8741                 1.2446                 1.5728
 IR Inten    --     1.1584                50.7554                 5.2003
 Raman Activ --     4.1865                 4.0399                 7.0757

                    97                     98                     99
                     A                      A                      A
 Frequencies --  1380.4514              1382.4300              1386.1900
 Red. masses --     1.2404                 1.6152                 1.3035
 Frc consts  --     1.3926                 1.8187                 1.4758
 IR Inten    --     2.1415                 7.6365                58.7360
 Raman Activ --     3.2345                 3.3649                 3.5840

                   100                    101                    102
                     A                      A                      A
 Frequencies --  1415.2579              1417.5878              1434.2102
 Red. masses --     1.4754                 1.4641                 1.6136
 Frc consts  --     1.7412                 1.7335                 1.9556
 IR Inten    --    18.3335                25.7310                23.6632
 Raman Activ --     1.4825                 3.3570                 2.4063

                   103                    104                    105
                     A                      A                      A
 Frequencies --  1439.2789              1459.6429              1467.9259
 Red. masses --     1.3291                 1.1232                 1.1650
 Frc consts  --     1.6221                 1.4099                 1.4791
 IR Inten    --     1.7816                 3.5335                19.9544
 Raman Activ --    10.0195                 4.4834                 6.1417

                   106                    107                    108
                     A                      A                      A
 Frequencies --  1469.6165              1480.1778              3257.9314
 Red. masses --     1.2334                 1.3167                 1.0795
 Frc consts  --     1.5695                 1.6996                 6.7507
 IR Inten    --    70.4548                12.3145                30.8061
 Raman Activ --     3.2514                 2.0071                55.9021

                   109                    110                    111
                     A                      A                      A
 Frequencies --  3269.8878              3272.6929              3273.2146
 Red. masses --     1.0742                 1.0583                 1.0683
 Frc consts  --     6.7669                 6.6786                 6.7434
 IR Inten    --     7.9149                45.2507                38.9595
 Raman Activ --    41.8494               145.2599                36.3679

                   112                    113                    114
                     A                      A                      A
 Frequencies --  3290.7941              3291.3310              3295.0077
 Red. masses --     1.0851                 1.0835                 1.0829
 Frc consts  --     6.9231                 6.9152                 6.9274
 IR Inten    --    24.8487                 6.0996                18.2363
 Raman Activ --    83.3575                35.4378               104.3090

                   115                    116                    117
                     A                      A                      A
 Frequencies --  3297.1663              3298.5744              3309.5362
 Red. masses --     1.0848                 1.0838                 1.0859
 Frc consts  --     6.9484                 6.9478                 7.0077
 IR Inten    --    21.5626                46.3337                 3.6498
 Raman Activ --   187.2268                10.2920                 6.3504

                   118                    119                    120
                     A                      A                      A
 Frequencies --  3317.0532              3317.7932              3324.1197
 Red. masses --     1.0866                 1.0869                 1.0811
 Frc consts  --     7.0443                 7.0490                 7.0382
 IR Inten    --    40.7712                61.5183               467.4173
 Raman Activ --    31.6494                20.4310               195.4013

                   121                    122                    123
                     A                      A                      A
 Frequencies --  3325.5804              3330.8680              3392.2988
 Red. masses --     1.0965                 1.1028                 1.0668
 Frc consts  --     7.1448                 7.2089                 7.2328
 IR Inten    --   252.9501                66.6749                38.3545
 Raman Activ --    11.1071                83.1619               114.1106

                   124                    125                    126
                     A                      A                      A
 Frequencies --  3393.4382              3393.9068              3403.1679
 Red. masses --     1.0672                 1.0656                 1.0685
 Frc consts  --     7.2408                 7.2316                 7.2908
 IR Inten    --    54.9662                66.1219                76.2854
 Raman Activ --   155.9588                56.6286               183.3255

                   127                    128                    129
                     A                      A                      A
 Frequencies --  3404.0265              3914.0586              3917.5639
 Red. masses --     1.0669                 1.0677                 1.0674
 Frc consts  --     7.2841                 9.6376                 9.6518
 IR Inten    --    62.5560                57.0452                65.4386
 Raman Activ --   142.3074                98.0631               134.4146

 - Thermochemistry -
 -------------------
 Temperature   298.150 Kelvin.  Pressure   1.00000 Atm.
 Atom     1 has atomic number  8 and mass  15.99491

 Molecular mass:   342.11621 amu.
 Principal axes and moments of inertia in atomic units:
                           1         2         3
     Eigenvalues --  4941.42320********************
           X            0.99998   0.00612   0.00020
           Y           -0.00613   0.99997   0.00455
           Z           -0.00017  -0.00455   0.99999
 This molecule is an asymmetric top.
 Rotational symmetry number  1.
 Warning -- assumption of classical behavior for rotation
           may cause significant error
 Rotational temperatures (Kelvin)      0.01753     0.00728     0.00535
 Rotational constants (GHZ):           0.36523     0.15159     0.11141
    7 imaginary frequencies ignored.
 Zero-point vibrational energy     972390.7 (Joules/Mol)
                                  232.40695 (Kcal/Mol)
 Warning -- explicit consideration of  33 degrees of freedom as
           vibrations may cause significant error
 Vibrational temperatures:     70.58    77.70    85.52    91.36   129.02
          (Kelvin)            163.50   223.48   243.11   279.24   311.19
                              345.53   390.11   400.78   434.97   457.21
                              469.27   486.29   506.30   515.62   537.32
                              583.88   609.61   629.78   642.86   670.76
                              713.75   739.82   757.44   799.80   836.38
                              845.47   869.06   878.60   914.70   942.42
                              955.76   976.36   989.39  1042.40  1114.54
                             1198.66  1204.94  1340.85  1376.05  1409.16
                             1429.18  1442.47  1452.59  1465.64  1472.53
                             1488.27  1511.40  1514.06  1543.39  1552.83
                             1558.50  1576.87  1584.98  1590.08  1594.88
                             1617.35  1623.15  1627.24  1657.78  1677.23
                             1682.00  1704.42  1713.24  1715.00  1757.94
                             1765.04  1781.26  1792.14  1794.04  1809.95
                             1818.57  1832.45  1842.95  1857.81  1876.55
                             1899.54  1903.45  1908.35  1922.18  1938.70
                             1945.89  1949.33  1961.17  1967.67  1986.16
                             1989.01  1994.42  2036.24  2039.59  2063.51
                             2070.80  2100.10  2112.02  2114.45  2129.64
                             4687.43  4704.63  4708.67  4709.42  4734.71
                             4735.49  4740.78  4743.88  4745.91  4761.68
                             4772.49  4773.56  4782.66  4784.76  4792.37
                             4880.76  4882.39  4883.07  4896.39  4897.63
                             5631.45  5636.49

 Zero-point correction=                           0.370364 (Hartree/Particle)
 Thermal correction to Energy=                    0.389222
 Thermal correction to Enthalpy=                  0.390166
 Thermal correction to Gibbs Free Energy=         0.323511
 Sum of electronic and zero-point Energies=          -1297.555820
 Sum of electronic and thermal Energies=             -1297.536961
 Sum of electronic and thermal Enthalpies=           -1297.536017
 Sum of electronic and thermal Free Energies=        -1297.602673

                     E (Thermal)             CV                S
                      KCal/Mol        Cal/Mol-Kelvin    Cal/Mol-Kelvin
 Total                  244.241             76.979            140.288
 Electronic               0.000              0.000              0.000
 Translational            0.889              2.981             43.384
 Rotational               0.889              2.981             35.209
 Vibrational            242.463             71.018             61.694
 Vibration     1          0.595              1.978              4.855
 Vibration     2          0.596              1.976              4.665
 Vibration     3          0.597              1.974              4.476
 Vibration     4          0.597              1.972              4.345
 Vibration     5          0.602              1.956              3.667
 Vibration     6          0.607              1.938              3.206
 Vibration     7          0.620              1.897              2.606
 Vibration     8          0.625              1.881              2.447
 Vibration     9          0.635              1.848              2.188
 Vibration    10          0.645              1.816              1.990
 Vibration    11          0.657              1.779              1.802
 Vibration    12          0.675              1.726              1.589
 Vibration    13          0.679              1.713              1.543
 Vibration    14          0.694              1.669              1.404
 Vibration    15          0.704              1.640              1.322
 Vibration    16          0.710              1.623              1.279
 Vibration    17          0.718              1.600              1.222
 Vibration    18          0.728              1.571              1.158
 Vibration    19          0.733              1.558              1.129
 Vibration    20          0.745              1.527              1.066
 Vibration    21          0.771              1.458              0.942
 Vibration    22          0.786              1.419              0.879
 Vibration    23          0.798              1.388              0.834
 Vibration    24          0.806              1.368              0.805
 Vibration    25          0.824              1.325              0.748
 Vibration    26          0.852              1.259              0.668
 Vibration    27          0.869              1.219              0.624
 Vibration    28          0.881              1.191              0.595
 Vibration    29          0.911              1.127              0.532
 Vibration    30          0.938              1.072              0.483
 Vibration    31          0.945              1.058              0.471
 Vibration    32          0.962              1.023              0.443
 Vibration    33          0.970              1.009              0.432

 Normal termination of Gaussian 09 at Tue Mar  1 16:22:39 2016.
