 Gaussian 09, Revision B.01,
 Gaussian 09:  EM64L-G09RevB.01 12-Aug-2010

 -------------------------------------------------
 # freq=raman b3lyp/6-31+g(2d,p) geom=connectivity
 -------------------------------------------------

 -----------------
 483 8597/8597.com
 -----------------
 Symbolic Z-matrix:
 Charge =  0 Multiplicity = 1

                         Standard orientation:
 ---------------------------------------------------------------------
 Center     Atomic      Atomic             Coordinates (Angstroms)
 Number     Number       Type             X           Y           Z
 ---------------------------------------------------------------------
      1          8           0        4.978169   -0.618979   -0.325736
      2          6           0        3.692051   -0.193177    0.147524
      3          6           0        3.318472    1.225280   -0.250270
      4          8           0        4.407760    2.109542    0.050021
      5          1           0        5.291936    1.687904   -0.151760
      6          6           0        1.956530    1.547616    0.342096
      7          8           0        1.465953    2.765069   -0.236327
      8          1           0        0.552775    2.987746    0.106178
      9          6           0        2.835016   -2.583414    0.195053
     10          8           0        3.870061   -3.284753   -0.509714
     11          1           0        3.691145   -4.267932   -0.518162
     12          6           0        2.560011   -1.143017   -0.208631
     13          8           0        1.280204   -0.841720    0.365374
     14          6           0        0.942736    0.487727   -0.057762
     15          8           0       -0.283229    0.509342    0.688591
     16          6           0       -1.471481    0.237278   -0.067786
     17          6           0       -2.069270   -1.061161    0.449182
     18          8           0       -1.057647   -2.028243    0.134314
     19          1           0       -0.194304   -1.633718    0.448471
     20          6           0       -3.381138   -1.484890   -0.190721
     21          8           0       -3.892635   -2.726762    0.315440
     22          1           0       -4.825339   -2.874470   -0.014333
     23          6           0       -2.150996    2.641766   -0.390498
     24          8           0       -1.087546    3.353284    0.261020
     25          1           0       -1.222394    4.343863    0.219594
     26          6           0       -2.520772    1.300118    0.219708
     27          8           0       -3.785408    0.904368   -0.329746
     28          6           0       -4.346078   -0.347126    0.096226
     29          8           0       -5.537459   -0.539559   -0.679722
     30          1           0       -6.274184   -0.727541   -0.093635
     31          1           0       -4.582855   -0.313220    1.139149
     32          1           0       -3.243425   -1.568859   -1.248494
     33          1           0       -2.190641   -1.002282    1.510645
     34          1           0       -1.259685    0.175375   -1.114787
     35          1           0       -2.620601    1.414132    1.278922
     36          1           0       -3.022007    3.263182   -0.381457
     37          1           0       -1.866863    2.477500   -1.408921
     38          1           0        5.524931   -0.875410    0.420518
     39          1           0        1.926341   -3.135243    0.073834
     40          1           0        3.087553   -2.588166    1.234814
     41          1           0        2.448708   -1.121210   -1.272603
     42          1           0        3.756378   -0.194787    1.215587
     43          1           0        3.201274    1.231644   -1.313813
     44          1           0        2.015984    1.631939    1.407110
     45          1           0        0.748981    0.514831   -1.109724
 ---------------------------------------------------------------------

 SCF Done:  E(RB3LYP) =  -1297.98309438     A.U. after   13 cycles

 The electronic state is 1-A.
 Alpha  occ. eigenvalues --  -19.19188 -19.18689 -19.18078 -19.17864 -19.17588
 Alpha  occ. eigenvalues --  -19.17135 -19.16129 -19.15598 -19.15041 -19.13653
 Alpha  occ. eigenvalues --  -19.12386 -10.30741 -10.30518 -10.25725 -10.25467
 Alpha  occ. eigenvalues --  -10.25251 -10.25212 -10.25082 -10.24965 -10.24562
 Alpha  occ. eigenvalues --  -10.24440 -10.23700 -10.23633  -1.11211  -1.08774
 Alpha  occ. eigenvalues --   -1.05771  -1.05241  -1.03879  -1.03292  -1.02464
 Alpha  occ. eigenvalues --   -1.02023  -1.01791  -1.00492  -0.99785  -0.81926
 Alpha  occ. eigenvalues --   -0.80941  -0.79380  -0.77955  -0.71866  -0.69809
 Alpha  occ. eigenvalues --   -0.67435  -0.65077  -0.63083  -0.62555  -0.61493
 Alpha  occ. eigenvalues --   -0.60356  -0.56410  -0.56104  -0.55360  -0.54885
 Alpha  occ. eigenvalues --   -0.54065  -0.53266  -0.53238  -0.51611  -0.51117
 Alpha  occ. eigenvalues --   -0.50699  -0.50484  -0.49320  -0.48754  -0.47027
 Alpha  occ. eigenvalues --   -0.46483  -0.45314  -0.43960  -0.43281  -0.42918
 Alpha  occ. eigenvalues --   -0.42484  -0.42096  -0.41269  -0.40250  -0.39727
 Alpha  occ. eigenvalues --   -0.38958  -0.37878  -0.37736  -0.35992  -0.35439
 Alpha  occ. eigenvalues --   -0.34875  -0.34543  -0.34061  -0.33887  -0.33380
 Alpha  occ. eigenvalues --   -0.32822  -0.31571  -0.30845  -0.30235  -0.29778
 Alpha  occ. eigenvalues --   -0.29378  -0.28442  -0.27999  -0.27880  -0.26944
 Alpha  occ. eigenvalues --   -0.25473
 Alpha virt. eigenvalues --   -0.02148  -0.01974  -0.01735  -0.00013   0.00381
 Alpha virt. eigenvalues --    0.00949   0.01739   0.02379   0.03160   0.03522
 Alpha virt. eigenvalues --    0.03973   0.04051   0.04805   0.05385   0.05533

 Mulliken atomic charges:
              1
     1  O   -0.546482
     2  C   -0.165987
     3  C    0.185618
     4  O   -0.569867
     5  H    0.350864
     6  C    0.014646
     7  O   -0.571722
     8  H    0.418005
     9  C   -0.194281
    10  O   -0.532828
    11  H    0.340843
    12  C    0.182629
    13  O   -0.246656
    14  C    0.012750
    15  O   -0.204106
    16  C    0.409344
    17  C    0.169078
    18  O   -0.586882
    19  H    0.403947
    20  C    0.051098
    21  O   -0.549466
    22  H    0.333677
    23  C   -0.233579
    24  O   -0.573437
    25  H    0.366386
    26  C   -0.116790
    27  O   -0.261874
    28  C    0.168585
    29  O   -0.544309
    30  H    0.335861
    31  H    0.127882
    32  H    0.130619
    33  H    0.123029
    34  H    0.114110
    35  H    0.122205
    36  H    0.145536
    37  H    0.154446
    38  H    0.346903
    39  H    0.149073
    40  H    0.134301
    41  H    0.111395
    42  H    0.111946
    43  H    0.118281
    44  H    0.132810
    45  H    0.132398
 Sum of Mulliken atomic charges =   0.00000

 Dipole moment (field-independent basis, Debye):
    X=             -2.6865    Y=              0.5573    Z=              1.9927  Tot=              3.3910
 Quadrupole moment (field-independent basis, Debye-Ang):
   XX=           -120.5658   YY=           -135.3055   ZZ=           -138.9527
   XY=            -15.2340   XZ=              1.0450   YZ=             -0.0038

  Exact polarizability: 234.647   3.031 196.674   0.410  -0.815 143.581
 Approx polarizability: 275.974   3.334 256.206  -0.244  -0.910 239.615

 ******    6 imaginary frequencies (negative Signs) ******

                     1                      2                      3
                     A                      A                      A
 Frequencies --  -267.8484              -233.7489              -230.1066
 Red. masses --     1.6800                 1.8047                 1.2245
 Frc consts  --     0.0710                 0.0581                 0.0382
 IR Inten    --    22.6548                 3.7910               109.7983
 Raman Activ --     0.1935                 0.0476                 0.9214

                     4                      5                      6
                     A                      A                      A
 Frequencies --  -199.7762               -89.9716               -37.9357
 Red. masses --     1.2722                 6.7806                 6.4452
 Frc consts  --     0.0299                 0.0323                 0.0055
 IR Inten    --    81.8784                 2.1664                 0.2251
 Raman Activ --     0.5721                 0.0438                 0.0139

                     7                      8                      9
                     A                      A                      A
 Frequencies --    11.9785                44.1007                64.2545
 Red. masses --     6.1115                 6.8064                 6.7892
 Frc consts  --     0.0005                 0.0078                 0.0165
 IR Inten    --     3.0945                 0.3964                 0.0664
 Raman Activ --     0.0439                 0.0591                 0.0216

                    10                     11                     12
                     A                      A                      A
 Frequencies --    94.1573                99.3701               115.6580
 Red. masses --     7.0519                 5.6476                 5.4442
 Frc consts  --     0.0368                 0.0329                 0.0429
 IR Inten    --     2.9172                 5.0300                 1.7030
 Raman Activ --     0.1002                 0.2804                 0.0805

                    13                     14                     15
                     A                      A                      A
 Frequencies --   151.2589               176.9782               188.6747
 Red. masses --     5.7278                 5.9999                 7.4658
 Frc consts  --     0.0772                 0.1107                 0.1566
 IR Inten    --     8.5366                 0.3777                 0.9097
 Raman Activ --     0.1494                 0.8120                 0.8636

                    16                     17                     18
                     A                      A                      A
 Frequencies --   214.6580               236.2853               266.9337
 Red. masses --     6.7609                 5.5162                 4.6394
 Frc consts  --     0.1835                 0.1815                 0.1948
 IR Inten    --     0.9143                 1.6769                17.6436
 Raman Activ --     2.9682                 0.0443                 0.3391

                    19                     20                     21
                     A                      A                      A
 Frequencies --   285.6317               301.5866               304.7628
 Red. masses --     4.9948                 4.4586                 5.7583
 Frc consts  --     0.2401                 0.2389                 0.3151
 IR Inten    --     0.7280                 2.4949                 5.8373
 Raman Activ --     0.0858                 0.2725                 1.0552

                    22                     23                     24
                     A                      A                      A
 Frequencies --   312.1487               321.7570               331.5808
 Red. masses --     4.7236                 6.5146                 4.7972
 Frc consts  --     0.2712                 0.3974                 0.3108
 IR Inten    --     3.6036                 0.4122                 3.9833
 Raman Activ --     1.3469                 1.7444                 1.7718

                    25                     26                     27
                     A                      A                      A
 Frequencies --   341.3904               363.1044               378.6201
 Red. masses --     6.8981                 5.2200                 7.4390
 Frc consts  --     0.4737                 0.4055                 0.6283
 IR Inten    --    13.1150                 3.8170                 4.1457
 Raman Activ --     3.4811                 0.1201                 1.8528

                    28                     29                     30
                     A                      A                      A
 Frequencies --   402.9491               427.4341               437.1280
 Red. masses --     3.7810                 6.1120                 5.1580
 Frc consts  --     0.3617                 0.6579                 0.5807
 IR Inten    --    19.1797                 2.9609                 1.1992
 Raman Activ --     2.2409                 3.9703                 4.9747

                    31                     32                     33
                     A                      A                      A
 Frequencies --   452.3823               473.4024               492.4764
 Red. masses --     6.3102                 4.3317                 3.6450
 Frc consts  --     0.7609                 0.5720                 0.5209
 IR Inten    --     5.9797                 2.4902                10.9183
 Raman Activ --     1.5989                 3.8391                 0.9288

                    34                     35                     36
                     A                      A                      A
 Frequencies --   520.3647               533.2104               566.0203
 Red. masses --     4.3986                 3.1202                 3.5721
 Frc consts  --     0.7017                 0.5227                 0.6743
 IR Inten    --    11.5724                 6.1526                32.8081
 Raman Activ --     1.4900                 4.1402                 1.5102

                    37                     38                     39
                     A                      A                      A
 Frequencies --   582.5914               599.9568               626.7568
 Red. masses --     3.6453                 4.3231                 4.9848
 Frc consts  --     0.7290                 0.9168                 1.1537
 IR Inten    --    15.7435                12.6256                26.9923
 Raman Activ --     0.3379                 1.5002                 0.4166

                    40                     41                     42
                     A                      A                      A
 Frequencies --   641.4027               677.4296               687.7417
 Red. masses --     4.0291                 1.0949                 1.0840
 Frc consts  --     0.9766                 0.2961                 0.3021
 IR Inten    --    22.3661                91.3192               114.2924
 Raman Activ --     1.4652                 1.6941                 1.4944

                    43                     44                     45
                     A                      A                      A
 Frequencies --   713.3780               721.5936               723.7274
 Red. masses --     1.0596                 1.2411                 2.9215
 Frc consts  --     0.3177                 0.3808                 0.9016
 IR Inten    --    93.8430               109.4049                 1.6509
 Raman Activ --     1.9452                 2.9905                 2.0034

                    46                     47                     48
                     A                      A                      A
 Frequencies --   837.9169               845.1699               851.5661
 Red. masses --     1.2215                 1.1794                 1.6964
 Frc consts  --     0.5053                 0.4964                 0.7248
 IR Inten    --   110.3693                61.3910                 8.7157
 Raman Activ --     1.4693                 2.3669                 1.0538

                    49                     50                     51
                     A                      A                      A
 Frequencies --   875.5777               918.1494               948.3394
 Red. masses --     1.3802                 5.7125                 5.1639
 Frc consts  --     0.6234                 2.8373                 2.7363
 IR Inten    --    42.8169               152.0706                71.2648
 Raman Activ --     0.5222                 3.0218                 0.6987

                    52                     53                     54
                     A                      A                      A
 Frequencies --   975.6814               979.1203               990.1612
 Red. masses --     5.4125                 5.1762                 5.1854
 Frc consts  --     3.0357                 2.9237                 2.9953
 IR Inten    --    61.3922                53.2568               268.0714
 Raman Activ --     1.7881                 1.0540                 0.2777

                    55                     56                     57
                     A                      A                      A
 Frequencies --   997.6310              1014.5127              1027.0878
 Red. masses --     6.0788                 5.7877                 6.1275
 Frc consts  --     3.5646                 3.5097                 3.8085
 IR Inten    --    86.5610                65.6697               148.0437
 Raman Activ --     2.0442                 4.9647                 2.3044

                    58                     59                     60
                     A                      A                      A
 Frequencies --  1039.3510              1050.4418              1062.1970
 Red. masses --     5.9815                 7.1036                 3.2775
 Frc consts  --     3.8070                 4.6182                 2.1787
 IR Inten    --   367.1372                96.1401                23.7683
 Raman Activ --     2.9030                 2.4133                 9.7488

                    61                     62                     63
                     A                      A                      A
 Frequencies --  1065.2553              1069.4209              1081.9218
 Red. masses --     5.6306                 4.0743                 5.1331
 Frc consts  --     3.7645                 2.7453                 3.5401
 IR Inten    --    63.4538                65.1113                36.1287
 Raman Activ --     2.6445                31.9337                 0.4980

                    64                     65                     66
                     A                      A                      A
 Frequencies --  1092.9848              1100.7896              1102.3006
 Red. masses --     2.1182                 2.6687                 2.4424
 Frc consts  --     1.4909                 1.9053                 1.7485
 IR Inten    --    70.6066                88.8965                17.8021
 Raman Activ --     1.7463                 3.0703                 7.1005

                    67                     68                     69
                     A                      A                      A
 Frequencies --  1109.8340              1115.6392              1131.2722
 Red. masses --     2.6586                 2.1797                 2.4909
 Frc consts  --     1.9294                 1.5985                 1.8782
 IR Inten    --    23.3548                 7.4381                33.0833
 Raman Activ --    10.9114                 3.6076                 5.4994

                    70                     71                     72
                     A                      A                      A
 Frequencies --  1144.8054              1150.7677              1153.9970
 Red. masses --     2.3832                 2.1988                 2.2635
 Frc consts  --     1.8403                 1.7155                 1.7760
 IR Inten    --     4.1503                 5.3637                 1.3361
 Raman Activ --     3.1209                 3.3079                 6.1479

                    73                     74                     75
                     A                      A                      A
 Frequencies --  1160.3078              1168.7807              1173.2566
 Red. masses --     2.0430                 1.8146                 1.6655
 Frc consts  --     1.6206                 1.4605                 1.3507
 IR Inten    --     0.9979                16.6485                 8.1342
 Raman Activ --     2.8571                 4.4765                 2.1607

                    76                     77                     78
                     A                      A                      A
 Frequencies --  1187.4032              1219.6699              1223.3221
 Red. masses --     1.4228                 1.2961                 1.2117
 Frc consts  --     1.1819                 1.1360                 1.0684
 IR Inten    --     8.8137                11.8883                14.1225
 Raman Activ --     2.5371                 2.5101                 0.5547

                    79                     80                     81
                     A                      A                      A
 Frequencies --  1227.3746              1238.4550              1248.8012
 Red. masses --     1.2994                 1.2065                 1.3247
 Frc consts  --     1.1534                 1.0903                 1.2172
 IR Inten    --     0.3646                 9.8944                20.7839
 Raman Activ --     1.4309                 2.0547                 0.6922

                    82                     83                     84
                     A                      A                      A
 Frequencies --  1261.4224              1269.2427              1278.9129
 Red. masses --     1.2376                 1.2645                 1.3468
 Frc consts  --     1.1603                 1.2002                 1.2978
 IR Inten    --     7.6321                10.8698                27.3820
 Raman Activ --     4.3529                 5.4244                 1.2669

                    85                     86                     87
                     A                      A                      A
 Frequencies --  1282.8863              1290.9076              1294.8357
 Red. masses --     1.2851                 1.2355                 1.3353
 Frc consts  --     1.2461                 1.2130                 1.3190
 IR Inten    --     7.7701                42.6837                47.2317
 Raman Activ --     0.8501                 4.5032                 6.0278

                    88                     89                     90
                     A                      A                      A
 Frequencies --  1299.4805              1314.1270              1318.7755
 Red. masses --     1.3134                 1.3248                 1.2030
 Frc consts  --     1.3067                 1.3479                 1.2327
 IR Inten    --     7.8151                16.9180                 8.1685
 Raman Activ --     6.1245                 2.9769                 4.2658

                    91                     92                     93
                     A                      A                      A
 Frequencies --  1328.3182              1337.1827              1347.5015
 Red. masses --     1.3111                 1.2250                 1.1959
 Frc consts  --     1.3630                 1.2906                 1.2794
 IR Inten    --    24.6672                52.8307                27.1112
 Raman Activ --     5.9240                 3.7074                 1.5925

                    94                     95                     96
                     A                      A                      A
 Frequencies --  1353.4239              1357.9221              1370.8488
 Red. masses --     1.2616                 1.6042                 1.4412
 Frc consts  --     1.3616                 1.7429                 1.5957
 IR Inten    --    54.1443                 4.8900                 7.9567
 Raman Activ --     2.3370                 8.0446                 4.8884

                    97                     98                     99
                     A                      A                      A
 Frequencies --  1378.9731              1388.9315              1402.1839
 Red. masses --     1.5777                 1.4825                 1.2950
 Frc consts  --     1.7676                 1.6850                 1.5001
 IR Inten    --     8.9025                 2.2588                18.6268
 Raman Activ --     5.0156                 6.1492                 5.6879

                   100                    101                    102
                     A                      A                      A
 Frequencies --  1414.5458              1417.5715              1444.9735
 Red. masses --     1.4718                 1.5097                 1.4198
 Frc consts  --     1.7351                 1.7874                 1.7466
 IR Inten    --    30.1438                21.8329                32.7201
 Raman Activ --     1.9653                 1.7696                 0.6674

                   103                    104                    105
                     A                      A                      A
 Frequencies --  1451.5932              1471.5866              1471.9401
 Red. masses --     1.3793                 1.0762                 1.0898
 Frc consts  --     1.7124                 1.3732                 1.3912
 IR Inten    --    17.1956                 5.1232                 3.4666
 Raman Activ --     2.2335                 4.7842                 3.1868

                   106                    107                    108
                     A                      A                      A
 Frequencies --  1491.1507              1525.5270              3237.6594
 Red. masses --     1.2368                 1.2333                 1.0692
 Frc consts  --     1.6203                 1.6911                 6.6032
 IR Inten    --    35.3558                56.9547               673.6469
 Raman Activ --     1.2504                 3.6389               163.6543

                   109                    110                    111
                     A                      A                      A
 Frequencies --  3254.6399              3261.6153              3263.8237
 Red. masses --     1.0590                 1.0795                 1.0596
 Frc consts  --     6.6091                 6.7661                 6.6501
 IR Inten    --    20.0996                27.5357                16.8495
 Raman Activ --    73.4469                81.2456               246.7191

                   112                    113                    114
                     A                      A                      A
 Frequencies --  3267.9287              3272.3777              3279.3464
 Red. masses --     1.0792                 1.0792                 1.0816
 Frc consts  --     6.7905                 6.8090                 6.8534
 IR Inten    --   227.3799               241.0408                76.9161
 Raman Activ --    36.0239                28.4313                16.1378

                   115                    116                    117
                     A                      A                      A
 Frequencies --  3280.8074              3282.4719              3286.2081
 Red. masses --     1.0830                 1.0844                 1.0787
 Frc consts  --     6.8679                 6.8843                 6.8635
 IR Inten    --   130.4388                22.1146               298.3848
 Raman Activ --    36.8179               165.1644                84.2683

                   118                    119                    120
                     A                      A                      A
 Frequencies --  3290.8215              3295.8199              3302.7298
 Red. masses --     1.0844                 1.0856                 1.0872
 Frc consts  --     6.9190                 6.9480                 6.9873
 IR Inten    --    83.0535                54.6059                 0.4389
 Raman Activ --    76.2271                35.5538                 4.4632

                   121                    122                    123
                     A                      A                      A
 Frequencies --  3306.5041              3312.6826              3321.0127
 Red. masses --     1.0868                 1.1052                 1.1058
 Frc consts  --     7.0008                 7.1457                 7.1855
 IR Inten    --   102.0572                64.5749                52.1982
 Raman Activ --    26.5847                37.4476                32.8470

                   124                    125                    126
                     A                      A                      A
 Frequencies --  3364.4563              3365.1106              3366.9812
 Red. masses --     1.0660                 1.0660                 1.0688
 Frc consts  --     7.1096                 7.1121                 7.1386
 IR Inten    --    58.7553                36.2699                62.0142
 Raman Activ --    97.0364               145.2708               160.1303

                   127                    128                    129
                     A                      A                      A
 Frequencies --  3375.7906              3888.1469              3891.4003
 Red. masses --     1.0684                 1.0678                 1.0674
 Frc consts  --     7.1734                 9.5109                 9.5237
 IR Inten    --    43.0498                85.5462                73.7294
 Raman Activ --   167.2391                76.2997               115.7685

 - Thermochemistry -
 -------------------
 Temperature   298.150 Kelvin.  Pressure   1.00000 Atm.
 Atom     1 has atomic number  8 and mass  15.99491

 Molecular mass:   342.11621 amu.
 Principal axes and moments of inertia in atomic units:
                           1         2         3
     Eigenvalues --  4379.75861********************
           X            0.99997  -0.00733   0.00017
           Y            0.00733   0.99997  -0.00262
           Z           -0.00015   0.00262   1.00000
 This molecule is an asymmetric top.
 Rotational symmetry number  1.
 Warning -- assumption of classical behavior for rotation
           may cause significant error
 Rotational temperatures (Kelvin)      0.01978     0.00711     0.00537
 Rotational constants (GHZ):           0.41206     0.14820     0.11180
    6 imaginary frequencies ignored.
 Zero-point vibrational energy     973743.5 (Joules/Mol)
                                  232.73028 (Kcal/Mol)
 Warning -- explicit consideration of  32 degrees of freedom as
           vibrations may cause significant error
 Vibrational temperatures:     17.23    63.45    92.45   135.47   142.97
          (Kelvin)            166.41   217.63   254.63   271.46   308.84
                              339.96   384.06   410.96   433.92   438.49
                              449.11   462.94   477.07   491.18   522.43
                              544.75   579.75   614.98   628.93   650.88
                              681.12   708.56   748.69   767.17   814.38
                              838.22   863.20   901.76   922.83   974.67
                              989.51  1026.39  1038.21  1041.28  1205.57
                             1216.01  1225.21  1259.76  1321.01  1364.45
                             1403.79  1408.73  1424.62  1435.37  1459.66
                             1477.75  1495.39  1511.35  1528.26  1532.66
                             1538.66  1556.64  1572.56  1583.79  1585.96
                             1596.80  1605.15  1627.65  1647.12  1655.70
                             1660.34  1669.42  1681.61  1688.05  1708.41
                             1754.83  1760.09  1765.92  1781.86  1796.74
                             1814.90  1826.15  1840.07  1845.78  1857.33
                             1862.98  1869.66  1890.73  1897.42  1911.15
                             1923.91  1938.75  1947.27  1953.74  1972.34
                             1984.03  1998.36  2017.43  2035.21  2039.57
                             2078.99  2088.52  2117.28  2117.79  2145.43
                             2194.89  4658.26  4682.69  4692.73  4695.91
                             4701.81  4708.22  4718.24  4720.34  4722.74
                             4728.11  4734.75  4741.94  4751.89  4757.32
                             4766.21  4778.19  4840.70  4841.64  4844.33
                             4857.00  5594.17  5598.85

 Zero-point correction=                           0.370879 (Hartree/Particle)
 Thermal correction to Energy=                    0.389991
 Thermal correction to Enthalpy=                  0.390935
 Thermal correction to Gibbs Free Energy=         0.322917
 Sum of electronic and zero-point Energies=          -1297.612215
 Sum of electronic and thermal Energies=             -1297.593104
 Sum of electronic and thermal Enthalpies=           -1297.592159
 Sum of electronic and thermal Free Energies=        -1297.660177

                     E (Thermal)             CV                S
                      KCal/Mol        Cal/Mol-Kelvin    Cal/Mol-Kelvin
 Total                  244.723             77.787            143.156
 Electronic               0.000              0.000              0.000
 Translational            0.889              2.981             43.384
 Rotational               0.889              2.981             35.108
 Vibrational            242.945             71.825             64.663
 Vibration     1          0.593              1.987              7.652
 Vibration     2          0.595              1.980              5.066
 Vibration     3          0.597              1.971              4.322
 Vibration     4          0.603              1.953              3.572
 Vibration     5          0.604              1.950              3.467
 Vibration     6          0.608              1.936              3.172
 Vibration     7          0.619              1.901              2.656
 Vibration     8          0.628              1.871              2.360
 Vibration     9          0.633              1.855              2.241
 Vibration    10          0.645              1.819              2.004
 Vibration    11          0.655              1.785              1.831
 Vibration    12          0.672              1.734              1.616
 Vibration    13          0.683              1.700              1.500
 Vibration    14          0.694              1.671              1.408
 Vibration    15          0.696              1.665              1.391
 Vibration    16          0.700              1.651              1.351
 Vibration    17          0.707              1.632              1.301
 Vibration    18          0.714              1.612              1.252
 Vibration    19          0.721              1.593              1.206
 Vibration    20          0.737              1.548              1.109
 Vibration    21          0.749              1.516              1.045
 Vibration    22          0.768              1.464              0.952
 Vibration    23          0.789              1.411              0.867
 Vibration    24          0.797              1.389              0.836
 Vibration    25          0.811              1.356              0.789
 Vibration    26          0.830              1.309              0.728
 Vibration    27          0.848              1.267              0.677
 Vibration    28          0.875              1.205              0.609
 Vibration    29          0.888              1.177              0.580
 Vibration    30          0.922              1.105              0.512
 Vibration    31          0.939              1.069              0.481
 Vibration    32          0.958              1.032              0.450

 Normal termination of Gaussian 09 at Thu Mar 31 02:56:35 2016.
