 Gaussian 09, Revision B.01,
 Gaussian 09:  EM64L-G09RevB.01 12-Aug-2010

 ------------------------------------------------
 # freq=raman b3lyp/6-31+g(d,p) geom=connectivity
 ------------------------------------------------

 ------------
 450 8000.com
 ------------
 Symbolic Z-matrix:
 Charge =  0 Multiplicity = 1

                         Standard orientation:
 ---------------------------------------------------------------------
 Center     Atomic      Atomic             Coordinates (Angstroms)
 Number     Number       Type             X           Y           Z
 ---------------------------------------------------------------------
      1          8           0        4.951323    0.358939    0.922179
      2          6           0        3.889380    0.126041   -0.013881
      3          6           0        3.347281   -1.280451    0.185142
      4          8           0        4.115051   -2.345286   -0.394764
      5          1           0        5.076177   -2.117997   -0.243597
      6          6           0        1.867344   -1.578783    0.008004
      7          8           0        1.365912   -2.594482    0.889169
      8          1           0        2.027453   -3.304014    1.128985
      9          6           0        3.331757    2.488105   -0.270157
     10          8           0        2.415677    3.583948   -0.407991
     11          1           0        2.924270    4.425860   -0.584903
     12          6           0        2.765633    1.138047    0.138292
     13          8           0        1.609194    0.858954   -0.665064
     14          6           0        1.012058   -0.329237   -0.127728
     15          8           0       -0.213303   -0.500006   -0.852932
     16          6           0       -1.439450   -0.183373   -0.178544
     17          6           0       -1.967793    1.238369   -0.274448
     18          8           0       -1.020028    2.157838    0.286632
     19          1           0       -0.127942    1.917510   -0.098803
     20          6           0       -3.270301    1.334401    0.503346
     21          8           0       -3.541379    2.733177    0.674960
     22          1           0       -2.919905    3.206892    1.298037
     23          6           0       -2.169754   -2.584610   -0.631289
     24          8           0       -1.945470   -3.293556    0.595938
     25          1           0       -0.985319   -3.568770    0.635088
     26          6           0       -2.497990   -1.106661   -0.761698
     27          8           0       -3.803833   -0.975215   -0.182007
     28          6           0       -4.229984    0.394470   -0.207762
     29          8           0       -5.479221    0.342620    0.497899
     30          1           0       -6.130677   -0.115662   -0.037996
     31          1           0       -4.387112    0.715506   -1.216298
     32          1           0       -3.095430    0.927035    1.477191
     33          1           0       -2.143891    1.486738   -1.300217
     34          1           0       -1.319662   -0.423139    0.857343
     35          1           0       -2.581198   -0.882456   -1.804631
     36          1           0       -1.290423   -2.739702   -1.220885
     37          1           0       -2.965047   -3.103137   -1.124785
     38          1           0        5.780098    0.049496    0.549382
     39          1           0        3.830549    2.361242   -1.208246
     40          1           0        4.065102    2.766830    0.457454
     41          1           0        2.472486    1.180002    1.166497
     42          1           0        4.285310    0.202463   -1.004992
     43          1           0        3.489528   -1.427808    1.235357
     44          1           0        1.810853   -2.032017   -0.959616
     45          1           0        0.724306   -0.078228    0.871818
 ---------------------------------------------------------------------

 SCF Done:  E(RB3LYP) =  -1297.91237216     A.U. after   14 cycles

 The electronic state is 1-A.
 Alpha  occ. eigenvalues --  -19.21084 -19.20854 -19.20178 -19.19557 -19.18906
 Alpha  occ. eigenvalues --  -19.17510 -19.17232 -19.15709 -19.15432 -19.15117
 Alpha  occ. eigenvalues --  -19.14996 -10.32193 -10.29583 -10.28575 -10.27851
 Alpha  occ. eigenvalues --  -10.27651 -10.27232 -10.25457 -10.24923 -10.24494
 Alpha  occ. eigenvalues --  -10.24384 -10.23737 -10.22369  -1.10822  -1.08320
 Alpha  occ. eigenvalues --   -1.07461  -1.06348  -1.04927  -1.04445  -1.03044
 Alpha  occ. eigenvalues --   -1.02490  -1.00940  -1.00088  -0.99563  -0.83319
 Alpha  occ. eigenvalues --   -0.82228  -0.79471  -0.77943  -0.72986  -0.69994
 Alpha  occ. eigenvalues --   -0.68329  -0.65499  -0.63752  -0.62547  -0.61083
 Alpha  occ. eigenvalues --   -0.60262  -0.58245  -0.57443  -0.55518  -0.54568
 Alpha  occ. eigenvalues --   -0.53410  -0.53285  -0.53058  -0.52732  -0.51414
 Alpha  occ. eigenvalues --   -0.50364  -0.50062  -0.49293  -0.48428  -0.48114
 Alpha  occ. eigenvalues --   -0.46383  -0.45304  -0.44853  -0.44014  -0.43534
 Alpha  occ. eigenvalues --   -0.42818  -0.42073  -0.41319  -0.40452  -0.39850
 Alpha  occ. eigenvalues --   -0.39379  -0.38354  -0.37887  -0.36709  -0.36459
 Alpha  occ. eigenvalues --   -0.35380  -0.35221  -0.33878  -0.33505  -0.32631
 Alpha  occ. eigenvalues --   -0.32448  -0.31806  -0.31287  -0.30992  -0.29787
 Alpha  occ. eigenvalues --   -0.29471  -0.29190  -0.28562  -0.27623  -0.26571
 Alpha  occ. eigenvalues --   -0.26130
 Alpha virt. eigenvalues --   -0.04902  -0.02130  -0.01487  -0.00037   0.00606
 Alpha virt. eigenvalues --    0.01018   0.01204   0.02182   0.02399   0.03190
 Alpha virt. eigenvalues --    0.03835   0.04170   0.04779   0.05182   0.05323

 Mulliken atomic charges:
              1
     1  O   -0.514120
     2  C   -0.174590
     3  C    0.055111
     4  O   -0.500967
     5  H    0.335687
     6  C    0.005907
     7  O   -0.584115
     8  H    0.388748
     9  C   -0.241921
    10  O   -0.544041
    11  H    0.359862
    12  C    0.327416
    13  O   -0.330520
    14  C    0.416749
    15  O   -0.358602
    16  C   -0.171522
    17  C    0.094571
    18  O   -0.550342
    19  H    0.402806
    20  C   -0.181077
    21  O   -0.489286
    22  H    0.378219
    23  C   -0.275836
    24  O   -0.491927
    25  H    0.362928
    26  C   -0.028544
    27  O   -0.317242
    28  C    0.461971
    29  O   -0.494580
    30  H    0.347421
    31  H    0.118753
    32  H    0.146934
    33  H    0.137892
    34  H    0.147003
    35  H    0.130801
    36  H    0.127271
    37  H    0.136645
    38  H    0.355952
    39  H    0.120727
    40  H    0.155389
    41  H    0.148036
    42  H    0.146973
    43  H    0.163915
    44  H    0.160798
    45  H    0.114748
 Sum of Mulliken atomic charges =   0.00000

 Dipole moment (field-independent basis, Debye):
    X=              9.9721    Y=             -0.6074    Z=             -2.1593  Tot=             10.2212
 Quadrupole moment (field-independent basis, Debye-Ang):
   XX=           -113.5798   YY=           -141.9215   ZZ=           -140.4829
   XY=              5.2152   XZ=             11.3472   YZ=              0.6325

  Exact polarizability: 220.811  -2.522 193.495   1.461   0.912 144.565
 Approx polarizability: 261.230  -1.842 250.072   1.380  -0.184 232.863

 ******    8 imaginary frequencies (negative Signs) ******

                     1                      2                      3
                     A                      A                      A
 Frequencies --  -298.1652              -272.9550              -264.6645
 Red. masses --     1.1533                 1.7600                 1.0782
 Frc consts  --     0.0604                 0.0773                 0.0445
 IR Inten    --   108.4705                 4.5246               131.8160
 Raman Activ --     1.0464                 0.1546                 1.8322

                     4                      5                      6
                     A                      A                      A
 Frequencies --  -250.5538               -93.8783               -69.6979
 Red. masses --     1.5894                 6.0937                 6.3160
 Frc consts  --     0.0588                 0.0316                 0.0181
 IR Inten    --     2.6666                 0.4009                 1.5945
 Raman Activ --     0.0423                 0.0237                 0.0369

                     7                      8                      9
                     A                      A                      A
 Frequencies --   -48.3232               -43.0430                31.0175
 Red. masses --     6.3437                 6.5439                 7.2306
 Frc consts  --     0.0087                 0.0071                 0.0041
 IR Inten    --     0.2157                 1.3191                 0.3667
 Raman Activ --     0.0906                 0.0377                 0.1445

                    10                     11                     12
                     A                      A                      A
 Frequencies --    66.6408               101.5777               109.5818
 Red. masses --     6.7410                 6.5858                 6.8702
 Frc consts  --     0.0176                 0.0400                 0.0486
 IR Inten    --     2.8151                 0.6977                 1.2744
 Raman Activ --     0.1758                 0.0929                 0.1451

                    13                     14                     15
                     A                      A                      A
 Frequencies --   115.0817               147.3963               178.1117
 Red. masses --     5.7980                 6.4887                 5.9551
 Frc consts  --     0.0452                 0.0831                 0.1113
 IR Inten    --     3.3904                 0.9725                 0.6921
 Raman Activ --     0.3960                 0.6553                 0.1839

                    16                     17                     18
                     A                      A                      A
 Frequencies --   192.2886               227.9679               234.2822
 Red. masses --     6.2156                 6.1091                 5.4742
 Frc consts  --     0.1354                 0.1871                 0.1770
 IR Inten    --     6.6692                 0.6566                 2.9223
 Raman Activ --     0.7165                 1.0994                 0.2383

                    19                     20                     21
                     A                      A                      A
 Frequencies --   240.5819               266.3071               283.3538
 Red. masses --     6.6024                 4.8965                 6.3876
 Frc consts  --     0.2252                 0.2046                 0.3022
 IR Inten    --     3.2358                11.9592                 1.3836
 Raman Activ --     1.8612                 0.1301                 0.5092

                    22                     23                     24
                     A                      A                      A
 Frequencies --   285.7820               322.3428               338.5899
 Red. masses --     6.1983                 5.4077                 5.7783
 Frc consts  --     0.2983                 0.3311                 0.3903
 IR Inten    --     7.1982                 4.9422                11.6953
 Raman Activ --     1.3918                 1.0568                 0.6303

                    25                     26                     27
                     A                      A                      A
 Frequencies --   348.3720               357.6607               386.1758
 Red. masses --     5.7562                 6.3711                 4.3059
 Frc consts  --     0.4116                 0.4802                 0.3783
 IR Inten    --     4.0230                 0.7220                 4.2444
 Raman Activ --     6.2022                 0.4613                 1.8821

                    28                     29                     30
                     A                      A                      A
 Frequencies --   409.2269               428.1625               444.6154
 Red. masses --     6.1419                 6.8381                 5.1395
 Frc consts  --     0.6060                 0.7386                 0.5986
 IR Inten    --    21.0368                 1.1764                 3.3249
 Raman Activ --     2.3992                 2.6532                 1.9858

                    31                     32                     33
                     A                      A                      A
 Frequencies --   466.4306               475.1870               507.8753
 Red. masses --     5.1110                 5.0181                 4.0174
 Frc consts  --     0.6551                 0.6676                 0.6105
 IR Inten    --    10.1302                 3.4116                 2.8925
 Raman Activ --     1.8530                 6.0611                 1.7345

                    34                     35                     36
                     A                      A                      A
 Frequencies --   523.2508               540.8610               557.7094
 Red. masses --     4.3539                 3.0444                 3.1189
 Frc consts  --     0.7023                 0.5247                 0.5716
 IR Inten    --    26.9712                46.2841                68.2219
 Raman Activ --     3.1825                 3.4316                 1.9496

                    37                     38                     39
                     A                      A                      A
 Frequencies --   569.0166               584.0381               590.4958
 Red. masses --     3.0277                 2.5115                 1.2990
 Frc consts  --     0.5776                 0.5047                 0.2669
 IR Inten    --    78.2091                 8.1972                57.8782
 Raman Activ --     2.2427                 0.8651                 1.4278

                    40                     41                     42
                     A                      A                      A
 Frequencies --   606.1258               618.9477               656.6389
 Red. masses --     1.3233                 3.3375                 3.8942
 Frc consts  --     0.2864                 0.7533                 0.9893
 IR Inten    --    31.3570                26.2086                15.8454
 Raman Activ --     1.4657                 0.9463                 0.4290

                    43                     44                     45
                     A                      A                      A
 Frequencies --   658.9600               677.0670               684.3389
 Red. masses --     1.1038                 1.3894                 1.0971
 Frc consts  --     0.2824                 0.3753                 0.3027
 IR Inten    --   120.7529               135.1489               117.4925
 Raman Activ --     2.3979                 1.1466                 1.8669

                    46                     47                     48
                     A                      A                      A
 Frequencies --   698.7926               836.6446               848.9792
 Red. masses --     2.2258                 1.0723                 2.6151
 Frc consts  --     0.6404                 0.4422                 1.1106
 IR Inten    --    24.6610                78.8670                19.2953
 Raman Activ --     1.1174                 1.7153                 2.3254

                    49                     50                     51
                     A                      A                      A
 Frequencies --   852.8887               875.1512               957.5037
 Red. masses --     2.6046                 2.5311                 5.1272
 Frc consts  --     1.1163                 1.1421                 2.7696
 IR Inten    --     6.1777                16.2566                 5.6102
 Raman Activ --     4.0780                 1.7527                 1.4517

                    52                     53                     54
                     A                      A                      A
 Frequencies --   969.0526               974.7611               999.2385
 Red. masses --     5.8946                 5.8223                 5.2151
 Frc consts  --     3.2613                 3.2594                 3.0680
 IR Inten    --   236.3947                54.7733                90.1274
 Raman Activ --     2.1301                 3.7358                 2.1845

                    55                     56                     57
                     A                      A                      A
 Frequencies --  1010.0231              1023.6381              1028.3552
 Red. masses --     4.1155                 3.8145                 2.8786
 Frc consts  --     2.4736                 2.3550                 1.7936
 IR Inten    --   316.7313                 6.3941                19.0656
 Raman Activ --     1.1203                 2.2227                 2.2648

                    58                     59                     60
                     A                      A                      A
 Frequencies --  1035.6573              1043.8054              1058.1258
 Red. masses --     4.7796                 2.8292                 5.8355
 Frc consts  --     3.0205                 1.8162                 3.8495
 IR Inten    --   249.4565               230.7626               100.3181
 Raman Activ --     0.5279                 4.9359                 1.2725

                    61                     62                     63
                     A                      A                      A
 Frequencies --  1065.6429              1075.3770              1085.0080
 Red. masses --     4.4879                 4.1821                 2.5481
 Frc consts  --     3.0027                 2.8495                 1.7674
 IR Inten    --    58.7528                84.7230                35.7205
 Raman Activ --     2.8528                 4.3536                 7.5429

                    64                     65                     66
                     A                      A                      A
 Frequencies --  1087.6612              1097.5917              1108.9403
 Red. masses --     3.8138                 3.7378                 3.5331
 Frc consts  --     2.6582                 2.6531                 2.5599
 IR Inten    --    59.7935               122.1868                28.7503
 Raman Activ --     1.5179                13.7884                 2.0327

                    67                     68                     69
                     A                      A                      A
 Frequencies --  1117.7877              1144.5993              1153.5420
 Red. masses --     3.7979                 2.6039                 2.5870
 Frc consts  --     2.7958                 2.0099                 2.0282
 IR Inten    --     5.0568                33.3774                32.4961
 Raman Activ --    11.0402                 3.5910                 0.8382

                    70                     71                     72
                     A                      A                      A
 Frequencies --  1158.5422              1166.4724              1171.5022
 Red. masses --     1.9537                 3.1221                 2.5804
 Frc consts  --     1.5450                 2.5029                 2.0865
 IR Inten    --    12.8286                33.3994                62.3402
 Raman Activ --     1.1025                 2.3557                 5.2238

                    73                     74                     75
                     A                      A                      A
 Frequencies --  1177.3777              1183.3429              1202.1598
 Red. masses --     2.5719                 2.2191                 1.4586
 Frc consts  --     2.1006                 1.8308                 1.2420
 IR Inten    --     1.6189                10.1347                17.6048
 Raman Activ --     5.0822                 1.3623                 1.5338

                    76                     77                     78
                     A                      A                      A
 Frequencies --  1204.7197              1232.2671              1242.1126
 Red. masses --     1.4041                 1.2876                 1.3592
 Frc consts  --     1.2007                 1.1520                 1.2355
 IR Inten    --    16.6789                20.9056                15.4150
 Raman Activ --     2.5595                 2.4134                 2.0073

                    79                     80                     81
                     A                      A                      A
 Frequencies --  1245.9005              1262.3407              1276.9146
 Red. masses --     1.1574                 1.3873                 1.3186
 Frc consts  --     1.0586                 1.3025                 1.2668
 IR Inten    --    16.0501                32.4317                16.3725
 Raman Activ --     4.9900                 1.2934                 1.4860

                    82                     83                     84
                     A                      A                      A
 Frequencies --  1278.3831              1302.4802              1306.1801
 Red. masses --     1.1272                 1.1431                 1.1048
 Frc consts  --     1.0853                 1.1426                 1.1105
 IR Inten    --     3.7487                16.0751                 8.8465
 Raman Activ --     4.1273                 3.2177                 3.8069

                    85                     86                     87
                     A                      A                      A
 Frequencies --  1308.9289              1317.1658              1320.9423
 Red. masses --     1.2147                 1.1828                 1.4341
 Frc consts  --     1.2261                 1.2090                 1.4743
 IR Inten    --     0.1030                12.9122                 6.6722
 Raman Activ --     5.7869                 2.1178                 4.1707

                    88                     89                     90
                     A                      A                      A
 Frequencies --  1327.6358              1336.8363              1338.8176
 Red. masses --     1.4590                 1.1586                 1.2383
 Frc consts  --     1.5152                 1.2199                 1.3078
 IR Inten    --    12.9009                62.7026                27.7512
 Raman Activ --     1.3428                 2.9844                 3.1066

                    91                     92                     93
                     A                      A                      A
 Frequencies --  1341.9963              1356.6280              1359.2700
 Red. masses --     1.3023                 1.2347                 1.5315
 Frc consts  --     1.3818                 1.3388                 1.6671
 IR Inten    --     7.9738                44.2664                 9.3422
 Raman Activ --     8.6649                 5.1181                 3.5370

                    94                     95                     96
                     A                      A                      A
 Frequencies --  1369.3021              1373.0269              1386.9252
 Red. masses --     1.4599                 1.2550                 1.3985
 Frc consts  --     1.6128                 1.3940                 1.5849
 IR Inten    --    19.9891                14.1942                21.7188
 Raman Activ --     3.1214                 2.0199                 1.8283

                    97                     98                     99
                     A                      A                      A
 Frequencies --  1402.2104              1404.2347              1408.7925
 Red. masses --     1.3325                 1.3164                 1.2549
 Frc consts  --     1.5436                 1.5294                 1.4674
 IR Inten    --     2.4981                 1.0224                30.0437
 Raman Activ --     3.1869                 7.8439                 1.8805

                   100                    101                    102
                     A                      A                      A
 Frequencies --  1426.8853              1436.9736              1448.0833
 Red. masses --     1.6546                 1.4306                 1.3972
 Frc consts  --     1.9848                 1.7405                 1.7262
 IR Inten    --     7.7386                12.1020                12.9569
 Raman Activ --     7.5902                 6.2541                 3.6295

                   103                    104                    105
                     A                      A                      A
 Frequencies --  1450.8338              1455.7702              1457.6881
 Red. masses --     1.0942                 1.4164                 1.2350
 Frc consts  --     1.3570                 1.7686                 1.5461
 IR Inten    --    13.1162                26.0218                37.0060
 Raman Activ --     4.1087                 1.9088                 2.8344

                   106                    107                    108
                     A                      A                      A
 Frequencies --  1466.6979              1473.2216              3263.7434
 Red. masses --     1.3486                 1.0821                 1.0798
 Frc consts  --     1.7093                 1.3837                 6.7770
 IR Inten    --    48.6659                 7.0770                 9.4482
 Raman Activ --     1.4467                 5.3230                70.4239

                   109                    110                    111
                     A                      A                      A
 Frequencies --  3268.0195              3269.9049              3272.6097
 Red. masses --     1.0601                 1.0813                 1.0630
 Frc consts  --     6.6708                 6.8120                 6.7075
 IR Inten    --    35.7783                 1.8747                18.6246
 Raman Activ --   128.3431                19.2594                76.3402

                   112                    113                    114
                     A                      A                      A
 Frequencies --  3286.5310              3287.7224              3289.0629
 Red. masses --     1.0840                 1.0840                 1.0815
 Frc consts  --     6.8987                 6.9034                 6.8935
 IR Inten    --     6.2254                29.2796                 3.4844
 Raman Activ --     2.7869                11.6410                12.3092

                   115                    116                    117
                     A                      A                      A
 Frequencies --  3291.1222              3293.6127              3301.1759
 Red. masses --     1.0837                 1.0818                 1.0856
 Frc consts  --     6.9156                 6.9141                 6.9703
 IR Inten    --     3.4599                32.6970                15.3751
 Raman Activ --    93.9840               305.4547                14.8946

                   118                    119                    120
                     A                      A                      A
 Frequencies --  3302.7498              3314.1119              3321.9827
 Red. masses --     1.0870                 1.0862                 1.1036
 Frc consts  --     6.9862                 7.0290                 7.1758
 IR Inten    --    28.5011                91.9381                43.3864
 Raman Activ --     3.7240                 6.3291                71.2991

                   121                    122                    123
                     A                      A                      A
 Frequencies --  3326.5393              3351.9135              3392.8877
 Red. masses --     1.1042                 1.0677                 1.0696
 Frc consts  --     7.1993                 7.0675                 7.2543
 IR Inten    --    41.5239               256.1329                72.6186
 Raman Activ --    49.0772               155.9416               104.0109

                   124                    125                    126
                     A                      A                      A
 Frequencies --  3398.2150              3398.7848              3408.1603
 Red. masses --     1.0659                 1.0674                 1.0676
 Frc consts  --     7.2518                 7.2649                 7.3065
 IR Inten    --    12.8214                48.6823                86.1987
 Raman Activ --   120.9334               188.7098                76.3344

                   127                    128                    129
                     A                      A                      A
 Frequencies --  3408.6188              3911.9498              3916.8307
 Red. masses --     1.0677                 1.0676                 1.0669
 Frc consts  --     7.3092                 9.6256                 9.6432
 IR Inten    --    63.1926                53.0026                51.9512
 Raman Activ --   106.0507               106.3401               139.4595

 - Thermochemistry -
 -------------------
 Temperature   298.150 Kelvin.  Pressure   1.00000 Atm.
 Atom     1 has atomic number  8 and mass  15.99491

 Molecular mass:   342.11621 amu.
 Principal axes and moments of inertia in atomic units:
                           1         2         3
     Eigenvalues --  4631.84921********************
           X            0.99998   0.00594   0.00299
           Y           -0.00594   0.99998   0.00212
           Z           -0.00298  -0.00214   0.99999
 This molecule is an asymmetric top.
 Rotational symmetry number  1.
 Warning -- assumption of classical behavior for rotation
           may cause significant error
 Rotational temperatures (Kelvin)      0.01870     0.00732     0.00553
 Rotational constants (GHZ):           0.38964     0.15250     0.11513
    8 imaginary frequencies ignored.
 Zero-point vibrational energy     975175.7 (Joules/Mol)
                                  233.07257 (Kcal/Mol)
 Warning -- explicit consideration of  33 degrees of freedom as
           vibrations may cause significant error
 Vibrational temperatures:     44.63    95.88   146.15   157.66   165.58
          (Kelvin)            212.07   256.26   276.66   327.99   337.08
                              346.14   383.16   407.68   411.18   463.78
                              487.15   501.23   514.59   555.62   588.79
                              616.03   639.70   671.09   683.69   730.72
                              752.84   778.18   802.42   818.69   840.30
                              849.59   872.08   890.53   944.76   948.10
                              974.15   984.61  1005.41  1203.74  1221.49
                             1227.12  1259.15  1377.63  1394.25  1402.46
                             1437.68  1453.20  1472.79  1479.57  1490.08
                             1501.80  1522.41  1533.22  1547.23  1561.08
                             1564.90  1579.19  1595.52  1608.25  1646.82
                             1659.69  1666.88  1678.29  1685.53  1693.98
                             1702.56  1729.64  1733.32  1772.96  1787.12
                             1792.57  1816.22  1837.19  1839.31  1873.98
                             1879.30  1883.25  1895.11  1900.54  1910.17
                             1923.41  1926.26  1930.83  1951.88  1955.68
                             1970.12  1975.48  1995.47  2017.47  2020.38
                             2026.94  2052.97  2067.48  2083.47  2087.42
                             2094.53  2097.29  2110.25  2119.63  4695.79
                             4701.95  4704.66  4708.55  4728.58  4730.29
                             4732.22  4735.18  4738.77  4749.65  4751.91
                             4768.26  4779.59  4786.14  4822.65  4881.60
                             4889.27  4890.09  4903.58  4904.24  5628.42
                             5635.44

 Zero-point correction=                           0.371425 (Hartree/Particle)
 Thermal correction to Energy=                    0.389415
 Thermal correction to Enthalpy=                  0.390359
 Thermal correction to Gibbs Free Energy=         0.326121
 Sum of electronic and zero-point Energies=          -1297.540947
 Sum of electronic and thermal Energies=             -1297.522957
 Sum of electronic and thermal Enthalpies=           -1297.522013
 Sum of electronic and thermal Free Energies=        -1297.586251

                     E (Thermal)             CV                S
                      KCal/Mol        Cal/Mol-Kelvin    Cal/Mol-Kelvin
 Total                  244.362             74.774            135.201
 Electronic               0.000              0.000              0.000
 Translational            0.889              2.981             43.384
 Rotational               0.889              2.981             35.106
 Vibrational            242.584             68.812             56.710
 Vibration     1          0.594              1.984              5.763
 Vibration     2          0.598              1.970              4.250
 Vibration     3          0.604              1.948              3.424
 Vibration     4          0.606              1.942              3.276
 Vibration     5          0.608              1.937              3.181
 Vibration     6          0.617              1.906              2.706
 Vibration     7          0.629              1.869              2.348
 Vibration     8          0.634              1.851              2.206
 Vibration     9          0.651              1.798              1.895
 Vibration    10          0.654              1.788              1.846
 Vibration    11          0.658              1.778              1.799
 Vibration    12          0.672              1.735              1.620
 Vibration    13          0.682              1.705              1.513
 Vibration    14          0.684              1.700              1.499
 Vibration    15          0.707              1.631              1.298
 Vibration    16          0.719              1.598              1.219
 Vibration    17          0.726              1.579              1.174
 Vibration    18          0.733              1.560              1.132
 Vibration    19          0.755              1.500              1.015
 Vibration    20          0.774              1.450              0.929
 Vibration    21          0.790              1.409              0.865
 Vibration    22          0.804              1.373              0.812
 Vibration    23          0.824              1.325              0.748
 Vibration    24          0.832              1.305              0.723
 Vibration    25          0.863              1.233              0.639
 Vibration    26          0.878              1.199              0.602
 Vibration    27          0.896              1.160              0.563
 Vibration    28          0.913              1.123              0.528
 Vibration    29          0.925              1.098              0.506
 Vibration    30          0.941              1.066              0.478
 Vibration    31          0.948              1.052              0.466
 Vibration    32          0.965              1.019              0.439
 Vibration    33          0.979              0.992              0.418

 Normal termination of Gaussian 09 at Thu Jan 21 18:13:22 2016.
