 Gaussian 09, Revision B.01,
 Gaussian 09:  EM64L-G09RevB.01 12-Aug-2010

 ------------------------------------------------
 # freq=raman b3lyp/6-31+g(d,p) geom=connectivity
 ------------------------------------------------

 ------------
 310 9000.com
 ------------
 Symbolic Z-matrix:
 Charge =  0 Multiplicity = 1

                         Standard orientation:
 ---------------------------------------------------------------------
 Center     Atomic      Atomic             Coordinates (Angstroms)
 Number     Number       Type             X           Y           Z
 ---------------------------------------------------------------------
      1          8           0        5.078325    0.451707    0.232537
      2          6           0        3.777142    0.056712   -0.226341
      3          6           0        3.297107   -1.317343    0.210320
      4          8           0        4.206277   -2.302195   -0.302877
      5          1           0        5.126235   -1.953703   -0.128361
      6          6           0        1.859948   -1.598702   -0.197698
      7          8           0        1.312975   -2.804495    0.355413
      8          1           0        0.374248   -2.777484    0.011079
      9          6           0        2.996120    2.629573   -0.115900
     10          8           0        3.996392    3.432700    0.526722
     11          1           0        3.822477    4.390189    0.297103
     12          6           0        2.781027    1.146438    0.136979
     13          8           0        1.451865    0.799175   -0.276646
     14          6           0        0.956230   -0.450418    0.223474
     15          8           0       -0.278366   -0.639659   -0.483102
     16          6           0       -1.476674   -0.211780    0.180760
     17          6           0       -1.956803    1.148564   -0.298687
     18          8           0       -0.984681    2.169938   -0.033388
     19          1           0       -0.181001    1.633068   -0.289601
     20          6           0       -3.368392    1.539648    0.109285
     21          8           0       -4.029221    2.613511   -0.574706
     22          1           0       -4.896257    2.790533   -0.108723
     23          6           0       -2.319817   -2.561753    0.252359
     24          8           0       -1.159109   -3.271830   -0.202766
     25          1           0       -1.252012   -4.266813   -0.151797
     26          6           0       -2.567782   -1.161819   -0.286160
     27          8           0       -3.847281   -0.822819    0.269641
     28          6           0       -4.381545    0.438762   -0.157843
     29          8           0       -5.521513    0.520430    0.709381
     30          1           0        5.610886    0.729862   -0.516201
     31          1           0       -6.312088    0.669332    0.185530
     32          1           0       -4.673350    0.410410   -1.186894
     33          1           0       -3.367911    1.755079    1.157373
     34          1           0       -1.992121    1.068328   -1.365090
     35          1           0       -1.367568   -0.237113    1.244882
     36          1           0       -2.618027   -1.177477   -1.354865
     37          1           0       -3.176569   -3.156287    0.012768
     38          1           0       -2.257915   -2.491385    1.318247
     39          1           0        0.807182   -0.425858    1.282758
     40          1           0        1.826488   -1.676472   -1.264344
     41          1           0        3.344541   -1.354837    1.278611
     42          1           0        3.827430    0.032372   -1.294882
     43          1           0        2.743136    1.087481    1.204681
     44          1           0        2.059193    3.103521    0.090110
     45          1           0        3.168322    2.728272   -1.167330
 ---------------------------------------------------------------------

 SCF Done:  E(RB3LYP) =  -1297.92236193     A.U. after   13 cycles

 The electronic state is 1-A.
 Alpha  occ. eigenvalues --  -19.20050 -19.19442 -19.19393 -19.19150 -19.18259
 Alpha  occ. eigenvalues --  -19.18159 -19.17346 -19.17036 -19.16224 -19.15159
 Alpha  occ. eigenvalues --  -19.13848 -10.31471 -10.31045 -10.26584 -10.26397
 Alpha  occ. eigenvalues --  -10.26126 -10.25863 -10.25642 -10.25453 -10.25134
 Alpha  occ. eigenvalues --  -10.25059 -10.24729 -10.24629  -1.10727  -1.09426
 Alpha  occ. eigenvalues --   -1.05884  -1.05343  -1.04482  -1.03884  -1.02959
 Alpha  occ. eigenvalues --   -1.02646  -1.02308  -1.01730  -1.00313  -0.82798
 Alpha  occ. eigenvalues --   -0.80456  -0.79427  -0.78561  -0.72266  -0.70319
 Alpha  occ. eigenvalues --   -0.67872  -0.65186  -0.63407  -0.62927  -0.61607
 Alpha  occ. eigenvalues --   -0.60267  -0.57100  -0.56192  -0.55381  -0.55203
 Alpha  occ. eigenvalues --   -0.54274  -0.53652  -0.52952  -0.52144  -0.50849
 Alpha  occ. eigenvalues --   -0.50627  -0.50466  -0.50228  -0.48739  -0.46952
 Alpha  occ. eigenvalues --   -0.46336  -0.45245  -0.44893  -0.44193  -0.43749
 Alpha  occ. eigenvalues --   -0.42883  -0.42509  -0.41064  -0.40723  -0.39444
 Alpha  occ. eigenvalues --   -0.38717  -0.38373  -0.37820  -0.37183  -0.36001
 Alpha  occ. eigenvalues --   -0.35297  -0.34939  -0.34729  -0.34296  -0.33523
 Alpha  occ. eigenvalues --   -0.32915  -0.31845  -0.31284  -0.30595  -0.30272
 Alpha  occ. eigenvalues --   -0.29572  -0.28516  -0.28109  -0.27549  -0.26736
 Alpha  occ. eigenvalues --   -0.26657
 Alpha virt. eigenvalues --   -0.02138  -0.02017  -0.01701  -0.00399   0.00119
 Alpha virt. eigenvalues --    0.00881   0.01722   0.02235   0.02628   0.03417
 Alpha virt. eigenvalues --    0.03858   0.04205   0.04725   0.05239   0.05447

 Mulliken atomic charges:
              1
     1  O   -0.521114
     2  C   -0.270171
     3  C    0.209998
     4  O   -0.500828
     5  H    0.353429
     6  C   -0.129112
     7  O   -0.546028
     8  H    0.468395
     9  C   -0.035473
    10  O   -0.519786
    11  H    0.355273
    12  C    0.204933
    13  O   -0.385691
    14  C    0.150284
    15  O   -0.341838
    16  C   -0.045621
    17  C   -0.061991
    18  O   -0.504964
    19  H    0.402678
    20  C    0.249977
    21  O   -0.498856
    22  H    0.350750
    23  C   -0.022000
    24  O   -0.648098
    25  H    0.404016
    26  C   -0.073186
    27  O   -0.299552
    28  C    0.110923
    29  O   -0.548931
    30  H    0.369514
    31  H    0.360164
    32  H    0.142498
    33  H    0.154250
    34  H    0.135084
    35  H    0.139287
    36  H    0.144582
    37  H    0.138600
    38  H    0.148241
    39  H    0.136904
    40  H    0.148739
    41  H    0.137524
    42  H    0.133119
    43  H    0.127156
    44  H    0.151038
    45  H    0.125879
 Sum of Mulliken atomic charges =   0.00000

 Dipole moment (field-independent basis, Debye):
    X=             -3.0223    Y=              0.2543    Z=             -2.1193  Tot=              3.7001
 Quadrupole moment (field-independent basis, Debye-Ang):
   XX=           -117.8586   YY=           -138.7809   ZZ=           -140.5652
   XY=             14.2157   XZ=             -4.0919   YZ=             -1.0861

  Exact polarizability: 229.753  -1.644 192.813  -1.187  -0.594 141.194
 Approx polarizability: 266.174  -1.083 248.030  -1.126  -0.130 230.656

 ******    8 imaginary frequencies (negative Signs) ******

                     1                      2                      3
                     A                      A                      A
 Frequencies --  -348.9758              -262.7252              -243.3705
 Red. masses --     1.6543                 1.1942                 1.8610
 Frc consts  --     0.1187                 0.0486                 0.0649
 IR Inten    --     7.3472               117.5678                 4.2047
 Raman Activ --     0.1528                 1.0910                 0.0456

                     4                      5                      6
                     A                      A                      A
 Frequencies --  -241.8497               -87.1610               -68.5346
 Red. masses --     1.1742                 6.6592                 6.2855
 Frc consts  --     0.0405                 0.0298                 0.0174
 IR Inten    --   117.5630                 0.7638                 0.1820
 Raman Activ --     1.0064                 0.0224                 0.0506

                     7                      8                      9
                     A                      A                      A
 Frequencies --   -55.2680               -22.7438                47.5308
 Red. masses --     6.5831                 6.3827                 6.6447
 Frc consts  --     0.0118                 0.0019                 0.0088
 IR Inten    --     0.7758                 1.1308                 1.9684
 Raman Activ --     0.0119                 0.0568                 0.0305

                    10                     11                     12
                     A                      A                      A
 Frequencies --    65.0078                76.8170                98.3081
 Red. masses --     6.2297                 6.5081                 5.7119
 Frc consts  --     0.0155                 0.0226                 0.0325
 IR Inten    --     2.3349                 0.1858                 0.4640
 Raman Activ --     0.1005                 0.2444                 0.1509

                    13                     14                     15
                     A                      A                      A
 Frequencies --   152.9604               165.3081               183.3498
 Red. masses --     6.4389                 5.4439                 7.8208
 Frc consts  --     0.0888                 0.0877                 0.1549
 IR Inten    --     3.9278                 2.0597                 0.4617
 Raman Activ --     0.3948                 0.2045                 0.6960

                    16                     17                     18
                     A                      A                      A
 Frequencies --   214.5271               225.0991               244.5710
 Red. masses --     7.1344                 4.4839                 5.8738
 Frc consts  --     0.1935                 0.1339                 0.2070
 IR Inten    --     7.4964                13.2634                 9.1463
 Raman Activ --     2.5122                 1.0523                 0.3707

                    19                     20                     21
                     A                      A                      A
 Frequencies --   262.5330               272.5058               300.4060
 Red. masses --     4.8480                 4.6714                 5.3424
 Frc consts  --     0.1969                 0.2044                 0.2841
 IR Inten    --     0.5601                 1.5855                 1.6061
 Raman Activ --     0.1232                 0.0962                 0.3405

                    22                     23                     24
                     A                      A                      A
 Frequencies --   311.1684               315.0779               324.0103
 Red. masses --     5.5546                 6.2210                 5.8915
 Frc consts  --     0.3169                 0.3639                 0.3644
 IR Inten    --     4.5148                 2.5949                 1.5717
 Raman Activ --     0.2020                 5.7458                 2.2879

                    25                     26                     27
                     A                      A                      A
 Frequencies --   355.4637               369.4183               377.2585
 Red. masses --     6.6102                 4.7952                 4.7070
 Frc consts  --     0.4921                 0.3856                 0.3947
 IR Inten    --    12.0983                 0.9625                 3.3876
 Raman Activ --     1.2778                 1.5193                 0.4866

                    28                     29                     30
                     A                      A                      A
 Frequencies --   397.2121               421.6054               431.4616
 Red. masses --     5.3719                 5.8201                 5.8915
 Frc consts  --     0.4994                 0.6095                 0.6462
 IR Inten    --    29.0266                 1.4600                 3.1685
 Raman Activ --     2.7767                 9.0829                 1.4913

                    31                     32                     33
                     A                      A                      A
 Frequencies --   446.1932               470.2016               486.5090
 Red. masses --     4.1485                 4.9274                 3.6238
 Frc consts  --     0.4866                 0.6419                 0.5054
 IR Inten    --     3.7676                 5.2839                21.3821
 Raman Activ --     1.6402                 1.1480                 0.6989

                    34                     35                     36
                     A                      A                      A
 Frequencies --   513.9924               522.4281               566.9741
 Red. masses --     3.4303                 3.8722                 3.5282
 Frc consts  --     0.5339                 0.6227                 0.6682
 IR Inten    --     3.6817                16.3510                 3.8884
 Raman Activ --     6.1157                 1.4759                 2.1684

                    37                     38                     39
                     A                      A                      A
 Frequencies --   584.9428               609.3803               628.9638
 Red. masses --     2.8207                 6.4422                 4.7834
 Frc consts  --     0.5686                 1.4095                 1.1149
 IR Inten    --    52.7015                 3.9157                44.3476
 Raman Activ --     0.4188                 0.2405                 1.6731

                    40                     41                     42
                     A                      A                      A
 Frequencies --   641.6675               666.0693               666.9969
 Red. masses --     5.4553                 1.1010                 1.0605
 Frc consts  --     1.3234                 0.2878                 0.2780
 IR Inten    --     5.7602                80.0533               161.7154
 Raman Activ --     0.3963                 2.5988                 1.2844

                    43                     44                     45
                     A                      A                      A
 Frequencies --   687.9282               710.7801               735.3384
 Red. masses --     4.8394                 1.0762                 1.0658
 Frc consts  --     1.3494                 0.3204                 0.3396
 IR Inten    --    14.3666               106.9333               102.8259
 Raman Activ --     1.3882                 1.7380                 1.7259

                    46                     47                     48
                     A                      A                      A
 Frequencies --   834.4145               834.9085               860.2124
 Red. masses --     1.4380                 1.3794                 1.5333
 Frc consts  --     0.5899                 0.5665                 0.6685
 IR Inten    --    39.4643                36.3887                 9.4249
 Raman Activ --     1.7740                 1.0122                 0.3802

                    49                     50                     51
                     A                      A                      A
 Frequencies --   910.7957               928.2951               960.3845
 Red. masses --     1.2144                 4.2902                 4.9060
 Frc consts  --     0.5936                 2.1782                 2.6660
 IR Inten    --    55.4879               102.7906                62.5481
 Raman Activ --     0.6539                 3.4692                 0.4719

                    52                     53                     54
                     A                      A                      A
 Frequencies --   985.1798               988.6805               992.4877
 Red. masses --     4.8477                 5.6623                 4.3602
 Frc consts  --     2.7721                 3.2610                 2.5305
 IR Inten    --    62.7455               106.6934                19.9047
 Raman Activ --     5.2256                 1.2101                 1.4794

                    55                     56                     57
                     A                      A                      A
 Frequencies --  1014.9597              1020.0241              1028.4577
 Red. masses --     7.0709                 4.7582                 5.0307
 Frc consts  --     4.2916                 2.9169                 3.1351
 IR Inten    --   213.3364               182.0141                55.0266
 Raman Activ --     1.7148                 1.7588                 3.0182

                    58                     59                     60
                     A                      A                      A
 Frequencies --  1043.8596              1059.7880              1067.5316
 Red. masses --     3.3582                 3.6108                 3.3833
 Frc consts  --     2.1560                 2.3894                 2.2717
 IR Inten    --   295.3945               211.4201                32.3210
 Raman Activ --     4.1822                 5.1823                 2.6757

                    61                     62                     63
                     A                      A                      A
 Frequencies --  1079.8619              1082.9011              1096.0782
 Red. masses --     4.6357                 3.2571                 2.6716
 Frc consts  --     3.1850                 2.2504                 1.8910
 IR Inten    --    92.5508                 4.2745                47.2974
 Raman Activ --     0.1899                16.0586                12.9398

                    64                     65                     66
                     A                      A                      A
 Frequencies --  1099.2787              1115.6231              1117.1028
 Red. masses --     7.2535                 2.1444                 3.3736
 Frc consts  --     5.1643                 1.5725                 2.4805
 IR Inten    --    13.5773               101.7758               128.0961
 Raman Activ --     1.4939                 6.1777                 1.7724

                    67                     68                     69
                     A                      A                      A
 Frequencies --  1123.7298              1132.8477              1134.4296
 Red. masses --     2.8491                 3.2716                 2.4064
 Frc consts  --     2.1197                 2.4737                 1.8246
 IR Inten    --     9.3974                71.5968                80.3535
 Raman Activ --     7.8324                 3.0363                 9.1959

                    70                     71                     72
                     A                      A                      A
 Frequencies --  1146.5336              1154.8258              1161.8070
 Red. masses --     2.0950                 3.0768                 1.9307
 Frc consts  --     1.6226                 2.4176                 1.5355
 IR Inten    --    20.2286                24.0193                 2.8204
 Raman Activ --     5.0991                10.3752                 1.6651

                    73                     74                     75
                     A                      A                      A
 Frequencies --  1173.4935              1184.3363              1206.8166
 Red. masses --     1.8643                 1.6356                 1.7826
 Frc consts  --     1.5126                 1.3517                 1.5297
 IR Inten    --     6.7516                12.5931                 4.2855
 Raman Activ --     0.9331                 2.1909                 1.9251

                    76                     77                     78
                     A                      A                      A
 Frequencies --  1208.0029              1221.1629              1228.3949
 Red. masses --     1.5905                 1.3881                 1.3110
 Frc consts  --     1.3675                 1.2196                 1.1655
 IR Inten    --    16.0510                13.1571                 8.6108
 Raman Activ --     4.7440                 0.9748                 2.0285

                    79                     80                     81
                     A                      A                      A
 Frequencies --  1230.3241              1238.0407              1260.5035
 Red. masses --     1.3656                 1.2100                 1.3127
 Frc consts  --     1.2179                 1.0927                 1.2288
 IR Inten    --     1.1733                10.9219                24.6631
 Raman Activ --     4.1552                 1.3833                 2.1889

                    82                     83                     84
                     A                      A                      A
 Frequencies --  1266.8723              1273.1542              1277.7669
 Red. masses --     1.2280                 1.4187                 1.2500
 Frc consts  --     1.1612                 1.3549                 1.2024
 IR Inten    --    12.3760                35.4985                31.5078
 Raman Activ --     3.8292                 2.3794                 2.5594

                    85                     86                     87
                     A                      A                      A
 Frequencies --  1287.3493              1301.0977              1317.6379
 Red. masses --     1.3214                 1.3101                 1.3186
 Frc consts  --     1.2903                 1.3066                 1.3489
 IR Inten    --     3.9149                26.3213                 7.9806
 Raman Activ --     3.2296                 2.7870                 6.9364

                    88                     89                     90
                     A                      A                      A
 Frequencies --  1319.8961              1328.8678              1334.2216
 Red. masses --     1.2421                 1.1798                 1.2527
 Frc consts  --     1.2750                 1.2275                 1.3139
 IR Inten    --    17.3247                 6.7036                16.8321
 Raman Activ --     3.6653                10.9115                 3.4964

                    91                     92                     93
                     A                      A                      A
 Frequencies --  1339.9858              1341.7123              1355.4245
 Red. masses --     1.3113                 1.2210                 1.3231
 Frc consts  --     1.3872                 1.2950                 1.4322
 IR Inten    --    23.1502                67.7967                26.7469
 Raman Activ --     4.2779                 3.1809                 5.4543

                    94                     95                     96
                     A                      A                      A
 Frequencies --  1359.9934              1366.3744              1374.2865
 Red. masses --     1.3518                 1.3133                 1.3779
 Frc consts  --     1.4732                 1.4446                 1.5332
 IR Inten    --    34.3103                36.1318                 5.5937
 Raman Activ --     8.2414                 9.5938                 3.5185

                    97                     98                     99
                     A                      A                      A
 Frequencies --  1385.9523              1400.2316              1407.2899
 Red. masses --     1.6359                 1.2885                 1.4968
 Frc consts  --     1.8514                 1.4885                 1.7465
 IR Inten    --     2.5607                 0.5898                 5.5468
 Raman Activ --     4.3592                 5.5938                 4.7345

                   100                    101                    102
                     A                      A                      A
 Frequencies --  1432.3653              1439.5138              1442.4258
 Red. masses --     1.4538                 1.4542                 1.4416
 Frc consts  --     1.7573                 1.7754                 1.7672
 IR Inten    --    45.7291                42.5535                 6.3719
 Raman Activ --     0.8812                 1.4559                 0.8275

                   103                    104                    105
                     A                      A                      A
 Frequencies --  1466.0378              1478.8731              1484.2614
 Red. masses --     1.3619                 1.1034                 1.0878
 Frc consts  --     1.7246                 1.4218                 1.4120
 IR Inten    --     7.1009                 2.3344                 3.6180
 Raman Activ --     2.2955                 3.7070                 4.8648

                   106                    107                    108
                     A                      A                      A
 Frequencies --  1528.0950              1561.8051              3250.5627
 Red. masses --     1.2544                 1.2237                 1.0676
 Frc consts  --     1.7258                 1.7586                 6.6464
 IR Inten    --    86.3046                70.0594               948.1555
 Raman Activ --     1.9557                 2.2824               129.2038

                   109                    110                    111
                     A                      A                      A
 Frequencies --  3255.1476              3265.4902              3270.3480
 Red. masses --     1.0715                 1.0686                 1.0814
 Frc consts  --     6.6892                 6.7137                 6.8144
 IR Inten    --     2.2298                56.0145                38.5324
 Raman Activ --   140.5146                12.4412                52.8153

                   112                    113                    114
                     A                      A                      A
 Frequencies --  3276.7340              3280.9957              3292.0648
 Red. masses --     1.0592                 1.0823                 1.0843
 Frc consts  --     6.7008                 6.8643                 6.9240
 IR Inten    --    21.3757                15.8514                23.8227
 Raman Activ --   206.6832                83.6996                31.7200

                   115                    116                    117
                     A                      A                      A
 Frequencies --  3300.4657              3302.2145              3303.5928
 Red. masses --     1.0850                 1.0852                 1.0855
 Frc consts  --     6.9637                 6.9723                 6.9802
 IR Inten    --     1.6247                 0.3653                32.1055
 Raman Activ --    31.4885               120.3619                44.5292

                   118                    119                    120
                     A                      A                      A
 Frequencies --  3311.2854              3314.5843              3315.4752
 Red. masses --     1.0876                 1.1026                 1.0883
 Frc consts  --     7.0263                 7.1372                 7.0481
 IR Inten    --    19.8745                35.8791                 1.2358
 Raman Activ --    32.3679                45.0916                20.9937

                   121                    122                    123
                     A                      A                      A
 Frequencies --  3317.9635              3333.2021              3335.1065
 Red. masses --     1.0860                 1.1030                 1.0699
 Frc consts  --     7.0441                 7.2202                 7.0113
 IR Inten    --   124.3418               109.0328               534.0838
 Raman Activ --    13.3818                61.7172               124.1237

                   124                    125                    126
                     A                      A                      A
 Frequencies --  3385.8735              3390.3955              3391.7098
 Red. masses --     1.0663                 1.0682                 1.0674
 Frc consts  --     7.2022                 7.2344                 7.2348
 IR Inten    --    44.1935                73.4253                53.5213
 Raman Activ --   120.4475               166.3815               149.4040

                   127                    128                    129
                     A                      A                      A
 Frequencies --  3397.5415              3917.8375              3920.5767
 Red. masses --     1.0658                 1.0679                 1.0676
 Frc consts  --     7.2487                 9.6574                 9.6681
 IR Inten    --    36.8265                80.1201                62.1327
 Raman Activ --   110.6306                82.7206               131.1124

 - Thermochemistry -
 -------------------
 Temperature   298.150 Kelvin.  Pressure   1.00000 Atm.
 Atom     1 has atomic number  8 and mass  15.99491

 Molecular mass:   342.11621 amu.
 Principal axes and moments of inertia in atomic units:
                           1         2         3
     Eigenvalues --  4449.60365********************
           X            0.99997   0.00722  -0.00053
           Y           -0.00723   0.99997  -0.00227
           Z            0.00052   0.00227   1.00000
 This molecule is an asymmetric top.
 Rotational symmetry number  1.
 Warning -- assumption of classical behavior for rotation
           may cause significant error
 Rotational temperatures (Kelvin)      0.01947     0.00697     0.00526
 Rotational constants (GHZ):           0.40560     0.14526     0.10950
    8 imaginary frequencies ignored.
 Zero-point vibrational energy     977807.8 (Joules/Mol)
                                  233.70167 (Kcal/Mol)
 Warning -- explicit consideration of  30 degrees of freedom as
           vibrations may cause significant error
 Vibrational temperatures:     68.39    93.53   110.52   141.44   220.08
          (Kelvin)            237.84   263.80   308.66   323.87   351.88
                              377.73   392.07   432.22   447.70   453.33
                              466.18   511.43   531.51   542.79   571.50
                              606.60   620.78   641.97   676.51   699.98
                              739.52   751.66   815.75   841.60   876.76
                              904.94   923.22   958.32   959.66   989.77
                             1022.65  1057.99  1200.53  1201.25  1237.65
                             1310.43  1335.61  1381.78  1417.45  1422.49
                             1427.97  1460.30  1467.59  1479.72  1501.88
                             1524.80  1535.94  1553.68  1558.05  1577.01
                             1581.61  1605.13  1607.26  1616.79  1629.91
                             1632.19  1649.60  1661.53  1671.58  1688.39
                             1703.99  1736.34  1738.04  1756.98  1767.38
                             1770.16  1781.26  1813.58  1822.74  1831.78
                             1838.42  1852.21  1871.99  1895.78  1899.03
                             1911.94  1919.64  1927.94  1930.42  1950.15
                             1956.72  1965.91  1977.29  1994.07  2014.62
                             2024.77  2060.85  2071.14  2075.33  2109.30
                             2127.77  2135.52  2198.59  2247.09  4676.83
                             4683.43  4698.31  4705.30  4714.48  4720.62
                             4736.54  4748.63  4751.14  4753.13  4764.20
                             4768.94  4770.22  4773.80  4795.73  4798.47
                             4871.51  4878.02  4879.91  4888.30  5636.89
                             5640.83

 Zero-point correction=                           0.372427 (Hartree/Particle)
 Thermal correction to Energy=                    0.390096
 Thermal correction to Enthalpy=                  0.391040
 Thermal correction to Gibbs Free Energy=         0.327641
 Sum of electronic and zero-point Energies=          -1297.549935
 Sum of electronic and thermal Energies=             -1297.532266
 Sum of electronic and thermal Enthalpies=           -1297.531322
 Sum of electronic and thermal Free Energies=        -1297.594721

                     E (Thermal)             CV                S
                      KCal/Mol        Cal/Mol-Kelvin    Cal/Mol-Kelvin
 Total                  244.789             73.807            133.435
 Electronic               0.000              0.000              0.000
 Translational            0.889              2.981             43.384
 Rotational               0.889              2.981             35.165
 Vibrational            243.011             67.846             54.886
 Vibration     1          0.595              1.979              4.918
 Vibration     2          0.597              1.971              4.299
 Vibration     3          0.599              1.965              3.971
 Vibration     4          0.604              1.950              3.488
 Vibration     5          0.619              1.899              2.635
 Vibration     6          0.624              1.885              2.488
 Vibration     7          0.631              1.862              2.294
 Vibration     8          0.644              1.819              2.005
 Vibration     9          0.650              1.803              1.918
 Vibration    10          0.660              1.772              1.769
 Vibration    11          0.670              1.741              1.645
 Vibration    12          0.676              1.724              1.580
 Vibration    13          0.693              1.673              1.415
 Vibration    14          0.700              1.652              1.356
 Vibration    15          0.702              1.645              1.336
 Vibration    16          0.709              1.627              1.290
 Vibration    17          0.731              1.564              1.142
 Vibration    18          0.742              1.535              1.082
 Vibration    19          0.748              1.519              1.050
 Vibration    20          0.764              1.476              0.973
 Vibration    21          0.784              1.423              0.887
 Vibration    22          0.793              1.402              0.854
 Vibration    23          0.805              1.369              0.807
 Vibration    24          0.827              1.316              0.737
 Vibration    25          0.843              1.280              0.693
 Vibration    26          0.869              1.219              0.624
 Vibration    27          0.877              1.200              0.604
 Vibration    28          0.923              1.103              0.510
 Vibration    29          0.942              1.064              0.476
 Vibration    30          0.968              1.012              0.434

 Normal termination of Gaussian 09 at Thu Jan 21 04:48:17 2016.
