 Gaussian 09, Revision B.01,
 Gaussian 09:  EM64L-G09RevB.01 12-Aug-2010

 ------------------------------------------------
 # freq=raman b3lyp/6-31+g(d,p) geom=connectivity
 ------------------------------------------------

 ------------
 290 7000.com
 ------------
 Symbolic Z-matrix:
 Charge =  0 Multiplicity = 1

                         Standard orientation:
 ---------------------------------------------------------------------
 Center     Atomic      Atomic             Coordinates (Angstroms)
 Number     Number       Type             X           Y           Z
 ---------------------------------------------------------------------
      1          8           0       -4.990130   -0.511743    0.342576
      2          6           0       -3.744684   -0.122808   -0.255167
      3          6           0       -3.348622    1.263162    0.226905
      4          8           0       -4.256953    2.333689   -0.071933
      5          1           0       -5.163424    1.976291    0.154198
      6          6           0       -1.915305    1.596519   -0.153308
      7          8           0       -1.455042    2.751135    0.563649
      8          1           0       -0.500140    2.925783    0.323314
      9          6           0       -2.944355   -2.625212   -0.150349
     10          8           0       -3.984683   -3.359906    0.509397
     11          1           0       -3.922962   -4.320440    0.238075
     12          6           0       -2.717074   -1.157323    0.173815
     13          8           0       -1.463868   -0.831144   -0.445432
     14          6           0       -0.970426    0.423312    0.046036
     15          8           0        0.286458    0.649872   -0.608588
     16          6           0        1.536099    0.252359   -0.026825
     17          6           0        2.030875   -1.129668   -0.423512
     18          8           0        1.074315   -2.193294   -0.305342
     19          1           0        0.175145   -1.772229   -0.426279
     20          6           0        3.351193   -1.533712    0.213044
     21          8           0        3.908668   -2.761234   -0.278481
     22          1           0        4.687505   -2.946606    0.320765
     23          6           0        2.342545    2.657564    0.104014
     24          8           0        1.159165    3.330019   -0.350427
     25          1           0        1.241750    4.289384   -0.079556
     26          6           0        2.634955    1.244124   -0.372804
     27          8           0        3.864797    0.874915    0.266160
     28          6           0        4.368888   -0.434358   -0.039406
     29          8           0        5.463217   -0.519679    0.885059
     30          1           0       -5.602000   -0.787904   -0.343683
     31          1           0       -3.837708   -0.123862   -1.321115
     32          1           0       -3.346341    1.193944    1.294661
     33          1           0       -2.593926   -1.072908    1.233348
     34          1           0       -2.025101   -3.136776    0.045038
     35          1           0       -3.131294   -2.690130   -1.201890
     36          1           0       -0.786543    0.320474    1.095088
     37          1           0       -1.908173    1.840809   -1.195023
     38          1           0        6.281531   -0.652187    0.400905
     39          1           0        4.725518   -0.473701   -1.047457
     40          1           0        3.204445   -1.626339    1.268878
     41          1           0        2.237020   -1.056724   -1.470929
     42          1           0        1.413746    0.259629    1.036132
     43          1           0        2.778491    1.253488   -1.433092
     44          1           0        3.178893    3.265209   -0.172008
     45          1           0        2.301478    2.630002    1.172870
 ---------------------------------------------------------------------

 SCF Done:  E(RB3LYP) =  -1297.95278463     A.U. after   13 cycles

 The electronic state is 1-A.
 Alpha  occ. eigenvalues --  -19.19752 -19.19610 -19.19164 -19.18867 -19.18782
 Alpha  occ. eigenvalues --  -19.17794 -19.17548 -19.17021 -19.16558 -19.15051
 Alpha  occ. eigenvalues --  -19.14822 -10.31469 -10.31139 -10.26793 -10.26618
 Alpha  occ. eigenvalues --  -10.26328 -10.25867 -10.25582 -10.25489 -10.24986
 Alpha  occ. eigenvalues --  -10.24884 -10.24844 -10.24762  -1.10178  -1.09342
 Alpha  occ. eigenvalues --   -1.05662  -1.05281  -1.04305  -1.03821  -1.02940
 Alpha  occ. eigenvalues --   -1.02653  -1.02412  -1.01020  -1.00527  -0.82627
 Alpha  occ. eigenvalues --   -0.80683  -0.79761  -0.78636  -0.72285  -0.70410
 Alpha  occ. eigenvalues --   -0.67843  -0.64986  -0.63301  -0.62852  -0.61490
 Alpha  occ. eigenvalues --   -0.60536  -0.56700  -0.55985  -0.55270  -0.54787
 Alpha  occ. eigenvalues --   -0.54127  -0.53650  -0.53105  -0.51556  -0.51263
 Alpha  occ. eigenvalues --   -0.50835  -0.50310  -0.50119  -0.49170  -0.46824
 Alpha  occ. eigenvalues --   -0.46162  -0.45339  -0.44856  -0.44041  -0.43479
 Alpha  occ. eigenvalues --   -0.42796  -0.42085  -0.41247  -0.40280  -0.39772
 Alpha  occ. eigenvalues --   -0.38918  -0.38012  -0.37744  -0.36350  -0.36096
 Alpha  occ. eigenvalues --   -0.35764  -0.35214  -0.34654  -0.34067  -0.33579
 Alpha  occ. eigenvalues --   -0.33017  -0.31751  -0.31309  -0.30742  -0.30093
 Alpha  occ. eigenvalues --   -0.29585  -0.28675  -0.28395  -0.27806  -0.27092
 Alpha  occ. eigenvalues --   -0.26794
 Alpha virt. eigenvalues --   -0.02056  -0.01975  -0.01780  -0.00288   0.00117
 Alpha virt. eigenvalues --    0.01037   0.01787   0.02074   0.02734   0.03464
 Alpha virt. eigenvalues --    0.03647   0.04248   0.04632   0.05234   0.05639

 Mulliken atomic charges:
              1
     1  O   -0.521112
     2  C   -0.007312
     3  C    0.058407
     4  O   -0.496825
     5  H    0.354191
     6  C   -0.057248
     7  O   -0.539991
     8  H    0.430791
     9  C    0.057677
    10  O   -0.528489
    11  H    0.354839
    12  C    0.046149
    13  O   -0.396221
    14  C    0.106038
    15  O   -0.323564
    16  C   -0.159733
    17  C    0.072057
    18  O   -0.526274
    19  H    0.408347
    20  C    0.104729
    21  O   -0.483046
    22  H    0.349092
    23  C   -0.027859
    24  O   -0.603562
    25  H    0.381884
    26  C   -0.056364
    27  O   -0.294231
    28  C    0.201085
    29  O   -0.549428
    30  H    0.361897
    31  H    0.137254
    32  H    0.138481
    33  H    0.136051
    34  H    0.147302
    35  H    0.129651
    36  H    0.120824
    37  H    0.148661
    38  H    0.360570
    39  H    0.134763
    40  H    0.150766
    41  H    0.126079
    42  H    0.125225
    43  H    0.141224
    44  H    0.139501
    45  H    0.147721
 Sum of Mulliken atomic charges =   0.00000

 Dipole moment (field-independent basis, Debye):
    X=              2.4258    Y=             -0.2324    Z=             -1.7066  Tot=              2.9750
 Quadrupole moment (field-independent basis, Debye-Ang):
   XX=           -115.3399   YY=           -137.0796   ZZ=           -142.2254
   XY=             16.2225   XZ=              6.1022   YZ=              0.7715

  Exact polarizability: 228.489  -2.088 194.775   1.171   0.619 142.092
 Approx polarizability: 264.827  -1.774 250.372   0.628   1.115 231.542

 ******    6 imaginary frequencies (negative Signs) ******

                     1                      2                      3
                     A                      A                      A
 Frequencies --  -311.1053              -273.7558              -271.6487
 Red. masses --     1.4743                 1.1761                 1.2829
 Frc consts  --     0.0841                 0.0519                 0.0558
 IR Inten    --    52.8778                96.1284                82.0590
 Raman Activ --     0.3437                 1.0941                 0.6365

                     4                      5                      6
                     A                      A                      A
 Frequencies --  -265.5766               -63.1078               -52.3464
 Red. masses --     1.7913                 6.0683                 6.6694
 Frc consts  --     0.0744                 0.0142                 0.0108
 IR Inten    --     3.4162                 0.8045                 0.5953
 Raman Activ --     0.0474                 0.0139                 0.0264

                     7                      8                      9
                     A                      A                      A
 Frequencies --    28.4286                42.1566                68.6681
 Red. masses --     6.5480                 6.5321                 6.3312
 Frc consts  --     0.0031                 0.0068                 0.0176
 IR Inten    --     0.1613                 0.2279                 2.1695
 Raman Activ --     0.0868                 0.0140                 0.2516

                    10                     11                     12
                     A                      A                      A
 Frequencies --    79.8644                89.1163               103.5201
 Red. masses --     6.9856                 6.2836                 6.0209
 Frc consts  --     0.0263                 0.0294                 0.0380
 IR Inten    --     2.9520                 1.0436                 2.4353
 Raman Activ --     0.0893                 0.0882                 0.1175

                    13                     14                     15
                     A                      A                      A
 Frequencies --   150.9096               159.8795               181.2684
 Red. masses --     6.3353                 5.8008                 8.0451
 Frc consts  --     0.0850                 0.0874                 0.1557
 IR Inten    --     4.7160                 2.3398                 0.1806
 Raman Activ --     0.3691                 0.3856                 0.5541

                    16                     17                     18
                     A                      A                      A
 Frequencies --   190.5759               226.7429               254.6354
 Red. masses --     6.7321                 6.2227                 4.5813
 Frc consts  --     0.1441                 0.1885                 0.1750
 IR Inten    --     0.0811                 0.9877                13.8368
 Raman Activ --     1.7294                 0.9478                 0.4190

                    19                     20                     21
                     A                      A                      A
 Frequencies --   264.6417               269.1820               298.3904
 Red. masses --     4.7037                 5.0067                 5.1859
 Frc consts  --     0.1941                 0.2137                 0.2720
 IR Inten    --     2.8805                 1.1058                 2.0263
 Raman Activ --     0.2856                 0.0994                 0.1578

                    22                     23                     24
                     A                      A                      A
 Frequencies --   300.6727               314.0794               325.1699
 Red. masses --     5.5726                 5.7170                 6.5118
 Frc consts  --     0.2968                 0.3323                 0.4057
 IR Inten    --    11.5263                 2.7965                 0.9351
 Raman Activ --     0.1724                 2.6198                 1.8233

                    25                     26                     27
                     A                      A                      A
 Frequencies --   337.9587               353.3955               368.1702
 Red. masses --     6.9769                 4.4127                 6.1379
 Frc consts  --     0.4695                 0.3247                 0.4902
 IR Inten    --     7.9971                 6.4198                 0.8761
 Raman Activ --     7.5462                 0.4720                 0.6869

                    28                     29                     30
                     A                      A                      A
 Frequencies --   398.9450               416.4091               425.8856
 Red. masses --     4.7455                 6.0360                 5.4820
 Frc consts  --     0.4450                 0.6166                 0.5858
 IR Inten    --    18.5455                 3.0613                 4.8005
 Raman Activ --     2.4863                 6.1728                 2.6306

                    31                     32                     33
                     A                      A                      A
 Frequencies --   434.5032               464.2728               481.2985
 Red. masses --     4.4962                 4.0961                 4.1313
 Frc consts  --     0.5001                 0.5202                 0.5639
 IR Inten    --     2.6286                 3.3704                10.5986
 Raman Activ --     1.5843                 3.4275                 0.4446

                    34                     35                     36
                     A                      A                      A
 Frequencies --   503.0643               513.6119               559.3202
 Red. masses --     4.0631                 3.3395                 3.5182
 Frc consts  --     0.6058                 0.5190                 0.6485
 IR Inten    --     4.9259                17.6467                11.7885
 Raman Activ --     4.1813                 2.7635                 1.3787

                    37                     38                     39
                     A                      A                      A
 Frequencies --   576.5935               593.2858               611.0865
 Red. masses --     2.6628                 6.7337                 4.4606
 Frc consts  --     0.5216                 1.3965                 0.9814
 IR Inten    --    44.0693                 5.3375                 9.6330
 Raman Activ --     0.2597                 0.5689                 0.7305

                    40                     41                     42
                     A                      A                      A
 Frequencies --   624.3394               681.5758               682.1782
 Red. masses --     5.8618                 3.4121                 1.2105
 Frc consts  --     1.3462                 0.9339                 0.3319
 IR Inten    --    38.7241                 8.2614               119.3361
 Raman Activ --     1.3210                 1.1616                 1.7256

                    43                     44                     45
                     A                      A                      A
 Frequencies --   728.6534               729.7194               750.2740
 Red. masses --     1.0917                 1.0725                 1.0845
 Frc consts  --     0.3415                 0.3365                 0.3597
 IR Inten    --    88.5376               109.1948               126.5130
 Raman Activ --     1.9360                 1.7682                 1.6804

                    46                     47                     48
                     A                      A                      A
 Frequencies --   784.1197               842.3817               848.7146
 Red. masses --     1.0642                 1.2424                 1.7014
 Frc consts  --     0.3855                 0.5194                 0.7221
 IR Inten    --    72.7221                49.7159                 2.9332
 Raman Activ --     1.0366                 0.4165                 0.7136

                    49                     50                     51
                     A                      A                      A
 Frequencies --   874.4631               932.0804               957.4243
 Red. masses --     1.4639                 5.5984                 5.2685
 Frc consts  --     0.6596                 2.8656                 2.8454
 IR Inten    --    37.5594                92.8196                56.0543
 Raman Activ --     0.5432                 2.7525                 0.8377

                    52                     53                     54
                     A                      A                      A
 Frequencies --   987.7479               991.3186               999.6855
 Red. masses --     5.2980                 5.5398                 5.3470
 Frc consts  --     3.0455                 3.2076                 3.1484
 IR Inten    --    97.5118                28.2236                97.2737
 Raman Activ --     2.7343                 3.0364                 1.2492

                    55                     56                     57
                     A                      A                      A
 Frequencies --  1009.9663              1020.1066              1027.9173
 Red. masses --     5.5508                 6.0190                 6.1874
 Frc consts  --     3.3359                 3.6903                 3.8519
 IR Inten    --   362.4354                22.5277                92.0429
 Raman Activ --     2.1502                 0.7054                 1.5985

                    58                     59                     60
                     A                      A                      A
 Frequencies --  1043.9854              1061.0859              1070.6387
 Red. masses --     3.7508                 2.9208                 4.1365
 Frc consts  --     2.4086                 1.9376                 2.7937
 IR Inten    --   344.8366               167.8443               102.6749
 Raman Activ --     4.1950                 9.5326                 1.6008

                    61                     62                     63
                     A                      A                      A
 Frequencies --  1081.3768              1087.4943              1091.8146
 Red. masses --     5.3294                 4.3063                 5.6759
 Frc consts  --     3.6718                 3.0006                 3.9864
 IR Inten    --     4.2309                86.7942                14.2521
 Raman Activ --     1.9453                 6.4972                 5.6827

                    64                     65                     66
                     A                      A                      A
 Frequencies --  1112.4667              1114.3229              1120.1401
 Red. masses --     3.0835                 2.8802                 2.7724
 Frc consts  --     2.2483                 2.1072                 2.0495
 IR Inten    --    71.2319               107.1382                58.7991
 Raman Activ --    10.3786                13.1333                 4.4924

                    67                     68                     69
                     A                      A                      A
 Frequencies --  1124.9961              1141.0638              1148.1431
 Red. masses --     2.3375                 2.8030                 2.9594
 Frc consts  --     1.7430                 2.1503                 2.2985
 IR Inten    --     9.4618                32.6858                36.7078
 Raman Activ --     3.3175                 1.5997                 3.5565

                    70                     71                     72
                     A                      A                      A
 Frequencies --  1155.7516              1160.6373              1162.7958
 Red. masses --     2.2243                 1.7036                 1.9385
 Frc consts  --     1.7505                 1.3521                 1.5443
 IR Inten    --    31.5138                 9.5227                10.9058
 Raman Activ --     6.0294                 2.8938                 4.5769

                    73                     74                     75
                     A                      A                      A
 Frequencies --  1166.0356              1172.9491              1182.7012
 Red. masses --     1.9010                 2.2792                 1.7288
 Frc consts  --     1.5228                 1.8476                 1.4248
 IR Inten    --    38.4567                 6.4227                11.6872
 Raman Activ --     3.9306                 1.4620                 1.9962

                    76                     77                     78
                     A                      A                      A
 Frequencies --  1201.6397              1217.1822              1238.2265
 Red. masses --     1.4109                 1.5303                 1.2774
 Frc consts  --     1.2003                 1.3358                 1.1539
 IR Inten    --     8.2512                14.5159                 5.9346
 Raman Activ --     1.7755                 4.1669                 2.6052

                    79                     80                     81
                     A                      A                      A
 Frequencies --  1247.3311              1257.2597              1267.2791
 Red. masses --     1.3331                 1.2574                 1.2322
 Frc consts  --     1.2220                 1.1710                 1.1659
 IR Inten    --     5.7485                 9.4108                30.9100
 Raman Activ --     1.2437                 1.8145                 1.2496

                    82                     83                     84
                     A                      A                      A
 Frequencies --  1275.1917              1282.3573              1293.1470
 Red. masses --     1.2191                 1.3710                 1.1994
 Frc consts  --     1.1680                 1.3283                 1.1817
 IR Inten    --     9.1960                19.6600                 2.9623
 Raman Activ --     0.7205                 0.6175                 2.4719

                    85                     86                     87
                     A                      A                      A
 Frequencies --  1296.0253              1300.2719              1309.9364
 Red. masses --     1.1872                 1.3409                 1.2522
 Frc consts  --     1.1749                 1.3357                 1.2659
 IR Inten    --     7.4090                12.0403                34.3927
 Raman Activ --    10.0389                 2.6350                10.2829

                    88                     89                     90
                     A                      A                      A
 Frequencies --  1314.4912              1328.3962              1338.5100
 Red. masses --     1.1986                 1.1729                 1.2521
 Frc consts  --     1.2202                 1.2195                 1.3217
 IR Inten    --     6.1618                49.7986                38.9295
 Raman Activ --     3.8478                 5.3248                 9.3012

                    91                     92                     93
                     A                      A                      A
 Frequencies --  1342.7573              1348.0679              1363.8713
 Red. masses --     1.2375                 1.2118                 1.2945
 Frc consts  --     1.3145                 1.2975                 1.4188
 IR Inten    --    19.0331                37.4799                17.3435
 Raman Activ --     3.3552                 0.8804                 1.7117

                    94                     95                     96
                     A                      A                      A
 Frequencies --  1366.5892              1372.8948              1379.4691
 Red. masses --     1.2740                 1.4055                 1.5417
 Frc consts  --     1.4018                 1.5608                 1.7285
 IR Inten    --    19.8421                 7.5448                10.2128
 Raman Activ --     7.2029                 6.9437                 8.1389

                    97                     98                     99
                     A                      A                      A
 Frequencies --  1381.3404              1392.6180              1395.5456
 Red. masses --     1.4256                 1.5426                 1.5453
 Frc consts  --     1.6027                 1.7627                 1.7731
 IR Inten    --    23.6938                 4.0844                 5.0807
 Raman Activ --     6.9091                 3.1209                 6.6465

                   100                    101                    102
                     A                      A                      A
 Frequencies --  1440.0175              1445.6056              1461.0291
 Red. masses --     1.3999                 1.3939                 1.4217
 Frc consts  --     1.7103                 1.7163                 1.7881
 IR Inten    --    42.8075                21.9405                 6.0492
 Raman Activ --     0.6452                 1.5960                 2.3126

                   103                    104                    105
                     A                      A                      A
 Frequencies --  1462.3278              1479.8128              1484.0511
 Red. masses --     1.4637                 1.0954                 1.0848
 Frc consts  --     1.8441                 1.4133                 1.4076
 IR Inten    --    20.1381                 2.6393                 1.5279
 Raman Activ --     0.7993                 4.1428                 5.1564

                   106                    107                    108
                     A                      A                      A
 Frequencies --  1495.2347              1507.7825              3266.2251
 Red. masses --     1.3095                 1.2834                 1.0679
 Frc consts  --     1.7249                 1.7191                 6.7124
 IR Inten    --    30.4557                52.0633                45.3355
 Raman Activ --     0.5583                 1.4605               144.8626

                   109                    110                    111
                     A                      A                      A
 Frequencies --  3266.2840              3271.2562              3277.3707
 Red. masses --     1.0704                 1.0595                 1.0811
 Frc consts  --     6.7280                 6.6800                 6.8417
 IR Inten    --     1.5343               114.4728                 8.4924
 Raman Activ --     7.8470                70.8921               125.0848

                   112                    113                    114
                     A                      A                      A
 Frequencies --  3285.0954              3287.4003              3290.3825
 Red. masses --     1.0832                 1.0827                 1.0824
 Frc consts  --     6.8872                 6.8940                 6.9044
 IR Inten    --     2.0524                 1.9462                31.8039
 Raman Activ --    13.0985                32.2563               177.1863

                   115                    116                    117
                     A                      A                      A
 Frequencies --  3297.5210              3297.7407              3300.0101
 Red. masses --     1.0835                 1.0833                 1.0858
 Frc consts  --     6.9416                 6.9411                 6.9670
 IR Inten    --    57.3319                79.7873                 8.9480
 Raman Activ --    59.2090                84.4852                57.8303

                   118                    119                    120
                     A                      A                      A
 Frequencies --  3305.1719              3311.3523              3312.1559
 Red. masses --     1.0767                 1.0850                 1.0872
 Frc consts  --     6.9297                 7.0095                 7.0272
 IR Inten    --   219.0053               136.5230               123.0611
 Raman Activ --   199.4562                35.6431                14.5040

                   121                    122                    123
                     A                      A                      A
 Frequencies --  3321.8696              3328.1580              3331.8387
 Red. masses --     1.1044                 1.1059                 1.0687
 Frc consts  --     7.1806                 7.2176                 6.9901
 IR Inten    --    46.3361                63.9470               633.2409
 Raman Activ --    32.4598                56.9397               136.3669

                   124                    125                    126
                     A                      A                      A
 Frequencies --  3388.2826              3388.7711              3389.6324
 Red. masses --     1.0657                 1.0671                 1.0666
 Frc consts  --     7.2082                 7.2198                 7.2203
 IR Inten    --    29.0474                51.8414                62.0100
 Raman Activ --    81.8286               199.8349               120.3928

                   127                    128                    129
                     A                      A                      A
 Frequencies --  3391.8991              3919.8052              3921.2438
 Red. masses --     1.0659                 1.0677                 1.0676
 Frc consts  --     7.2253                 9.6656                 9.6717
 IR Inten    --    34.8195                71.6604                65.6071
 Raman Activ --   133.1030                89.2042               130.8815

 - Thermochemistry -
 -------------------
 Temperature   298.150 Kelvin.  Pressure   1.00000 Atm.
 Atom     1 has atomic number  8 and mass  15.99491

 Molecular mass:   342.11621 amu.
 Principal axes and moments of inertia in atomic units:
                           1         2         3
     Eigenvalues --  4565.96419********************
           X            0.99997   0.00793   0.00060
           Y           -0.00793   0.99997   0.00200
           Z           -0.00058  -0.00201   1.00000
 This molecule is an asymmetric top.
 Rotational symmetry number  1.
 Warning -- assumption of classical behavior for rotation
           may cause significant error
 Rotational temperatures (Kelvin)      0.01897     0.00699     0.00525
 Rotational constants (GHZ):           0.39526     0.14560     0.10939
    6 imaginary frequencies ignored.
 Zero-point vibrational energy     977902.3 (Joules/Mol)
                                  233.72425 (Kcal/Mol)
 Warning -- explicit consideration of  33 degrees of freedom as
           vibrations may cause significant error
 Vibrational temperatures:     40.90    60.65    98.80   114.91   128.22
          (Kelvin)            148.94   217.12   230.03   260.80   274.20
                              326.23   366.36   380.76   387.29   429.32
                              432.60   451.89   467.85   486.25   508.46
                              529.71   573.99   599.12   612.75   625.15
                              667.98   692.48   723.80   738.97   804.74
                              829.59   853.60   879.22   898.28   980.63
                              981.50  1048.37  1049.90  1079.48  1128.17
                             1212.00  1221.11  1258.16  1341.05  1377.52
                             1421.15  1426.28  1438.32  1453.11  1467.70
                             1478.94  1502.06  1526.66  1540.41  1555.86
                             1564.66  1570.88  1600.59  1603.26  1611.63
                             1618.62  1641.73  1651.92  1662.87  1669.90
                             1673.00  1677.66  1687.61  1701.64  1728.89
                             1751.25  1781.53  1794.63  1808.91  1823.33
                             1834.71  1845.02  1860.55  1864.69  1870.80
                             1884.70  1891.26  1911.26  1925.81  1931.93
                             1939.57  1962.30  1966.21  1975.29  1984.75
                             1987.44  2003.66  2007.88  2071.86  2079.90
                             2102.09  2103.96  2129.12  2135.22  2151.31
                             2169.36  4699.36  4699.45  4706.60  4715.40
                             4726.51  4729.83  4734.12  4744.39  4744.71
                             4747.97  4755.40  4764.29  4765.45  4779.42
                             4788.47  4793.77  4874.98  4875.68  4876.92
                             4880.18  5639.72  5641.79

 Zero-point correction=                           0.372463 (Hartree/Particle)
 Thermal correction to Energy=                    0.391907
 Thermal correction to Enthalpy=                  0.392851
 Thermal correction to Gibbs Free Energy=         0.324570
 Sum of electronic and zero-point Energies=          -1297.580321
 Sum of electronic and thermal Energies=             -1297.560877
 Sum of electronic and thermal Enthalpies=           -1297.559933
 Sum of electronic and thermal Free Energies=        -1297.628214

                     E (Thermal)             CV                S
                      KCal/Mol        Cal/Mol-Kelvin    Cal/Mol-Kelvin
 Total                  245.925             78.012            143.710
 Electronic               0.000              0.000              0.000
 Translational            0.889              2.981             43.384
 Rotational               0.889              2.981             35.189
 Vibrational            244.148             72.051             65.136
 Vibration     1          0.593              1.984              5.936
 Vibration     2          0.595              1.980              5.155
 Vibration     3          0.598              1.969              4.191
 Vibration     4          0.600              1.963              3.894
 Vibration     5          0.602              1.957              3.679
 Vibration     6          0.605              1.946              3.387
 Vibration     7          0.618              1.902              2.661
 Vibration     8          0.622              1.891              2.551
 Vibration     9          0.630              1.865              2.315
 Vibration    10          0.634              1.853              2.222
 Vibration    11          0.650              1.800              1.905
 Vibration    12          0.665              1.755              1.698
 Vibration    13          0.671              1.738              1.631
 Vibration    14          0.674              1.730              1.601
 Vibration    15          0.691              1.677              1.426
 Vibration    16          0.693              1.672              1.413
 Vibration    17          0.702              1.647              1.341
 Vibration    18          0.709              1.625              1.284
 Vibration    19          0.718              1.600              1.222
 Vibration    20          0.730              1.568              1.151
 Vibration    21          0.741              1.538              1.087
 Vibration    22          0.765              1.472              0.967
 Vibration    23          0.780              1.435              0.904
 Vibration    24          0.788              1.414              0.872
 Vibration    25          0.795              1.395              0.844
 Vibration    26          0.822              1.329              0.754
 Vibration    27          0.838              1.292              0.707
 Vibration    28          0.858              1.243              0.651
 Vibration    29          0.869              1.220              0.625
 Vibration    30          0.915              1.119              0.525
 Vibration    31          0.933              1.082              0.492
 Vibration    32          0.951              1.046              0.461
 Vibration    33          0.970              1.008              0.431

 Normal termination of Gaussian 09 at Thu Jan 21 04:56:49 2016.
