 Gaussian 09, Revision B.01,
 Gaussian 09:  EM64L-G09RevB.01 12-Aug-2010

 -------------------------------------------------
 # freq=raman b3lyp/6-31+g(2d,p) geom=connectivity
 -------------------------------------------------

 -----------------
 473 8000/8000.com
 -----------------
 Symbolic Z-matrix:
 Charge =  0 Multiplicity = 1

                         Standard orientation:
 ---------------------------------------------------------------------
 Center     Atomic      Atomic             Coordinates (Angstroms)
 Number     Number       Type             X           Y           Z
 ---------------------------------------------------------------------
      1          8           0       -4.897577   -0.615913    0.561283
      2          6           0       -3.728215   -0.215758   -0.169137
      3          6           0       -3.353714    1.238137    0.067261
      4          8           0       -4.227943    2.244272   -0.465669
      5          1           0       -5.188805    2.015007   -0.310033
      6          6           0       -1.897685    1.575605   -0.211577
      7          8           0       -1.634142    2.718410    0.614916
      8          1           0       -0.717241    3.050965    0.392739
      9          6           0       -2.807964   -2.558256   -0.242708
     10          8           0       -3.978012   -3.256744    0.206452
     11          1           0       -3.713846   -4.218465    0.125365
     12          6           0       -2.616986   -1.147267    0.288262
     13          8           0       -1.326574   -0.848928   -0.264059
     14          6           0       -0.930532    0.463728    0.159089
     15          8           0        0.296007    0.700777   -0.546756
     16          6           0        1.521006    0.243962    0.045619
     17          6           0        1.992998   -1.145446   -0.350653
     18          8           0        0.990520   -2.086462    0.062287
     19          1           0        0.088750   -1.879212   -0.318249
     20          6           0        3.316995   -1.592734    0.247596
     21          8           0        3.764904   -2.818040   -0.350419
     22          1           0        4.649401   -3.135753   -0.009143
     23          6           0        2.356563    2.701702    0.148879
     24          8           0        1.202957    3.448702   -0.263750
     25          1           0        1.406784    4.417255   -0.116223
     26          6           0        2.598725    1.264454   -0.283367
     27          8           0        3.845217    0.900215    0.326745
     28          6           0        4.236652   -0.423638   -0.063283
     29          8           0        5.542512   -0.591971    0.508418
     30          1           0        6.179817   -0.752964   -0.191242
     31          1           0        4.360202   -0.407912   -1.126009
     32          1           0        3.219978   -1.712910    1.306390
     33          1           0        2.074738   -1.182675   -1.416876
     34          1           0        1.385241    0.246004    1.106969
     35          1           0        2.737333    1.260815   -1.344345
     36          1           0        3.211869    3.262993   -0.164656
     37          1           0        2.353965    2.702354    1.218875
     38          1           0       -5.563534   -0.936317   -0.051451
     39          1           0       -1.951043   -3.135244    0.035987
     40          1           0       -2.564557   -1.161561    1.356881
     41          1           0       -3.901348   -0.365561   -1.214357
     42          1           0       -3.447729    1.353063    1.126909
     43          1           0       -1.775415    1.836346   -1.242093
     44          1           0       -0.751847    0.469970    1.214046
     45          1           0       -2.842741   -2.507688   -1.310946
 ---------------------------------------------------------------------

 SCF Done:  E(RB3LYP) =  -1297.99386881     A.U. after   13 cycles

 The electronic state is 1-A.
 Alpha  occ. eigenvalues --  -19.18638 -19.17974 -19.17960 -19.17768 -19.17212
 Alpha  occ. eigenvalues --  -19.16741 -19.16491 -19.16275 -19.15500 -19.14546
 Alpha  occ. eigenvalues --  -19.13135 -10.30357 -10.30048 -10.25698 -10.25311
 Alpha  occ. eigenvalues --  -10.25290 -10.25267 -10.25161 -10.24732 -10.24601
 Alpha  occ. eigenvalues --  -10.24363 -10.24024 -10.23935  -1.10073  -1.08770
 Alpha  occ. eigenvalues --   -1.04998  -1.04470  -1.03783  -1.03400  -1.02881
 Alpha  occ. eigenvalues --   -1.02545  -1.02313  -1.00743  -1.00133  -0.81854
 Alpha  occ. eigenvalues --   -0.80203  -0.79611  -0.77988  -0.71833  -0.69667
 Alpha  occ. eigenvalues --   -0.67514  -0.64893  -0.62965  -0.62629  -0.61206
 Alpha  occ. eigenvalues --   -0.59817  -0.55876  -0.55748  -0.55039  -0.54638
 Alpha  occ. eigenvalues --   -0.54165  -0.52933  -0.52690  -0.52128  -0.51456
 Alpha  occ. eigenvalues --   -0.50449  -0.49930  -0.49403  -0.48773  -0.46245
 Alpha  occ. eigenvalues --   -0.46033  -0.44896  -0.43686  -0.43469  -0.42803
 Alpha  occ. eigenvalues --   -0.42284  -0.41571  -0.41035  -0.40008  -0.39895
 Alpha  occ. eigenvalues --   -0.39186  -0.37541  -0.36652  -0.36327  -0.35822
 Alpha  occ. eigenvalues --   -0.35380  -0.34827  -0.34416  -0.34271  -0.32996
 Alpha  occ. eigenvalues --   -0.32097  -0.31133  -0.30815  -0.30499  -0.29796
 Alpha  occ. eigenvalues --   -0.29397  -0.28933  -0.28435  -0.28263  -0.26732
 Alpha  occ. eigenvalues --   -0.26136
 Alpha virt. eigenvalues --   -0.01913  -0.01664  -0.01619  -0.00193   0.00340
 Alpha virt. eigenvalues --    0.01151   0.02056   0.02250   0.03272   0.03344
 Alpha virt. eigenvalues --    0.03640   0.04253   0.04856   0.05252   0.05774

 Mulliken atomic charges:
              1
     1  O   -0.510452
     2  C    0.022077
     3  C    0.227791
     4  O   -0.572304
     5  H    0.335624
     6  C    0.020289
     7  O   -0.543434
     8  H    0.380653
     9  C   -0.269849
    10  O   -0.535829
    11  H    0.335674
    12  C    0.143953
    13  O   -0.229659
    14  C    0.027908
    15  O   -0.216133
    16  C    0.328565
    17  C    0.166347
    18  O   -0.556483
    19  H    0.374019
    20  C   -0.018008
    21  O   -0.541600
    22  H    0.340468
    23  C   -0.250665
    24  O   -0.558502
    25  H    0.354980
    26  C   -0.146044
    27  O   -0.242262
    28  C    0.182006
    29  O   -0.548454
    30  H    0.332571
    31  H    0.113027
    32  H    0.135890
    33  H    0.124349
    34  H    0.109598
    35  H    0.118280
    36  H    0.145897
    37  H    0.151973
    38  H    0.338031
    39  H    0.143632
    40  H    0.123936
    41  H    0.117308
    42  H    0.129362
    43  H    0.140506
    44  H    0.131594
    45  H    0.143370
 Sum of Mulliken atomic charges =   0.00000

 Dipole moment (field-independent basis, Debye):
    X=              1.8861    Y=             -0.4278    Z=             -2.1161  Tot=              2.8667
 Quadrupole moment (field-independent basis, Debye-Ang):
   XX=           -121.8273   YY=           -131.5288   ZZ=           -140.5510
   XY=             11.1463   XZ=             -0.2640   YZ=              1.8138

  Exact polarizability: 231.781  -3.167 200.015  -0.136   0.470 143.665
 Approx polarizability: 272.663  -2.860 259.308  -1.061   0.520 239.333

 ******    6 imaginary frequencies (negative Signs) ******

                     1                      2                      3
                     A                      A                      A
 Frequencies --  -294.2627              -276.8002              -247.0014
 Red. masses --     1.7347                 1.2046                 1.1876
 Frc consts  --     0.0885                 0.0544                 0.0427
 IR Inten    --     2.1913                96.7737               106.8587
 Raman Activ --     0.0476                 0.6738                 0.7966

                     4                      5                      6
                     A                      A                      A
 Frequencies --  -223.5040               -78.4961               -58.6166
 Red. masses --     1.7019                 6.7387                 5.9950
 Frc consts  --     0.0501                 0.0245                 0.0121
 IR Inten    --    11.4340                 1.0754                 0.2814
 Raman Activ --     0.1834                 0.0113                 0.0325

                     7                      8                      9
                     A                      A                      A
 Frequencies --    28.1507                46.2869                61.2453
 Red. masses --     6.4475                 6.7280                 6.3784
 Frc consts  --     0.0030                 0.0085                 0.0141
 IR Inten    --     0.7084                 0.7384                 1.2954
 Raman Activ --     0.0224                 0.0359                 0.0330

                    10                     11                     12
                     A                      A                      A
 Frequencies --    74.5696                84.2118               117.0249
 Red. masses --     6.6373                 6.9150                 5.5288
 Frc consts  --     0.0217                 0.0289                 0.0446
 IR Inten    --     1.1773                 0.4786                 3.1744
 Raman Activ --     0.2982                 0.0094                 0.0934

                    13                     14                     15
                     A                      A                      A
 Frequencies --   134.2432               168.2605               187.4957
 Red. masses --     6.0345                 5.8938                 7.0888
 Frc consts  --     0.0641                 0.0983                 0.1468
 IR Inten    --     1.9516                 2.6913                 0.1902
 Raman Activ --     0.4214                 0.0910                 1.8795

                    16                     17                     18
                     A                      A                      A
 Frequencies --   198.9742               226.4015               261.5327
 Red. masses --     6.1391                 6.5966                 5.4499
 Frc consts  --     0.1432                 0.1992                 0.2196
 IR Inten    --     0.2965                 0.5601                10.9745
 Raman Activ --     0.1966                 1.3952                 0.6234

                    19                     20                     21
                     A                      A                      A
 Frequencies --   270.5376               283.2666               297.7433
 Red. masses --     5.1005                 5.3857                 5.6259
 Frc consts  --     0.2199                 0.2546                 0.2939
 IR Inten    --     0.1216                 1.2665                 6.8215
 Raman Activ --     0.4055                 0.2084                 0.1667

                    22                     23                     24
                     A                      A                      A
 Frequencies --   315.1871               324.5933               330.8249
 Red. masses --     5.3153                 6.0114                 5.9349
 Frc consts  --     0.3111                 0.3732                 0.3827
 IR Inten    --     6.7890                 4.5480                 1.4762
 Raman Activ --     0.2912                 4.6667                 2.1716

                    25                     26                     27
                     A                      A                      A
 Frequencies --   340.6931               356.8401               380.5245
 Red. masses --     6.8228                 4.5275                 4.7964
 Frc consts  --     0.4666                 0.3397                 0.4092
 IR Inten    --     2.4748                 5.8435                 0.4915
 Raman Activ --     4.3451                 0.0627                 0.8265

                    28                     29                     30
                     A                      A                      A
 Frequencies --   411.8892               424.1950               430.1963
 Red. masses --     4.8601                 5.8416                 4.7674
 Frc consts  --     0.4858                 0.6193                 0.5198
 IR Inten    --    15.3025                 0.7747                 3.7574
 Raman Activ --     2.3513                 6.6278                 0.7599

                    31                     32                     33
                     A                      A                      A
 Frequencies --   450.2493               472.2693               487.6248
 Red. masses --     5.6026                 4.5137                 3.9192
 Frc consts  --     0.6692                 0.5931                 0.5491
 IR Inten    --    10.2489                 7.1676                14.1036
 Raman Activ --     3.1177                 4.3784                 0.3086

                    34                     35                     36
                     A                      A                      A
 Frequencies --   510.9328               533.2943               557.1420
 Red. masses --     4.2687                 3.3899                 3.8995
 Frc consts  --     0.6566                 0.5680                 0.7132
 IR Inten    --     6.3870                12.4770                13.3045
 Raman Activ --     2.4022                 2.8138                 1.3319

                    37                     38                     39
                     A                      A                      A
 Frequencies --   575.5530               593.5871               620.1718
 Red. masses --     2.7506                 4.8640                 5.9684
 Frc consts  --     0.5369                 1.0098                 1.3525
 IR Inten    --    35.9310                 2.0291                 4.0373
 Raman Activ --     0.2910                 1.6908                 0.3138

                    40                     41                     42
                     A                      A                      A
 Frequencies --   641.9947               689.9434               692.9792
 Red. masses --     4.5800                 1.1003                 1.0534
 Frc consts  --     1.1122                 0.3086                 0.2981
 IR Inten    --    55.3427                91.6110                92.0632
 Raman Activ --     1.1467                 2.1990                 1.9550

                    43                     44                     45
                     A                      A                      A
 Frequencies --   697.5842               732.8130               735.0650
 Red. masses --     4.8554                 1.0743                 1.0803
 Frc consts  --     1.3921                 0.3399                 0.3439
 IR Inten    --    13.7938                92.6648               105.1298
 Raman Activ --     0.8810                 1.6984                 1.3253

                    46                     47                     48
                     A                      A                      A
 Frequencies --   750.1350               841.0018               854.8131
 Red. masses --     1.0795                 1.1862                 1.7129
 Frc consts  --     0.3579                 0.4943                 0.7374
 IR Inten    --   206.2676                58.1609                 6.7148
 Raman Activ --     3.9112                 0.5453                 0.3255

                    49                     50                     51
                     A                      A                      A
 Frequencies --   858.3190               931.2393               962.3737
 Red. masses --     1.5089                 6.0755                 5.4001
 Frc consts  --     0.6550                 3.1042                 2.9467
 IR Inten    --    17.1091                76.6616               119.7880
 Raman Activ --     1.1417                 2.7812                 1.1371

                    52                     53                     54
                     A                      A                      A
 Frequencies --   968.4241               984.7978               995.3916
 Red. masses --     6.8493                 6.2831                 5.6436
 Frc consts  --     3.7847                 3.5902                 3.2945
 IR Inten    --    34.3960               248.4220                41.1434
 Raman Activ --     1.7432                 0.8450                 1.3914

                    55                     56                     57
                     A                      A                      A
 Frequencies --  1000.9160              1013.0565              1027.1807
 Red. masses --     5.3069                 7.0059                 6.1647
 Frc consts  --     3.1324                 4.2362                 3.8323
 IR Inten    --   226.7576                20.1750               187.5789
 Raman Activ --     3.3087                 2.0247                 2.2542

                    58                     59                     60
                     A                      A                      A
 Frequencies --  1036.2993              1049.9717              1058.2599
 Red. masses --     4.0748                 6.9948                 5.3889
 Frc consts  --     2.5783                 4.5434                 3.5558
 IR Inten    --   203.8738               151.2750                93.6702
 Raman Activ --     4.9334                 2.0435                 4.1756

                    61                     62                     63
                     A                      A                      A
 Frequencies --  1064.2744              1069.1234              1078.3409
 Red. masses --     4.1256                 4.7555                 4.1892
 Frc consts  --     2.7532                 3.2026                 2.8701
 IR Inten    --   120.9239                45.6641                32.5999
 Raman Activ --     9.5812                 5.4771                 9.4667

                    64                     65                     66
                     A                      A                      A
 Frequencies --  1087.4279              1096.0573              1116.7196
 Red. masses --     2.3680                 4.8653                 2.8414
 Frc consts  --     1.6498                 3.4437                 2.0877
 IR Inten    --    80.7344                19.2486                15.1653
 Raman Activ --     4.2351                17.9956                 5.6281

                    67                     68                     69
                     A                      A                      A
 Frequencies --  1123.5004              1129.1293              1132.4691
 Red. masses --     2.3421                 2.5704                 2.6268
 Frc consts  --     1.7418                 1.9308                 1.9848
 IR Inten    --     3.5352                 5.3810                10.6207
 Raman Activ --     1.6715                 7.9171                 3.9979

                    70                     71                     72
                     A                      A                      A
 Frequencies --  1145.8799              1153.0712              1160.9982
 Red. masses --     2.3341                 1.9303                 2.1656
 Frc consts  --     1.8057                 1.5121                 1.7199
 IR Inten    --    44.9357                24.5303                 9.3304
 Raman Activ --     3.3245                 7.6434                 1.0581

                    73                     74                     75
                     A                      A                      A
 Frequencies --  1172.3605              1179.1859              1181.6924
 Red. masses --     1.9570                 1.4951                 1.5929
 Frc consts  --     1.5848                 1.2248                 1.3105
 IR Inten    --    10.6551                 6.6100                13.7083
 Raman Activ --     2.5928                 1.8877                 2.0511

                    76                     77                     78
                     A                      A                      A
 Frequencies --  1200.7489              1208.7758              1234.5438
 Red. masses --     1.2560                 1.3942                 1.2883
 Frc consts  --     1.0670                 1.2002                 1.1568
 IR Inten    --    11.3815                 4.1034                10.1138
 Raman Activ --     0.9295                 2.0465                 0.7933

                    79                     80                     81
                     A                      A                      A
 Frequencies --  1242.4207              1250.1562              1260.4303
 Red. masses --     1.2213                 1.2626                 1.1939
 Frc consts  --     1.1107                 1.1626                 1.1175
 IR Inten    --     0.8160                15.6836                12.3804
 Raman Activ --     2.8357                 1.0976                 0.8076

                    82                     83                     84
                     A                      A                      A
 Frequencies --  1261.8852              1280.5378              1288.6763
 Red. masses --     1.3105                 1.3961                 1.2274
 Frc consts  --     1.2295                 1.3489                 1.2009
 IR Inten    --    18.9509                35.6610                 7.7352
 Raman Activ --     1.5275                 3.2544                 2.0647

                    85                     86                     87
                     A                      A                      A
 Frequencies --  1293.4958              1303.7115              1304.8516
 Red. masses --     1.3027                 1.2002                 1.2740
 Frc consts  --     1.2842                 1.2019                 1.2781
 IR Inten    --    37.6089                 8.3695                32.4837
 Raman Activ --     3.0273                 4.7593                 3.9860

                    88                     89                     90
                     A                      A                      A
 Frequencies --  1307.3110              1314.3677              1334.1911
 Red. masses --     1.2597                 1.2893                 1.3803
 Frc consts  --     1.2685                 1.3124                 1.4476
 IR Inten    --    10.0363                29.9594                12.7358
 Raman Activ --    11.2045                 5.5146                 0.9195

                    91                     92                     93
                     A                      A                      A
 Frequencies --  1342.5742              1346.5391              1357.4788
 Red. masses --     1.2111                 1.3053                 1.2709
 Frc consts  --     1.2862                 1.3944                 1.3798
 IR Inten    --    17.8768                52.3255                 4.6849
 Raman Activ --     3.6587                 4.6655                 0.5296

                    94                     95                     96
                     A                      A                      A
 Frequencies --  1358.1922              1369.4629              1376.2022
 Red. masses --     1.2042                 1.4022                 1.5396
 Frc consts  --     1.3088                 1.5494                 1.7180
 IR Inten    --    31.9095                26.2415                20.8648
 Raman Activ --     0.9218                 9.0584                 7.6849

                    97                     98                     99
                     A                      A                      A
 Frequencies --  1384.4506              1391.3525              1394.3697
 Red. masses --     1.3121                 1.3228                 1.4871
 Frc consts  --     1.4817                 1.5088                 1.7035
 IR Inten    --     7.9052                 5.2305                 4.9141
 Raman Activ --     3.1401                 3.4892                 1.8174

                   100                    101                    102
                     A                      A                      A
 Frequencies --  1401.5547              1423.1313              1468.8938
 Red. masses --     1.5431                 1.5093                 1.2383
 Frc consts  --     1.7859                 1.8010                 1.5742
 IR Inten    --    16.6119                21.9844                25.0152
 Raman Activ --     5.3436                 2.4964                 2.5832

                   103                    104                    105
                     A                      A                      A
 Frequencies --  1473.7096              1474.8265              1477.8378
 Red. masses --     1.1338                 1.1486                 1.2560
 Frc consts  --     1.4508                 1.4720                 1.6162
 IR Inten    --     9.9031                 3.8217                35.8482
 Raman Activ --     5.8448                 2.7955                 1.9402

                   106                    107                    108
                     A                      A                      A
 Frequencies --  1494.7798              1496.5393              3255.9040
 Red. masses --     1.3011                 1.3235                 1.0571
 Frc consts  --     1.7128                 1.7464                 6.6024
 IR Inten    --    38.9957                12.6443                39.8269
 Raman Activ --     1.0881                 0.6587                64.5953

                   109                    110                    111
                     A                      A                      A
 Frequencies --  3258.2374              3262.4059              3263.6397
 Red. masses --     1.0590                 1.0834                 1.0805
 Frc consts  --     6.6240                 6.7940                 6.7807
 IR Inten    --    37.3258                 5.7635                 6.7129
 Raman Activ --    92.1118                 2.2789               135.0477

                   112                    113                    114
                     A                      A                      A
 Frequencies --  3265.6958              3273.5897              3279.9669
 Red. masses --     1.0818                 1.0814                 1.0836
 Frc consts  --     6.7973                 6.8278                 6.8683
 IR Inten    --    25.3717                50.4292                30.5116
 Raman Activ --    56.3399               139.3420                35.7046

                   115                    116                    117
                     A                      A                      A
 Frequencies --  3285.1303              3287.0467              3291.2804
 Red. masses --     1.0819                 1.0815                 1.0861
 Frc consts  --     6.8791                 6.8847                 6.9321
 IR Inten    --   108.6060                91.2226                64.0767
 Raman Activ --    54.1495               101.2246                42.3129

                   118                    119                    120
                     A                      A                      A
 Frequencies --  3296.2980              3302.4669              3303.4918
 Red. masses --     1.0780                 1.0870                 1.0866
 Frc consts  --     6.9012                 6.9846                 6.9867
 IR Inten    --   187.8204                 6.4585                95.4365
 Raman Activ --   183.9475                20.1894                21.9190

                   121                    122                    123
                     A                      A                      A
 Frequencies --  3310.6881              3314.3559              3321.3095
 Red. masses --     1.1039                 1.1034                 1.0679
 Frc consts  --     7.1290                 7.1412                 6.9407
 IR Inten    --    50.1652                68.9433               423.5322
 Raman Activ --    48.0778                28.8352               152.6368

                   124                    125                    126
                     A                      A                      A
 Frequencies --  3361.1794              3361.8438              3371.4580
 Red. masses --     1.0676                 1.0672                 1.0665
 Frc consts  --     7.1062                 7.1062                 7.1426
 IR Inten    --    29.2390                53.6779                36.5866
 Raman Activ --   144.1746               138.7624               141.1669

                   127                    128                    129
                     A                      A                      A
 Frequencies --  3374.7535              3889.2762              3890.3726
 Red. masses --     1.0669                 1.0676                 1.0676
 Frc consts  --     7.1590                 9.5144                 9.5199
 IR Inten    --    49.1779                79.6935                69.8702
 Raman Activ --   175.6252                92.3250                94.5846

 - Thermochemistry -
 -------------------
 Temperature   298.150 Kelvin.  Pressure   1.00000 Atm.
 Atom     1 has atomic number  8 and mass  15.99491

 Molecular mass:   342.11621 amu.
 Principal axes and moments of inertia in atomic units:
                           1         2         3
     Eigenvalues --  4535.85722********************
           X            0.99997   0.00715  -0.00041
           Y           -0.00715   0.99997   0.00294
           Z            0.00043  -0.00294   1.00000
 This molecule is an asymmetric top.
 Rotational symmetry number  1.
 Warning -- assumption of classical behavior for rotation
           may cause significant error
 Rotational temperatures (Kelvin)      0.01910     0.00715     0.00533
 Rotational constants (GHZ):           0.39788     0.14902     0.11109
    6 imaginary frequencies ignored.
 Zero-point vibrational energy     974399.6 (Joules/Mol)
                                  232.88709 (Kcal/Mol)
 Warning -- explicit consideration of  33 degrees of freedom as
           vibrations may cause significant error
 Vibrational temperatures:     40.50    66.60    88.12   107.29   121.16
          (Kelvin)            168.37   193.15   242.09   269.76   286.28
                              325.74   376.29   389.24   407.56   428.39
                              453.48   467.02   475.98   490.18   513.41
                              547.49   592.62   610.32   618.96   647.81
                              679.49   701.58   735.12   767.29   801.60
                              828.09   854.04   892.29   923.69   992.67
                              997.04  1003.67  1054.35  1057.59  1079.28
                             1210.01  1229.88  1234.93  1339.84  1384.64
                             1393.34  1416.90  1432.14  1440.09  1457.56
                             1477.88  1491.00  1510.67  1522.60  1531.25
                             1538.23  1551.49  1564.56  1576.98  1606.71
                             1616.46  1624.56  1629.37  1648.66  1659.01
                             1670.42  1686.76  1696.58  1700.19  1727.61
                             1739.16  1776.23  1787.56  1798.69  1813.48
                             1815.57  1842.41  1854.12  1861.05  1875.75
                             1877.39  1880.93  1891.08  1919.60  1931.66
                             1937.37  1953.11  1954.13  1970.35  1980.05
                             1991.91  2001.84  2006.18  2016.52  2047.57
                             2113.41  2120.34  2121.94  2126.28  2150.65
                             2153.18  4684.51  4687.87  4693.87  4695.64
                             4698.60  4709.96  4719.13  4726.56  4729.32
                             4735.41  4742.63  4751.51  4752.98  4763.34
                             4768.61  4778.62  4835.98  4836.94  4850.77
                             4855.51  5595.79  5597.37

 Zero-point correction=                           0.371129 (Hartree/Particle)
 Thermal correction to Energy=                    0.390447
 Thermal correction to Enthalpy=                  0.391391
 Thermal correction to Gibbs Free Energy=         0.323364
 Sum of electronic and zero-point Energies=          -1297.622740
 Sum of electronic and thermal Energies=             -1297.603422
 Sum of electronic and thermal Enthalpies=           -1297.602478
 Sum of electronic and thermal Free Energies=        -1297.670505

                     E (Thermal)             CV                S
                      KCal/Mol        Cal/Mol-Kelvin    Cal/Mol-Kelvin
 Total                  245.009             78.004            143.174
 Electronic               0.000              0.000              0.000
 Translational            0.889              2.981             43.384
 Rotational               0.889              2.981             35.144
 Vibrational            243.232             72.043             64.646
 Vibration     1          0.593              1.984              5.956
 Vibration     2          0.595              1.979              4.970
 Vibration     3          0.597              1.973              4.417
 Vibration     4          0.599              1.966              4.029
 Vibration     5          0.601              1.960              3.790
 Vibration     6          0.608              1.935              3.149
 Vibration     7          0.613              1.919              2.884
 Vibration     8          0.625              1.882              2.455
 Vibration     9          0.632              1.857              2.252
 Vibration    10          0.637              1.841              2.143
 Vibration    11          0.650              1.801              1.907
 Vibration    12          0.669              1.743              1.652
 Vibration    13          0.674              1.727              1.593
 Vibration    14          0.682              1.705              1.514
 Vibration    15          0.691              1.678              1.430
 Vibration    16          0.703              1.645              1.335
 Vibration    17          0.709              1.626              1.287
 Vibration    18          0.713              1.614              1.256
 Vibration    19          0.720              1.594              1.209
 Vibration    20          0.732              1.561              1.136
 Vibration    21          0.750              1.512              1.037
 Vibration    22          0.776              1.444              0.920
 Vibration    23          0.786              1.418              0.878
 Vibration    24          0.791              1.404              0.858
 Vibration    25          0.809              1.360              0.795
 Vibration    26          0.829              1.312              0.731
 Vibration    27          0.844              1.277              0.690
 Vibration    28          0.866              1.226              0.631
 Vibration    29          0.888              1.176              0.580
 Vibration    30          0.913              1.124              0.530
 Vibration    31          0.932              1.084              0.494
 Vibration    32          0.951              1.045              0.461
 Vibration    33          0.980              0.989              0.416

 Normal termination of Gaussian 09 at Tue Mar 29 16:32:00 2016.
