 Gaussian 09, Revision B.01,
 Gaussian 09:  EM64L-G09RevB.01 12-Aug-2010

 ------------------------------------------------
 # freq=raman b3lyp/6-31+g(d,p) geom=connectivity
 ------------------------------------------------

 ------------
 280 8000.com
 ------------
 Symbolic Z-matrix:
 Charge =  0 Multiplicity = 1

                         Standard orientation:
 ---------------------------------------------------------------------
 Center     Atomic      Atomic             Coordinates (Angstroms)
 Number     Number       Type             X           Y           Z
 ---------------------------------------------------------------------
      1          8           0        5.014572   -0.279250   -0.211283
      2          6           0        3.721465   -0.120320    0.391017
      3          6           0        3.242807    1.249356   -0.061003
      4          8           0        3.893018    2.254379    0.730516
      5          1           0        4.829205    1.909432    0.660786
      6          6           0        1.760371    1.540961    0.101578
      7          8           0        1.332845    2.660058   -0.689780
      8          1           0        0.383780    2.825734   -0.418707
      9          6           0        3.111549   -2.501501    0.187392
     10          8           0        4.135884   -3.322774   -0.392068
     11          1           0        3.776048   -4.256108   -0.361571
     12          6           0        2.830775   -1.106966   -0.347484
     13          8           0        1.446242   -0.869735   -0.054835
     14          6           0        0.926726    0.403319   -0.465135
     15          8           0       -0.286165    0.422543    0.300914
     16          6           0       -1.564095    0.222897   -0.320911
     17          6           0       -1.980290   -1.086483    0.330347
     18          8           0       -0.965825   -2.058376    0.037950
     19          1           0       -0.116595   -1.600310    0.299548
     20          6           0       -3.387275   -1.491643   -0.077731
     21          8           0       -3.854722   -2.727259    0.482378
     22          1           0       -4.779415   -2.954382    0.177826
     23          6           0       -2.191541    2.621986   -0.236215
     24          8           0       -1.049722    3.289327    0.320958
     25          1           0       -1.206558    4.258847    0.509197
     26          6           0       -2.567156    1.223647    0.228341
     27          8           0       -3.847584    0.854514   -0.303346
     28          6           0       -4.370637   -0.373085    0.223557
     29          8           0       -5.629170   -0.661734   -0.390997
     30          1           0        5.667963   -0.444155    0.472446
     31          1           0        3.512051    1.387952   -1.087258
     32          1           0        3.720906   -0.249460    1.453195
     33          1           0        3.008154   -1.063469   -1.401782
     34          1           0        2.196023   -3.051330    0.121062
     35          1           0        3.346518   -2.395921    1.225921
     36          1           0        0.758690    0.475926   -1.519361
     37          1           0        1.521117    1.700234    1.132252
     38          1           0       -1.527735    0.178033   -1.389352
     39          1           0       -2.584430    1.180879    1.297347
     40          1           0       -3.039752    3.250239   -0.060900
     41          1           0       -2.041569    2.572290   -1.294486
     42          1           0       -4.499748   -0.283639    1.281966
     43          1           0       -3.376026   -1.618824   -1.140086
     44          1           0       -1.984865   -0.934091    1.389429
     45          1           0       -6.274936   -0.874435    0.286753
 ---------------------------------------------------------------------

 SCF Done:  E(RB3LYP) =  -1297.92640065     A.U. after   13 cycles

 The electronic state is 1-A.
 Alpha  occ. eigenvalues --  -19.20352 -19.19442 -19.19025 -19.18582 -19.18421
 Alpha  occ. eigenvalues --  -19.18387 -19.16808 -19.16609 -19.15921 -19.13833
 Alpha  occ. eigenvalues --  -19.13497 -10.31380 -10.30408 -10.26771 -10.26147
 Alpha  occ. eigenvalues --  -10.25631 -10.25596 -10.25472 -10.24691 -10.23964
 Alpha  occ. eigenvalues --  -10.23892 -10.23855 -10.23811  -1.10182  -1.09265
 Alpha  occ. eigenvalues --   -1.06153  -1.05960  -1.04335  -1.03663  -1.02617
 Alpha  occ. eigenvalues --   -1.02322  -1.02217  -1.00432  -0.99519  -0.82711
 Alpha  occ. eigenvalues --   -0.80196  -0.79388  -0.77678  -0.72159  -0.69797
 Alpha  occ. eigenvalues --   -0.67366  -0.64478  -0.63380  -0.62509  -0.61418
 Alpha  occ. eigenvalues --   -0.60219  -0.56734  -0.56359  -0.55977  -0.54604
 Alpha  occ. eigenvalues --   -0.54077  -0.53636  -0.52511  -0.51774  -0.50772
 Alpha  occ. eigenvalues --   -0.50654  -0.50164  -0.49799  -0.48127  -0.46654
 Alpha  occ. eigenvalues --   -0.46435  -0.44806  -0.44165  -0.43792  -0.43087
 Alpha  occ. eigenvalues --   -0.42686  -0.41830  -0.40950  -0.40506  -0.39192
 Alpha  occ. eigenvalues --   -0.38512  -0.37829  -0.37705  -0.37115  -0.36404
 Alpha  occ. eigenvalues --   -0.35833  -0.34710  -0.34346  -0.34028  -0.33249
 Alpha  occ. eigenvalues --   -0.32767  -0.32067  -0.31100  -0.30286  -0.29825
 Alpha  occ. eigenvalues --   -0.29188  -0.28563  -0.27636  -0.27618  -0.25996
 Alpha  occ. eigenvalues --   -0.25669
 Alpha virt. eigenvalues --   -0.02403  -0.02153  -0.01870  -0.00256   0.00214
 Alpha virt. eigenvalues --    0.00930   0.01771   0.02268   0.03001   0.03558
 Alpha virt. eigenvalues --    0.03857   0.04321   0.04786   0.05436   0.05688

 Mulliken atomic charges:
              1
     1  O   -0.530446
     2  C   -0.094072
     3  C    0.162017
     4  O   -0.487951
     5  H    0.330519
     6  C    0.009469
     7  O   -0.551286
     8  H    0.442596
     9  C   -0.186650
    10  O   -0.511295
    11  H    0.348117
    12  C    0.200889
    13  O   -0.374166
    14  C    0.034953
    15  O   -0.382000
    16  C   -0.198792
    17  C    0.033833
    18  O   -0.536101
    19  H    0.438065
    20  C    0.191184
    21  O   -0.523933
    22  H    0.352152
    23  C   -0.157191
    24  O   -0.645264
    25  H    0.408630
    26  C    0.189269
    27  O   -0.328084
    28  C    0.191055
    29  O   -0.561648
    30  H    0.363417
    31  H    0.157301
    32  H    0.150067
    33  H    0.153886
    34  H    0.141383
    35  H    0.120624
    36  H    0.147246
    37  H    0.158229
    38  H    0.149534
    39  H    0.140253
    40  H    0.138313
    41  H    0.149931
    42  H    0.124452
    43  H    0.142166
    44  H    0.131691
    45  H    0.367637
 Sum of Mulliken atomic charges =   0.00000

 Dipole moment (field-independent basis, Debye):
    X=             -2.7061    Y=              0.8975    Z=              2.6613  Tot=              3.9001
 Quadrupole moment (field-independent basis, Debye-Ang):
   XX=           -120.6122   YY=           -137.8292   ZZ=           -137.7638
   XY=            -12.3636   XZ=              0.1655   YZ=              1.4363

  Exact polarizability: 227.248   1.547 190.495   0.476   0.151 141.807
 Approx polarizability: 264.875   1.192 244.721   0.093   0.690 231.016

 ******    7 imaginary frequencies (negative Signs) ******

                     1                      2                      3
                     A                      A                      A
 Frequencies --  -302.0671              -291.9364              -272.5962
 Red. masses --     1.6034                 1.1866                 1.2714
 Frc consts  --     0.0862                 0.0596                 0.0557
 IR Inten    --    33.8391               136.6112                87.4958
 Raman Activ --     0.4909                 1.2153                 0.8566

                     4                      5                      6
                     A                      A                      A
 Frequencies --  -262.7208               -86.1480               -52.4625
 Red. masses --     1.7150                 6.5650                 6.1133
 Frc consts  --     0.0697                 0.0287                 0.0099
 IR Inten    --     2.3771                 0.7530                 0.5492
 Raman Activ --     0.0148                 0.0514                 0.0563

                     7                      8                      9
                     A                      A                      A
 Frequencies --   -44.2547                26.1708                39.1010
 Red. masses --     5.6875                 6.5314                 7.1023
 Frc consts  --     0.0066                 0.0026                 0.0064
 IR Inten    --     1.1863                 0.6366                 0.3437
 Raman Activ --     0.0388                 0.0483                 0.0515

                    10                     11                     12
                     A                      A                      A
 Frequencies --    66.1570                85.0762               128.6414
 Red. masses --     6.8720                 6.3033                 6.0764
 Frc consts  --     0.0177                 0.0269                 0.0592
 IR Inten    --     0.8429                 1.1097                 1.3954
 Raman Activ --     0.0481                 0.3568                 0.0550

                    13                     14                     15
                     A                      A                      A
 Frequencies --   150.0965               176.0932               183.1262
 Red. masses --     6.1345                 5.6603                 7.2651
 Frc consts  --     0.0814                 0.1034                 0.1435
 IR Inten    --     6.4613                 2.5894                 1.5784
 Raman Activ --     0.2660                 0.0816                 0.9735

                    16                     17                     18
                     A                      A                      A
 Frequencies --   218.0090               235.8709               264.1787
 Red. masses --     7.3862                 5.9236                 4.5074
 Frc consts  --     0.2068                 0.1942                 0.1853
 IR Inten    --     0.2452                 1.8986                15.1928
 Raman Activ --     2.6660                 0.0847                 0.3710

                    19                     20                     21
                     A                      A                      A
 Frequencies --   273.7881               287.9630               303.8308
 Red. masses --     4.6967                 5.3308                 5.1530
 Frc consts  --     0.2074                 0.2604                 0.2803
 IR Inten    --     1.9676                 2.5408                 4.6802
 Raman Activ --     0.4203                 0.5121                 1.8204

                    22                     23                     24
                     A                      A                      A
 Frequencies --   310.3970               318.8712               325.7528
 Red. masses --     5.5750                 5.1347                 5.6863
 Frc consts  --     0.3165                 0.3076                 0.3555
 IR Inten    --    10.8982                 2.3208                 3.7731
 Raman Activ --     0.1343                 1.3768                 3.6300

                    25                     26                     27
                     A                      A                      A
 Frequencies --   350.5302               375.0556               382.9525
 Red. masses --     6.8421                 5.4071                 6.3938
 Frc consts  --     0.4953                 0.4481                 0.5525
 IR Inten    --     8.1451                 4.4352                 0.4354
 Raman Activ --     3.1343                 0.4042                 0.8858

                    28                     29                     30
                     A                      A                      A
 Frequencies --   414.6435               417.6578               443.2535
 Red. masses --     4.9109                 6.0606                 5.6869
 Frc consts  --     0.4975                 0.6229                 0.6583
 IR Inten    --    10.5863                 7.1816                 0.1258
 Raman Activ --     4.9835                 4.1932                 2.1379

                    31                     32                     33
                     A                      A                      A
 Frequencies --   459.7679               495.9492               498.0798
 Red. masses --     4.7673                 3.5481                 4.1809
 Frc consts  --     0.5937                 0.5142                 0.6111
 IR Inten    --     3.3854                 4.7072                18.8073
 Raman Activ --     2.4245                 2.4611                 0.1991

                    34                     35                     36
                     A                      A                      A
 Frequencies --   524.6273               555.4055               576.0277
 Red. masses --     3.8475                 3.2342                 4.8402
 Frc consts  --     0.6239                 0.5878                 0.9462
 IR Inten    --    11.4232                10.7231                 5.3042
 Raman Activ --     2.1305                 3.8020                 1.1202

                    37                     38                     39
                     A                      A                      A
 Frequencies --   593.0113               606.1721               612.1178
 Red. masses --     3.4953                 3.6572                 4.4382
 Frc consts  --     0.7242                 0.7917                 0.9798
 IR Inten    --    21.0303                 4.7872                54.5911
 Raman Activ --     0.6684                 0.6401                 1.5361

                    40                     41                     42
                     A                      A                      A
 Frequencies --   654.2178               660.9828               688.6281
 Red. masses --     2.9291                 1.2578                 1.1358
 Frc consts  --     0.7386                 0.3238                 0.3173
 IR Inten    --     7.0653               118.5091               113.2458
 Raman Activ --     0.8609                 1.3710                 0.9997

                    43                     44                     45
                     A                      A                      A
 Frequencies --   702.7607               703.2734               776.8161
 Red. masses --     1.3653                 2.0899                 1.1095
 Frc consts  --     0.3973                 0.6090                 0.3945
 IR Inten    --    44.8523                60.6655                87.4032
 Raman Activ --     0.8024                 2.3933                 1.2983

                    46                     47                     48
                     A                      A                      A
 Frequencies --   847.0233               860.6843               864.8573
 Red. masses --     1.4543                 1.7396                 1.1727
 Frc consts  --     0.6147                 0.7592                 0.5168
 IR Inten    --    32.2300                 7.8984               100.9155
 Raman Activ --     0.9050                 0.6466                 2.6081

                    49                     50                     51
                     A                      A                      A
 Frequencies --   903.4133               919.3297               967.4868
 Red. masses --     1.3343                 3.3720                 3.5201
 Frc consts  --     0.6416                 1.6791                 1.9413
 IR Inten    --    87.8588                48.2282                94.5014
 Raman Activ --     1.2768                 1.8380                 1.7274

                    52                     53                     54
                     A                      A                      A
 Frequencies --   984.0304              1002.9029              1006.4240
 Red. masses --     4.8355                 4.2512                 6.8875
 Frc consts  --     2.7587                 2.5193                 4.1103
 IR Inten    --    42.0831                16.9398                82.3836
 Raman Activ --     1.7451                 4.1080                 2.6276

                    55                     56                     57
                     A                      A                      A
 Frequencies --  1024.5435              1036.3476              1039.4174
 Red. masses --     5.0642                 4.2768                 5.6311
 Frc consts  --     3.1320                 2.7063                 3.5845
 IR Inten    --   154.0720               321.1794                30.5897
 Raman Activ --     5.7210                 2.7687                 4.8338

                    58                     59                     60
                     A                      A                      A
 Frequencies --  1042.2678              1056.5916              1062.0140
 Red. masses --     3.5290                 4.7162                 3.7782
 Frc consts  --     2.2587                 3.1021                 2.5107
 IR Inten    --   122.7799               213.3749               176.3874
 Raman Activ --     1.6975                 1.1057                 7.4023

                    61                     62                     63
                     A                      A                      A
 Frequencies --  1065.8298              1083.5535              1085.1717
 Red. masses --     3.2190                 3.2898                 3.5629
 Frc consts  --     2.1545                 2.2757                 2.4720
 IR Inten    --   155.5976               131.6040                32.8225
 Raman Activ --     3.7127                12.1548                 2.8416

                    64                     65                     66
                     A                      A                      A
 Frequencies --  1098.0991              1103.3223              1108.0323
 Red. masses --     3.6700                 2.7129                 2.1193
 Frc consts  --     2.6073                 1.9458                 1.5330
 IR Inten    --     9.1062                 8.3430                 4.4504
 Raman Activ --     4.5450                 9.9722                10.8751

                    67                     68                     69
                     A                      A                      A
 Frequencies --  1114.9659              1120.9548              1122.2144
 Red. masses --     2.1614                 1.8789                 2.2749
 Frc consts  --     1.5831                 1.3910                 1.6879
 IR Inten    --    29.2088                63.0868                10.6648
 Raman Activ --     7.6327                 6.8226                 1.4442

                    70                     71                     72
                     A                      A                      A
 Frequencies --  1124.5404              1139.9412              1150.4337
 Red. masses --     1.8421                 2.3048                 2.1736
 Frc consts  --     1.3725                 1.7646                 1.6949
 IR Inten    --    92.4809                40.1577                 6.6109
 Raman Activ --     3.8297                 5.7469                 4.5090

                    73                     74                     75
                     A                      A                      A
 Frequencies --  1156.1407              1163.5484              1165.3673
 Red. masses --     2.9795                 2.0270                 1.5377
 Frc consts  --     2.3465                 1.6169                 1.2304
 IR Inten    --    44.9219                 3.6611                24.4128
 Raman Activ --     1.3599                 2.4745                 3.3762

                    76                     77                     78
                     A                      A                      A
 Frequencies --  1179.4596              1199.1574              1202.3809
 Red. masses --     1.4370                 1.5294                 1.4524
 Frc consts  --     1.1778                 1.2958                 1.2371
 IR Inten    --    27.9247                17.3483                 4.9579
 Raman Activ --     0.1771                 2.9168                 2.1120

                    79                     80                     81
                     A                      A                      A
 Frequencies --  1220.7023              1240.1312              1247.7770
 Red. masses --     1.2497                 1.2533                 1.2629
 Frc consts  --     1.0972                 1.1356                 1.1585
 IR Inten    --    11.9117                22.3554                 8.3217
 Raman Activ --     1.2039                 0.4239                 2.0219

                    82                     83                     84
                     A                      A                      A
 Frequencies --  1250.6134              1268.0046              1273.8993
 Red. masses --     1.4192                 1.2055                 1.2584
 Frc consts  --     1.3078                 1.1420                 1.2032
 IR Inten    --    19.8485                 6.6204                 8.2763
 Raman Activ --     0.4844                 6.6884                 3.6553

                    85                     86                     87
                     A                      A                      A
 Frequencies --  1291.0809              1291.5901              1297.7811
 Red. masses --     1.3918                 1.3207                 1.3515
 Frc consts  --     1.3669                 1.2981                 1.3411
 IR Inten    --    34.7840                10.0521                 6.2198
 Raman Activ --     2.0023                 2.7441                 4.1131

                    88                     89                     90
                     A                      A                      A
 Frequencies --  1305.6210              1315.1602              1327.0778
 Red. masses --     1.4298                 1.3618                 1.2674
 Frc consts  --     1.4360                 1.3877                 1.3151
 IR Inten    --    31.1268                 4.3103                40.0630
 Raman Activ --     4.5482                 6.6376                 5.8530

                    91                     92                     93
                     A                      A                      A
 Frequencies --  1335.1497              1339.7944              1340.9368
 Red. masses --     1.3250                 1.2538                 1.6318
 Frc consts  --     1.3916                 1.3261                 1.7287
 IR Inten    --    19.5263                29.3548                 3.2817
 Raman Activ --     2.7794                 5.8523                14.6752

                    94                     95                     96
                     A                      A                      A
 Frequencies --  1352.0696              1364.5615              1372.7904
 Red. masses --     1.7718                 1.1404                 1.3918
 Frc consts  --     1.9083                 1.2512                 1.5454
 IR Inten    --    21.7260                38.3415                30.6550
 Raman Activ --     6.7159                 4.3434                 4.4733

                    97                     98                     99
                     A                      A                      A
 Frequencies --  1375.8551              1377.8181              1393.7330
 Red. masses --     1.3010                 1.7621                 1.2619
 Frc consts  --     1.4511                 1.9709                 1.4442
 IR Inten    --     4.3441                 3.3254                27.8166
 Raman Activ --     4.2408                 2.2898                 2.6360

                   100                    101                    102
                     A                      A                      A
 Frequencies --  1403.5228              1430.2304              1467.9871
 Red. masses --     1.5505                 1.4297                 1.3097
 Frc consts  --     1.7996                 1.7230                 1.6628
 IR Inten    --    41.4320                 9.0261                37.6266
 Raman Activ --     2.0198                 0.5577                 3.3027

                   103                    104                    105
                     A                      A                      A
 Frequencies --  1479.6141              1482.1076              1486.2855
 Red. masses --     1.0932                 1.2832                 1.2528
 Frc consts  --     1.4101                 1.6608                 1.6306
 IR Inten    --    14.2661                27.6396                33.1503
 Raman Activ --     5.0706                 4.4036                 2.2460

                   106                    107                    108
                     A                      A                      A
 Frequencies --  1487.4503              1512.0432              3259.7117
 Red. masses --     1.1613                 1.3434                 1.0656
 Frc consts  --     1.5139                 1.8096                 6.6713
 IR Inten    --     2.6732                46.9211               691.3989
 Raman Activ --     3.0057                 0.9311                85.1628

                   109                    110                    111
                     A                      A                      A
 Frequencies --  3263.3020              3276.7285              3277.5216
 Red. masses --     1.0590                 1.0627                 1.0816
 Frc consts  --     6.6442                 6.7224                 6.8454
 IR Inten    --    34.2232               131.1210                18.9568
 Raman Activ --    70.9296               202.9560                86.7214

                   112                    113                    114
                     A                      A                      A
 Frequencies --  3287.7964              3298.4707              3301.0815
 Red. masses --     1.0840                 1.0857                 1.0852
 Frc consts  --     6.9038                 6.9594                 6.9673
 IR Inten    --     2.3315                 2.8488                14.3094
 Raman Activ --    97.9354                54.0978                39.3854

                   115                    116                    117
                     A                      A                      A
 Frequencies --  3304.5975              3310.2094              3315.8933
 Red. masses --     1.0862                 1.0893                 1.0892
 Frc consts  --     6.9888                 7.0325                 7.0560
 IR Inten    --    79.1906                23.5172                11.5513
 Raman Activ --    41.4973               136.3143                 6.9458

                   118                    119                    120
                     A                      A                      A
 Frequencies --  3317.1729              3324.4044              3326.9834
 Red. masses --     1.0966                 1.0874                 1.0944
 Frc consts  --     7.1094                 7.0807                 7.1370
 IR Inten    --     4.1693                45.5203                17.7211
 Raman Activ --    35.5787                24.8176                31.6816

                   121                    122                    123
                     A                      A                      A
 Frequencies --  3329.2516              3331.6445              3339.3407
 Red. masses --     1.0881                 1.0971                 1.0698
 Frc consts  --     7.1057                 7.1746                 7.0288
 IR Inten    --    84.6611                82.5264               564.6228
 Raman Activ --    10.7673                41.9443               141.8725

                   124                    125                    126
                     A                      A                      A
 Frequencies --  3376.5023              3382.8129              3392.4765
 Red. masses --     1.0643                 1.0689                 1.0664
 Frc consts  --     7.1489                 7.2068                 7.2314
 IR Inten    --    14.7635                37.3219                35.4571
 Raman Activ --    99.9441               126.4764               160.8433

                   127                    128                    129
                     A                      A                      A
 Frequencies --  3399.9901              3919.0308              3921.5952
 Red. masses --     1.0690                 1.0676                 1.0676
 Frc consts  --     7.2810                 9.6612                 9.6735
 IR Inten    --    78.8347                61.9455                81.1743
 Raman Activ --   157.5405               107.3103               109.4444

 - Thermochemistry -
 -------------------
 Temperature   298.150 Kelvin.  Pressure   1.00000 Atm.
 Atom     1 has atomic number  8 and mass  15.99491

 Molecular mass:   342.11621 amu.
 Principal axes and moments of inertia in atomic units:
                           1         2         3
     Eigenvalues --  4342.58016********************
           X            0.99998  -0.00647   0.00009
           Y            0.00647   0.99998  -0.00202
           Z           -0.00008   0.00202   1.00000
 This molecule is an asymmetric top.
 Rotational symmetry number  1.
 Warning -- assumption of classical behavior for rotation
           may cause significant error
 Rotational temperatures (Kelvin)      0.01995     0.00705     0.00536
 Rotational constants (GHZ):           0.41559     0.14698     0.11161
    7 imaginary frequencies ignored.
 Zero-point vibrational energy     977788.1 (Joules/Mol)
                                  233.69697 (Kcal/Mol)
 Warning -- explicit consideration of  32 degrees of freedom as
           vibrations may cause significant error
 Vibrational temperatures:     37.65    56.26    95.19   122.41   185.09
          (Kelvin)            215.96   253.36   263.48   313.67   339.37
                              380.09   393.92   414.31   437.14   446.59
                              458.78   468.69   504.33   539.62   550.98
                              596.58   600.92   637.74   661.50   713.56
                              716.62   754.82   799.10   828.77   853.21
                              872.15   880.70   941.27   951.01   990.78
                             1011.11  1011.85  1117.66  1218.68  1238.33
                             1244.34  1299.81  1322.71  1392.00  1415.80
                             1442.95  1448.02  1474.09  1491.07  1495.49
                             1499.59  1520.20  1528.00  1533.49  1558.99
                             1561.32  1579.92  1587.43  1594.21  1604.19
                             1612.80  1614.61  1617.96  1640.12  1655.22
                             1663.43  1674.08  1676.70  1696.98  1725.32
                             1729.96  1756.32  1784.27  1795.27  1799.35
                             1824.37  1832.85  1857.58  1858.31  1867.22
                             1878.50  1892.22  1909.37  1920.98  1927.66
                             1929.31  1945.32  1963.30  1975.14  1979.55
                             1982.37  2005.27  2019.35  2057.78  2112.10
                             2128.83  2132.42  2138.43  2140.11  2175.49
                             4689.99  4695.16  4714.48  4715.62  4730.40
                             4745.76  4749.51  4754.57  4762.65  4770.82
                             4772.67  4783.07  4786.78  4790.04  4793.49
                             4804.56  4858.03  4867.11  4881.01  4891.82
                             5638.60  5642.29

 Zero-point correction=                           0.372420 (Hartree/Particle)
 Thermal correction to Energy=                    0.390697
 Thermal correction to Enthalpy=                  0.391641
 Thermal correction to Gibbs Free Energy=         0.325990
 Sum of electronic and zero-point Energies=          -1297.553981
 Sum of electronic and thermal Energies=             -1297.535703
 Sum of electronic and thermal Enthalpies=           -1297.534759
 Sum of electronic and thermal Free Energies=        -1297.600411

                     E (Thermal)             CV                S
                      KCal/Mol        Cal/Mol-Kelvin    Cal/Mol-Kelvin
 Total                  245.166             75.421            138.176
 Electronic               0.000              0.000              0.000
 Translational            0.889              2.981             43.384
 Rotational               0.889              2.981             35.110
 Vibrational            243.389             69.460             59.682
 Vibration     1          0.593              1.985              6.100
 Vibration     2          0.594              1.981              5.304
 Vibration     3          0.598              1.970              4.265
 Vibration     4          0.601              1.960              3.770
 Vibration     5          0.611              1.925              2.966
 Vibration     6          0.618              1.903              2.671
 Vibration     7          0.628              1.872              2.369
 Vibration     8          0.631              1.863              2.296
 Vibration     9          0.646              1.814              1.976
 Vibration    10          0.655              1.786              1.834
 Vibration    11          0.671              1.739              1.634
 Vibration    12          0.676              1.722              1.572
 Vibration    13          0.685              1.696              1.486
 Vibration    14          0.695              1.666              1.396
 Vibration    15          0.699              1.654              1.360
 Vibration    16          0.705              1.637              1.316
 Vibration    17          0.710              1.624              1.281
 Vibration    18          0.727              1.574              1.164
 Vibration    19          0.746              1.523              1.059
 Vibration    20          0.752              1.507              1.027
 Vibration    21          0.778              1.438              0.910
 Vibration    22          0.781              1.432              0.900
 Vibration    23          0.803              1.376              0.816
 Vibration    24          0.818              1.339              0.767
 Vibration    25          0.852              1.259              0.668
 Vibration    26          0.854              1.254              0.663
 Vibration    27          0.880              1.195              0.599
 Vibration    28          0.911              1.128              0.533
 Vibration    29          0.932              1.083              0.493
 Vibration    30          0.951              1.047              0.462
 Vibration    31          0.965              1.019              0.439
 Vibration    32          0.971              1.006              0.429

 Normal termination of Gaussian 09 at Thu Jan 21 05:08:00 2016.
