 Gaussian 09, Revision B.01,
 Gaussian 09:  EM64L-G09RevB.01 12-Aug-2010

 --------------------------------------------------
 # freq=raman b3lyp/6-31+g(2df,p) geom=connectivity
 --------------------------------------------------

 ------------
 350 5000.com
 ------------
 Symbolic Z-matrix:
 Charge =  0 Multiplicity = 1

                         Standard orientation:
 ---------------------------------------------------------------------
 Center     Atomic      Atomic             Coordinates (Angstroms)
 Number     Number       Type             X           Y           Z
 ---------------------------------------------------------------------
      1          8           0        4.987677   -0.461005   -0.412631
      2          6           0        3.736819   -0.109091    0.196144
      3          6           0        3.240149    1.247477   -0.276707
      4          8           0        4.128988    2.332051    0.028294
      5          1           0        5.056857    1.960451    0.019005
      6          6           0        1.840543    1.525708    0.245530
      7          8           0        1.415018    2.770040   -0.326636
      8          1           0        0.459334    2.871962   -0.049210
      9          6           0        2.956605   -2.564952    0.122197
     10          8           0        4.184333   -3.294837   -0.014617
     11          1           0        4.049283   -4.285067    0.007197
     12          6           0        2.700631   -1.119391   -0.271131
     13          8           0        1.433878   -0.865350    0.352919
     14          6           0        0.920003    0.380159   -0.141350
     15          8           0       -0.237924    0.375623    0.707192
     16          6           0       -1.474970    0.229713   -0.004642
     17          6           0       -2.085652   -1.148454    0.193043
     18          8           0       -1.264057   -2.213417   -0.306535
     19          1           0       -0.327488   -1.869369   -0.371306
     20          6           0       -3.497099   -1.555414   -0.200936
     21          8           0       -3.963085   -2.756138    0.431937
     22          1           0       -4.845114   -3.072577    0.083100
     23          6           0       -2.113771    2.581841   -0.281444
     24          8           0       -1.134494    3.341096    0.442124
     25          1           0       -1.219370    4.328918    0.310890
     26          6           0       -2.517614    1.268945    0.371344
     27          8           0       -3.784850    0.984875   -0.239994
     28          6           0       -4.281874   -0.302959    0.152490
     29          8           0       -5.445919   -0.405854   -0.679965
     30          1           0       -6.222691   -0.530834   -0.129869
     31          1           0       -4.558545   -0.305454    1.186099
     32          1           0       -3.530989   -1.693635   -1.261429
     33          1           0       -2.072571   -1.272802    1.255712
     34          1           0       -1.263296    0.344962   -1.047145
     35          1           0       -2.607746    1.371684    1.432580
     36          1           0       -2.990377    3.184791   -0.395080
     37          1           0       -1.722258    2.367683   -1.253943
     38          1           0        5.623547   -0.686881    0.270193
     39          1           0        2.711807   -2.620221    1.162350
     40          1           0        2.593452   -1.053432   -1.333705
     41          1           0        3.820934   -0.126295    1.262694
     42          1           0        3.169482    1.196299   -1.343144
     43          1           0        1.869299    1.615124    1.311399
     44          1           0        0.677777    0.351900   -1.183188
     45          1           0        2.229530   -3.135385   -0.417124
 ---------------------------------------------------------------------

 SCF Done:  E(RB3LYP) =  -1297.99173966     A.U. after   13 cycles

 The electronic state is 1-A.
 Alpha  occ. eigenvalues --  -19.18932 -19.18624 -19.18384 -19.18371 -19.17026
 Alpha  occ. eigenvalues --  -19.16751 -19.16723 -19.15661 -19.15035 -19.14313
 Alpha  occ. eigenvalues --  -19.13790 -10.30685 -10.29895 -10.26137 -10.26049
 Alpha  occ. eigenvalues --  -10.25330 -10.25262 -10.24990 -10.24907 -10.24165
 Alpha  occ. eigenvalues --  -10.23865 -10.23845 -10.23640  -1.10749  -1.09143
 Alpha  occ. eigenvalues --   -1.05468  -1.05019  -1.03789  -1.03548  -1.02390
 Alpha  occ. eigenvalues --   -1.02059  -1.01811  -1.00845  -1.00178  -0.82269
 Alpha  occ. eigenvalues --   -0.80292  -0.79572  -0.78224  -0.71943  -0.69820
 Alpha  occ. eigenvalues --   -0.67004  -0.65622  -0.63827  -0.62062  -0.61556
 Alpha  occ. eigenvalues --   -0.60341  -0.56619  -0.56275  -0.54976  -0.54440
 Alpha  occ. eigenvalues --   -0.53701  -0.53491  -0.53091  -0.51950  -0.51068
 Alpha  occ. eigenvalues --   -0.50741  -0.50021  -0.49019  -0.48371  -0.46307
 Alpha  occ. eigenvalues --   -0.45899  -0.45295  -0.43778  -0.43454  -0.42529
 Alpha  occ. eigenvalues --   -0.42429  -0.41462  -0.40521  -0.40453  -0.39371
 Alpha  occ. eigenvalues --   -0.39091  -0.37754  -0.37454  -0.36124  -0.36025
 Alpha  occ. eigenvalues --   -0.35416  -0.35179  -0.35098  -0.34796  -0.33814
 Alpha  occ. eigenvalues --   -0.32400  -0.31647  -0.31337  -0.30781  -0.29943
 Alpha  occ. eigenvalues --   -0.28807  -0.28730  -0.28190  -0.27711  -0.26909
 Alpha  occ. eigenvalues --   -0.26061
 Alpha virt. eigenvalues --   -0.01892  -0.01715  -0.01670  -0.00558   0.00144
 Alpha virt. eigenvalues --    0.00529   0.01856   0.02408   0.02758   0.03293
 Alpha virt. eigenvalues --    0.03892   0.04268   0.04622   0.05157   0.05831

 Mulliken atomic charges:
              1
     1  O   -0.428262
     2  C   -0.159223
     3  C    0.019177
     4  O   -0.464752
     5  H    0.344274
     6  C   -0.124815
     7  O   -0.479888
     8  H    0.433159
     9  C   -0.363645
    10  O   -0.493789
    11  H    0.354431
    12  C    0.093521
    13  O   -0.024200
    14  C   -0.189534
    15  O    0.020762
    16  C    0.291765
    17  C    0.197585
    18  O   -0.479650
    19  H    0.365570
    20  C   -0.149158
    21  O   -0.462049
    22  H    0.350901
    23  C   -0.258610
    24  O   -0.507310
    25  H    0.373167
    26  C   -0.431828
    27  O   -0.003839
    28  C    0.039421
    29  O   -0.478738
    30  H    0.340693
    31  H    0.134879
    32  H    0.148558
    33  H    0.129125
    34  H    0.107571
    35  H    0.142061
    36  H    0.150905
    37  H    0.155637
    38  H    0.352226
    39  H    0.150483
    40  H    0.117900
    41  H    0.134526
    42  H    0.125078
    43  H    0.140432
    44  H    0.144662
    45  H    0.140818
 Sum of Mulliken atomic charges =   0.00000

 Dipole moment (field-independent basis, Debye):
    X=             -2.7865    Y=             -0.2351    Z=              1.2909  Tot=              3.0800
 Quadrupole moment (field-independent basis, Debye-Ang):
   XX=           -120.9830   YY=           -135.3691   ZZ=           -139.9396
   XY=            -12.9014   XZ=              0.7877   YZ=              1.5892

  Exact polarizability: 232.402   2.466 199.553   0.636   0.005 143.029
 Approx polarizability: 272.532   2.778 260.725   1.164  -0.449 240.116

 ******    7 imaginary frequencies (negative Signs) ******

                     1                      2                      3
                     A                      A                      A
 Frequencies --  -331.3330              -275.6653              -220.0281
 Red. masses --     1.6722                 1.1766                 1.1617
 Frc consts  --     0.1082                 0.0527                 0.0331
 IR Inten    --     4.5416               105.4358               107.3606
 Raman Activ --     0.0519                 1.2851                 0.7385

                     4                      5                      6
                     A                      A                      A
 Frequencies --  -197.5090              -101.9060               -54.3533
 Red. masses --     2.0295                 5.9429                 6.1897
 Frc consts  --     0.0466                 0.0364                 0.0108
 IR Inten    --     6.1171                 0.5818                 0.1173
 Raman Activ --     0.0594                 0.0661                 0.0159

                     7                      8                      9
                     A                      A                      A
 Frequencies --   -12.6907                29.9634                66.3400
 Red. masses --     5.8184                 7.0693                 6.3787
 Frc consts  --     0.0006                 0.0037                 0.0165
 IR Inten    --     2.0480                 0.2543                 0.8597
 Raman Activ --     0.0637                 0.0555                 0.1524

                    10                     11                     12
                     A                      A                      A
 Frequencies --    80.2057               102.5967               116.9227
 Red. masses --     6.5993                 6.5042                 6.1502
 Frc consts  --     0.0250                 0.0403                 0.0495
 IR Inten    --     2.7874                 1.0362                 0.6584
 Raman Activ --     0.1231                 0.1753                 0.0769

                    13                     14                     15
                     A                      A                      A
 Frequencies --   146.0601               166.0691               183.2507
 Red. masses --     6.7448                 6.0424                 7.5811
 Frc consts  --     0.0848                 0.0982                 0.1500
 IR Inten    --     3.9609                 4.0658                 2.5337
 Raman Activ --     0.4578                 0.4491                 0.3984

                    16                     17                     18
                     A                      A                      A
 Frequencies --   202.9413               237.3565               267.8291
 Red. masses --     6.9706                 5.6716                 4.6851
 Frc consts  --     0.1691                 0.1883                 0.1980
 IR Inten    --     0.5053                 0.6569                 5.2098
 Raman Activ --     1.5423                 0.9246                 0.1785

                    19                     20                     21
                     A                      A                      A
 Frequencies --   281.4603               288.1087               301.2210
 Red. masses --     5.3752                 4.5232                 5.5203
 Frc consts  --     0.2509                 0.2212                 0.2951
 IR Inten    --     3.8582                 9.2210                 1.8218
 Raman Activ --     0.1820                 0.7013                 0.6109

                    22                     23                     24
                     A                      A                      A
 Frequencies --   302.6909               321.2976               326.2926
 Red. masses --     6.3687                 5.9786                 6.4536
 Frc consts  --     0.3438                 0.3636                 0.4048
 IR Inten    --     7.0755                 1.6386                 3.9116
 Raman Activ --     1.0002                 0.6045                 3.9211

                    25                     26                     27
                     A                      A                      A
 Frequencies --   341.2392               361.1855               367.3333
 Red. masses --     6.6909                 4.4929                 7.0403
 Frc consts  --     0.4590                 0.3453                 0.5597
 IR Inten    --     8.9203                 3.2155                 2.7214
 Raman Activ --     3.5116                 0.5860                 3.7691

                    28                     29                     30
                     A                      A                      A
 Frequencies --   413.3103               428.7101               433.9653
 Red. masses --     4.6090                 5.1531                 6.1650
 Frc consts  --     0.4639                 0.5580                 0.6841
 IR Inten    --    16.2698                 6.0974                 3.7143
 Raman Activ --     1.9190                 1.2276                 3.6722

                    31                     32                     33
                     A                      A                      A
 Frequencies --   464.3481               481.6030               497.5714
 Red. masses --     4.3535                 4.7044                 5.1189
 Frc consts  --     0.5531                 0.6429                 0.7467
 IR Inten    --     3.4204                 7.2875                 8.0222
 Raman Activ --     4.1667                 3.0226                 1.6783

                    34                     35                     36
                     A                      A                      A
 Frequencies --   521.4279               537.4025               565.1354
 Red. masses --     3.0574                 3.1435                 4.0280
 Frc consts  --     0.4898                 0.5349                 0.7579
 IR Inten    --    12.2940                 8.2314                14.6972
 Raman Activ --     1.4487                 3.3923                 1.3794

                    37                     38                     39
                     A                      A                      A
 Frequencies --   588.6615               596.5618               631.4554
 Red. masses --     3.9035                 3.5582                 4.6268
 Frc consts  --     0.7970                 0.7461                 1.0870
 IR Inten    --    11.7899                22.6377                 6.2458
 Raman Activ --     0.3799                 0.5807                 0.3212

                    40                     41                     42
                     A                      A                      A
 Frequencies --   643.1031               653.9272               685.6985
 Red. masses --     2.7746                 1.2515                 1.0502
 Frc consts  --     0.6761                 0.3153                 0.2909
 IR Inten    --    34.4481               106.2158                95.5984
 Raman Activ --     1.5364                 1.9010                 2.0766

                    43                     44                     45
                     A                      A                      A
 Frequencies --   711.1906               716.6175               719.3504
 Red. masses --     2.4514                 1.1382                 1.2846
 Frc consts  --     0.7305                 0.3444                 0.3916
 IR Inten    --    20.7575                71.6965               110.2672
 Raman Activ --     3.0010                 1.1990                 1.4488

                    46                     47                     48
                     A                      A                      A
 Frequencies --   723.4233               844.4638               869.8977
 Red. masses --     1.1198                 1.7692                 1.5570
 Frc consts  --     0.3453                 0.7433                 0.6942
 IR Inten    --    79.3085                 2.6246                 6.3095
 Raman Activ --     1.3926                 1.7502                 0.3540

                    49                     50                     51
                     A                      A                      A
 Frequencies --   912.5397               934.0794               956.5902
 Red. masses --     1.1672                 5.9304                 5.2173
 Frc consts  --     0.5726                 3.0486                 2.8128
 IR Inten    --    54.1733               116.3577               142.4351
 Raman Activ --     0.2156                 2.5370                 0.3551

                    52                     53                     54
                     A                      A                      A
 Frequencies --   971.6818               992.7503               994.3667
 Red. masses --     5.6339                 5.9197                 5.8202
 Frc consts  --     3.1340                 3.4374                 3.3906
 IR Inten    --    17.3657                98.2831                33.2774
 Raman Activ --     2.4462                 1.6656                 1.7083

                    55                     56                     57
                     A                      A                      A
 Frequencies --  1003.5457              1010.5362              1023.8891
 Red. masses --     4.6130                 5.9620                 5.3050
 Frc consts  --     2.7372                 3.5871                 3.2768
 IR Inten    --   328.8573                35.2453                83.6551
 Raman Activ --     5.6657                 1.0724                 2.7497

                    58                     59                     60
                     A                      A                      A
 Frequencies --  1039.4664              1053.5723              1063.9780
 Red. masses --     6.7999                 4.0856                 4.5433
 Frc consts  --     4.3289                 2.6720                 3.0303
 IR Inten    --   207.3836               160.7766                79.4924
 Raman Activ --     2.8422                 5.6037                 5.5775

                    61                     62                     63
                     A                      A                      A
 Frequencies --  1072.4056              1076.2735              1083.3265
 Red. masses --     2.9231                 6.2800                 4.7474
 Frc consts  --     1.9807                 4.2861                 3.2826
 IR Inten    --     5.6306               116.7420                36.1714
 Raman Activ --    27.5007                 1.8417                 3.2106

                    64                     65                     66
                     A                      A                      A
 Frequencies --  1092.6614              1098.0104              1105.6323
 Red. masses --     2.4348                 2.7545                 2.1978
 Frc consts  --     1.7127                 1.9566                 1.5829
 IR Inten    --    37.0025                48.9584                53.3588
 Raman Activ --     1.3822                 6.6470                 7.2351

                    67                     68                     69
                     A                      A                      A
 Frequencies --  1107.9761              1123.0760              1131.7858
 Red. masses --     2.5289                 2.5570                 2.2329
 Frc consts  --     1.8291                 1.9002                 1.6852
 IR Inten    --     2.5064                32.4154                50.0952
 Raman Activ --     6.4963                 4.5917                 8.1774

                    70                     71                     72
                     A                      A                      A
 Frequencies --  1136.2730              1144.8974              1149.2026
 Red. masses --     2.6283                 1.5155                 2.2812
 Frc consts  --     1.9993                 1.1704                 1.7750
 IR Inten    --    33.1933                 6.6502                 8.1683
 Raman Activ --     3.3719                 1.5409                 2.9006

                    73                     74                     75
                     A                      A                      A
 Frequencies --  1162.4695              1170.6304              1178.1376
 Red. masses --     2.1827                 2.7577                 1.8124
 Frc consts  --     1.7378                 2.2266                 1.4822
 IR Inten    --     2.3043                 8.1918                39.7770
 Raman Activ --     5.1625                 2.8397                 1.1031

                    76                     77                     78
                     A                      A                      A
 Frequencies --  1199.6347              1202.9238              1219.6352
 Red. masses --     1.3337                 1.3215                 1.2582
 Frc consts  --     1.1309                 1.1267                 1.1027
 IR Inten    --    27.8856                16.9265                 1.2704
 Raman Activ --     5.2569                 0.9699                 1.6918

                    79                     80                     81
                     A                      A                      A
 Frequencies --  1222.3331              1230.4151              1239.7742
 Red. masses --     1.3044                 1.3447                 1.2449
 Frc consts  --     1.1483                 1.1994                 1.1274
 IR Inten    --    20.8094                 1.6795                35.0661
 Raman Activ --     1.6902                 1.3159                 0.7414

                    82                     83                     84
                     A                      A                      A
 Frequencies --  1262.5729              1269.8802              1280.5445
 Red. masses --     1.2289                 1.1985                 1.3873
 Frc consts  --     1.1542                 1.1387                 1.3404
 IR Inten    --     9.2872                 5.1789                20.7326
 Raman Activ --     1.7395                 3.4265                 1.4379

                    85                     86                     87
                     A                      A                      A
 Frequencies --  1289.2811              1294.7005              1295.7259
 Red. masses --     1.2868                 1.3580                 1.3480
 Frc consts  --     1.2602                 1.3412                 1.3334
 IR Inten    --    47.4823                13.7052                38.2903
 Raman Activ --     5.3443                 3.3139                 2.0288

                    88                     89                     90
                     A                      A                      A
 Frequencies --  1306.4818              1309.4464              1324.3014
 Red. masses --     1.1595                 1.2685                 1.2835
 Frc consts  --     1.1661                 1.2815                 1.3263
 IR Inten    --     7.9008                 0.6923                19.6576
 Raman Activ --    10.1402                 5.8406                 4.6595

                    91                     92                     93
                     A                      A                      A
 Frequencies --  1331.9504              1335.0025              1344.9016
 Red. masses --     1.3490                 1.3554                 1.4054
 Frc consts  --     1.4101                 1.4232                 1.4977
 IR Inten    --    47.6704                22.5285                 2.9326
 Raman Activ --     2.3708                 3.9443                 4.3596

                    94                     95                     96
                     A                      A                      A
 Frequencies --  1348.2327              1355.0190              1361.8422
 Red. masses --     1.1921                 1.1406                 1.5821
 Frc consts  --     1.2767                 1.2339                 1.7288
 IR Inten    --    39.1645                12.1953                16.3907
 Raman Activ --     4.6041                 3.5223                 5.3466

                    97                     98                     99
                     A                      A                      A
 Frequencies --  1368.0652              1387.5277              1391.8335
 Red. masses --     1.5005                 1.6221                 1.3699
 Frc consts  --     1.6547                 1.8400                 1.5636
 IR Inten    --     6.4646                11.0281                14.5420
 Raman Activ --     5.3655                 2.4528                 2.6134

                   100                    101                    102
                     A                      A                      A
 Frequencies --  1399.0785              1431.9634              1435.1536
 Red. masses --     1.3047                 1.4017                 1.4308
 Frc consts  --     1.5047                 1.6935                 1.7363
 IR Inten    --     1.4735                32.0492                38.2293
 Raman Activ --    12.9923                 1.3828                 0.6938

                   103                    104                    105
                     A                      A                      A
 Frequencies --  1444.8390              1458.4206              1477.7909
 Red. masses --     1.1489                 1.2535                 1.0817
 Frc consts  --     1.4131                 1.5708                 1.3918
 IR Inten    --     4.5861                 3.3588                 4.9078
 Raman Activ --     5.0850                 0.8483                 3.9365

                   106                    107                    108
                     A                      A                      A
 Frequencies --  1491.3479              1523.9836              3230.4706
 Red. masses --     1.2885                 1.2227                 1.0683
 Frc consts  --     1.6884                 1.6731                 6.5684
 IR Inten    --    46.1386                43.9686               781.3391
 Raman Activ --     1.4274                 0.4852               151.3065

                   109                    110                    111
                     A                      A                      A
 Frequencies --  3248.3491              3252.0034              3260.5028
 Red. masses --     1.0571                 1.0780                 1.0629
 Frc consts  --     6.5721                 6.7172                 6.6576
 IR Inten    --    44.1908                27.1277                15.5957
 Raman Activ --    75.6563                40.9892               172.1462

                   112                    113                    114
                     A                      A                      A
 Frequencies --  3265.7514              3269.2811              3272.7334
 Red. masses --     1.0828                 1.0817                 1.0828
 Frc consts  --     6.8042                 6.8115                 6.8334
 IR Inten    --    15.6697                20.3679                 2.2425
 Raman Activ --    11.1425                50.2261               115.1984

                   115                    116                    117
                     A                      A                      A
 Frequencies --  3280.8997              3286.2833              3290.4137
 Red. masses --     1.0850                 1.0850                 1.0861
 Frc consts  --     6.8811                 6.9040                 6.9281
 IR Inten    --     8.4189                 3.4402                 5.3940
 Raman Activ --    93.6771                57.4534               112.1557

                   118                    119                    120
                     A                      A                      A
 Frequencies --  3291.9297              3297.6203              3300.3916
 Red. masses --     1.0859                 1.0868                 1.0894
 Frc consts  --     6.9335                 6.9629                 6.9916
 IR Inten    --     2.6128                39.3090                55.3611
 Raman Activ --    12.9896                13.6934                 9.7912

                   121                    122                    123
                     A                      A                      A
 Frequencies --  3308.1069              3319.9035              3334.3558
 Red. masses --     1.1012                 1.1061                 1.0667
 Frc consts  --     7.1003                 7.1829                 6.9871
 IR Inten    --    75.7151                42.0548               209.5919
 Raman Activ --    21.2684                32.1082               171.9625

                   124                    125                    126
                     A                      A                      A
 Frequencies --  3358.3990              3359.9408              3362.0110
 Red. masses --     1.0658                 1.0684                 1.0688
 Frc consts  --     7.0829                 7.1065                 7.1177
 IR Inten    --    27.5103                61.3210                88.2122
 Raman Activ --    93.4968               181.1841               117.1894

                   127                    128                    129
                     A                      A                      A
 Frequencies --  3362.8328              3874.7592              3877.0714
 Red. masses --     1.0672                 1.0674                 1.0675
 Frc consts  --     7.1103                 9.4420                 9.4545
 IR Inten    --    36.2708                57.6619                74.3757
 Raman Activ --   218.0609               119.3376                94.5403

 - Thermochemistry -
 -------------------
 Temperature   298.150 Kelvin.  Pressure   1.00000 Atm.
 Atom     1 has atomic number  8 and mass  15.99491

 Molecular mass:   342.11621 amu.
 Principal axes and moments of inertia in atomic units:
                           1         2         3
     Eigenvalues --  4468.20248********************
           X            0.99998  -0.00651   0.00004
           Y            0.00651   0.99998  -0.00114
           Z           -0.00003   0.00114   1.00000
 This molecule is an asymmetric top.
 Rotational symmetry number  1.
 Warning -- assumption of classical behavior for rotation
           may cause significant error
 Rotational temperatures (Kelvin)      0.01938     0.00707     0.00531
 Rotational constants (GHZ):           0.40391     0.14729     0.11064
    7 imaginary frequencies ignored.
 Zero-point vibrational energy     972244.3 (Joules/Mol)
                                  232.37197 (Kcal/Mol)
 Warning -- explicit consideration of  31 degrees of freedom as
           vibrations may cause significant error
 Vibrational temperatures:     43.11    95.45   115.40   147.61   168.23
          (Kelvin)            210.15   238.94   263.66   291.99   341.50
                              385.35   404.96   414.52   433.39   435.50
                              462.27   469.46   490.97   519.66   528.51
                              594.66   616.82   624.38   668.09   692.92
                              715.89   750.22   773.20   813.10   846.95
                              858.32   908.52   925.28   940.85   986.57
                             1023.24  1031.05  1034.98  1040.84  1214.99
                             1251.59  1312.94  1343.93  1376.32  1398.03
                             1428.34  1430.67  1443.88  1453.93  1473.15
                             1495.56  1515.85  1530.83  1542.95  1548.52
                             1558.66  1572.09  1579.79  1590.76  1594.13
                             1615.85  1628.39  1634.84  1647.25  1653.44
                             1672.53  1684.27  1695.08  1726.00  1730.74
                             1754.78  1758.66  1770.29  1783.76  1816.56
                             1827.07  1842.42  1854.99  1862.78  1864.26
                             1879.73  1884.00  1905.37  1916.38  1920.77
                             1935.01  1939.80  1949.57  1959.38  1968.34
                             1996.34  2002.54  2012.96  2060.27  2064.86
                             2078.80  2098.34  2126.21  2145.71  2192.67
                             4647.92  4673.64  4678.90  4691.13  4698.68
                             4703.76  4708.73  4720.48  4728.22  4734.17
                             4736.35  4744.53  4748.52  4759.62  4776.59
                             4797.39  4831.98  4834.20  4837.18  4838.36
                             5574.91  5578.23

 Zero-point correction=                           0.370308 (Hartree/Particle)
 Thermal correction to Energy=                    0.388656
 Thermal correction to Enthalpy=                  0.389600
 Thermal correction to Gibbs Free Energy=         0.324491
 Sum of electronic and zero-point Energies=          -1297.621431
 Sum of electronic and thermal Energies=             -1297.603084
 Sum of electronic and thermal Enthalpies=           -1297.602140
 Sum of electronic and thermal Free Energies=        -1297.667249

                     E (Thermal)             CV                S
                      KCal/Mol        Cal/Mol-Kelvin    Cal/Mol-Kelvin
 Total                  243.885             76.003            137.033
 Electronic               0.000              0.000              0.000
 Translational            0.889              2.981             43.384
 Rotational               0.889              2.981             35.145
 Vibrational            242.108             70.042             58.504
 Vibration     1          0.594              1.984              5.832
 Vibration     2          0.598              1.970              4.259
 Vibration     3          0.600              1.963              3.886
 Vibration     4          0.605              1.947              3.404
 Vibration     5          0.608              1.935              3.151
 Vibration     6          0.617              1.907              2.723
 Vibration     7          0.624              1.884              2.480
 Vibration     8          0.631              1.863              2.295
 Vibration     9          0.639              1.836              2.106
 Vibration    10          0.656              1.783              1.823
 Vibration    11          0.673              1.732              1.610
 Vibration    12          0.681              1.708              1.525
 Vibration    13          0.685              1.696              1.485
 Vibration    14          0.693              1.671              1.410
 Vibration    15          0.694              1.669              1.402
 Vibration    16          0.707              1.633              1.303
 Vibration    17          0.710              1.623              1.278
 Vibration    18          0.721              1.593              1.206
 Vibration    19          0.735              1.552              1.117
 Vibration    20          0.740              1.539              1.091
 Vibration    21          0.777              1.441              0.915
 Vibration    22          0.790              1.408              0.863
 Vibration    23          0.795              1.396              0.846
 Vibration    24          0.822              1.329              0.754
 Vibration    25          0.838              1.291              0.706
 Vibration    26          0.853              1.255              0.664
 Vibration    27          0.876              1.203              0.607
 Vibration    28          0.892              1.167              0.571
 Vibration    29          0.921              1.107              0.514
 Vibration    30          0.946              1.056              0.470
 Vibration    31          0.954              1.039              0.456

 Normal termination of Gaussian 09 at Fri Feb 12 12:26:31 2016.
