 Gaussian 09, Revision B.01,
 Gaussian 09:  EM64L-G09RevB.01 12-Aug-2010

 -------------------------------------------------
 # freq=raman b3lyp/6-31+g(2d,p) geom=connectivity
 -------------------------------------------------

 -----------------
 500 5899/5899.com
 -----------------
 Symbolic Z-matrix:
 Charge =  0 Multiplicity = 1

                         Standard orientation:
 ---------------------------------------------------------------------
 Center     Atomic      Atomic             Coordinates (Angstroms)
 Number     Number       Type             X           Y           Z
 ---------------------------------------------------------------------
      1          8           0       -4.951836    0.670067   -0.484211
      2          6           0       -3.697016    0.196364    0.023809
      3          6           0       -3.340220   -1.253038   -0.261652
      4          8           0       -4.201786   -2.247819    0.310468
      5          1           0       -5.157807   -2.338842    0.032469
      6          6           0       -1.899386   -1.379872    0.206449
      7          8           0       -1.530107   -2.749157   -0.015456
      8          1           0       -2.286788   -3.268516    0.380620
      9          6           0       -3.040425    2.518889    0.293613
     10          8           0       -2.002704    3.492347    0.106812
     11          1           0       -2.267164    4.223331    0.736297
     12          6           0       -2.755887    1.262334   -0.513013
     13          8           0       -1.409411    0.999318   -0.093697
     14          6           0       -0.897810   -0.332775   -0.251380
     15          8           0        0.195366   -0.380851    0.677207
     16          6           0        1.443828   -0.273032   -0.023376
     17          6           0        1.878598    1.159297    0.244587
     18          8           0        1.024206    2.251247   -0.125110
     19          1           0        0.042809    2.098067   -0.010787
     20          6           0        3.327146    1.293954   -0.195406
     21          8           0        3.661208    2.656933    0.107048
     22          1           0        2.752718    3.026186   -0.090161
     23          6           0        1.914098   -2.752747    0.492047
     24          8           0        1.408016   -3.151177   -0.790917
     25          1           0        0.456011   -3.428240   -0.664222
     26          6           0        2.408008   -1.315721    0.516201
     27          8           0        3.722215   -1.139758   -0.031166
     28          6           0        4.259358    0.167083    0.217990
     29          8           0        5.383156    0.200293   -0.674224
     30          1           0        6.152843   -0.166687   -0.233195
     31          1           0        4.571553    0.271721    1.236069
     32          1           0        3.303453    1.244173   -1.263985
     33          1           0        1.919173    1.222032    1.311975
     34          1           0        1.290283   -0.420737   -1.071949
     35          1           0        2.509469   -1.082004    1.555423
     36          1           0        1.135035   -2.860702    1.217517
     37          1           0        2.724253   -3.399194    0.757859
     38          1           0       -3.101319    2.264480    1.331143
     39          1           0       -3.974202    2.935355   -0.021849
     40          1           0       -2.845277    1.416039   -1.568136
     41          1           0       -5.627818    0.571668    0.190301
     42          1           0       -3.724553    0.304670    1.087957
     43          1           0       -3.352193   -1.388065   -1.323030
     44          1           0       -1.940547   -1.268394    1.269829
     45          1           0       -0.568244   -0.512300   -1.253407
 ---------------------------------------------------------------------

 SCF Done:  E(RB3LYP) =  -1297.97112897     A.U. after   14 cycles

 The electronic state is 1-A.
 Alpha  occ. eigenvalues --  -19.19881 -19.19020 -19.18871 -19.18096 -19.17750
 Alpha  occ. eigenvalues --  -19.17114 -19.15628 -19.15086 -19.14481 -19.13897
 Alpha  occ. eigenvalues --  -19.12985 -10.31818 -10.28953 -10.27493 -10.27138
 Alpha  occ. eigenvalues --  -10.27048 -10.26861 -10.24920 -10.23996 -10.23893
 Alpha  occ. eigenvalues --  -10.23006 -10.22737 -10.22578  -1.10652  -1.07491
 Alpha  occ. eigenvalues --   -1.06893  -1.06457  -1.04892  -1.04055  -1.03229
 Alpha  occ. eigenvalues --   -1.02392  -1.00885  -0.99928  -0.99091  -0.83073
 Alpha  occ. eigenvalues --   -0.82188  -0.78520  -0.76943  -0.72152  -0.69477
 Alpha  occ. eigenvalues --   -0.68255  -0.65149  -0.64575  -0.62632  -0.61244
 Alpha  occ. eigenvalues --   -0.59180  -0.57508  -0.56981  -0.55661  -0.54416
 Alpha  occ. eigenvalues --   -0.54077  -0.53114  -0.52438  -0.52046  -0.51173
 Alpha  occ. eigenvalues --   -0.50333  -0.49999  -0.48710  -0.47691  -0.46534
 Alpha  occ. eigenvalues --   -0.46111  -0.45245  -0.44765  -0.44254  -0.43634
 Alpha  occ. eigenvalues --   -0.42587  -0.42147  -0.40199  -0.39947  -0.39538
 Alpha  occ. eigenvalues --   -0.38977  -0.37841  -0.37449  -0.36888  -0.36484
 Alpha  occ. eigenvalues --   -0.35769  -0.34882  -0.34638  -0.34175  -0.33565
 Alpha  occ. eigenvalues --   -0.33210  -0.31682  -0.30886  -0.30132  -0.30036
 Alpha  occ. eigenvalues --   -0.29257  -0.29160  -0.27717  -0.26939  -0.26520
 Alpha  occ. eigenvalues --   -0.25106
 Alpha virt. eigenvalues --   -0.04195  -0.02190  -0.00891  -0.00380   0.00765
 Alpha virt. eigenvalues --    0.00870   0.01698   0.02396   0.03323   0.03476
 Alpha virt. eigenvalues --    0.03998   0.04627   0.05100   0.05377   0.05949

 Mulliken atomic charges:
              1
     1  O   -0.533072
     2  C   -0.136227
     3  C    0.230964
     4  O   -0.626099
     5  H    0.361108
     6  C    0.084871
     7  O   -0.621281
     8  H    0.375345
     9  C   -0.247131
    10  O   -0.509085
    11  H    0.332780
    12  C    0.214745
    13  O   -0.256072
    14  C    0.111684
    15  O   -0.213461
    16  C    0.354522
    17  C    0.085229
    18  O   -0.633348
    19  H    0.422094
    20  C   -0.022253
    21  O   -0.559056
    22  H    0.373171
    23  C   -0.436636
    24  O   -0.491885
    25  H    0.355674
    26  C    0.075337
    27  O   -0.278565
    28  C    0.216802
    29  O   -0.484904
    30  H    0.321009
    31  H    0.123834
    32  H    0.128370
    33  H    0.108684
    34  H    0.117301
    35  H    0.102905
    36  H    0.155767
    37  H    0.145557
    38  H    0.131960
    39  H    0.159248
    40  H    0.130156
    41  H    0.329387
    42  H    0.109389
    43  H    0.125001
    44  H    0.135507
    45  H    0.130673
 Sum of Mulliken atomic charges =   0.00000

 Dipole moment (field-independent basis, Debye):
    X=             -9.7260    Y=             -1.6907    Z=              3.9523  Tot=             10.6336
 Quadrupole moment (field-independent basis, Debye-Ang):
   XX=           -116.5011   YY=           -144.1585   ZZ=           -138.1908
   XY=             -7.7892   XZ=              4.5510   YZ=             -0.0557

  Exact polarizability: 229.957   2.539 196.731   1.192  -0.083 144.331
 Approx polarizability: 273.955   1.154 257.738   0.403   0.927 241.139

 ******    7 imaginary frequencies (negative Signs) ******

                     1                      2                      3
                     A                      A                      A
 Frequencies --  -222.4918              -213.8525              -154.9847
 Red. masses --     1.0885                 1.9781                 1.8395
 Frc consts  --     0.0317                 0.0533                 0.0260
 IR Inten    --   100.1522                 1.9290                 1.7316
 Raman Activ --     1.9574                 0.0901                 0.1390

                     4                      5                      6
                     A                      A                      A
 Frequencies --   -94.2743               -84.9199               -50.2589
 Red. masses --     6.0323                 6.1442                 7.0771
 Frc consts  --     0.0316                 0.0261                 0.0105
 IR Inten    --     0.2082                 0.7149                 3.2262
 Raman Activ --     0.0486                 0.0149                 0.0585

                     7                      8                      9
                     A                      A                      A
 Frequencies --    -6.9130                27.2025                62.5751
 Red. masses --     5.8629                 5.5436                 5.6021
 Frc consts  --     0.0002                 0.0024                 0.0129
 IR Inten    --     3.6300                 2.4549                11.5817
 Raman Activ --     0.0590                 0.0808                 0.2784

                    10                     11                     12
                     A                      A                      A
 Frequencies --    80.8778                89.5443               102.4470
 Red. masses --     1.3115                 5.5688                 5.9881
 Frc consts  --     0.0051                 0.0263                 0.0370
 IR Inten    --   100.4646                 7.2546                 0.2132
 Raman Activ --     0.6616                 0.1177                 0.1864

                    13                     14                     15
                     A                      A                      A
 Frequencies --   116.2837               173.2151               181.9524
 Red. masses --     5.1726                 5.8104                 6.1523
 Frc consts  --     0.0412                 0.1027                 0.1200
 IR Inten    --     1.2710                 3.2921                 1.2434
 Raman Activ --     0.2212                 0.0931                 0.8038

                    16                     17                     18
                     A                      A                      A
 Frequencies --   188.2049               228.0034               243.0468
 Red. masses --     6.0298                 5.8868                 5.1661
 Frc consts  --     0.1258                 0.1803                 0.1798
 IR Inten    --     7.0113                 3.8033                 3.9132
 Raman Activ --     0.3242                 1.1818                 1.6497

                    19                     20                     21
                     A                      A                      A
 Frequencies --   257.0207               260.2545               279.9875
 Red. masses --     4.8368                 5.5149                 5.2396
 Frc consts  --     0.1883                 0.2201                 0.2420
 IR Inten    --     7.7430                 4.4933                 2.1882
 Raman Activ --     0.1624                 0.6059                 0.8806

                    22                     23                     24
                     A                      A                      A
 Frequencies --   302.7912               316.7973               349.1955
 Red. masses --     7.0020                 5.5782                 4.9892
 Frc consts  --     0.3782                 0.3298                 0.3584
 IR Inten    --     2.3940                 0.9992                 2.1816
 Raman Activ --     0.4843                 0.4646                 0.9468

                    25                     26                     27
                     A                      A                      A
 Frequencies --   359.2536               373.6926               382.4436
 Red. masses --     6.3747                 4.9144                 5.8568
 Frc consts  --     0.4847                 0.4043                 0.5047
 IR Inten    --     0.2925                 0.6036                 7.5888
 Raman Activ --     4.9910                 1.8783                 1.9247

                    28                     29                     30
                     A                      A                      A
 Frequencies --   409.3812               425.2781               442.6753
 Red. masses --     5.4337                 6.7700                 7.4978
 Frc consts  --     0.5365                 0.7214                 0.8657
 IR Inten    --     7.9129                 2.6101                 6.8975
 Raman Activ --     1.7534                 6.1315                 3.6600

                    31                     32                     33
                     A                      A                      A
 Frequencies --   462.7930               474.7893               497.2967
 Red. masses --     3.9648                 3.9958                 3.7296
 Frc consts  --     0.5003                 0.5307                 0.5434
 IR Inten    --     8.4774                13.0358                 8.9136
 Raman Activ --     5.9407                 2.2477                 0.9943

                    34                     35                     36
                     A                      A                      A
 Frequencies --   537.4471               554.4650               559.4228
 Red. masses --     4.8478                 3.7311                 3.1528
 Frc consts  --     0.8250                 0.6758                 0.5813
 IR Inten    --    12.6142                16.1676                35.8315
 Raman Activ --     1.5983                 2.5177                 1.0904

                    37                     38                     39
                     A                      A                      A
 Frequencies --   592.4385               597.4063               629.5338
 Red. masses --     3.8626                 1.8832                 1.6589
 Frc consts  --     0.7988                 0.3960                 0.3873
 IR Inten    --    12.5818                36.0473                42.3924
 Raman Activ --     3.1443                 1.3152                 1.3852

                    40                     41                     42
                     A                      A                      A
 Frequencies --   654.7742               665.6787               677.7687
 Red. masses --     2.6314                 4.2401                 1.2076
 Frc consts  --     0.6647                 1.1070                 0.3268
 IR Inten    --    27.7226                13.4938                70.4010
 Raman Activ --     0.2518                 0.1115                 1.8837

                    43                     44                     45
                     A                      A                      A
 Frequencies --   689.7358               732.0188               736.9447
 Red. masses --     3.1746                 1.1067                 1.1131
 Frc consts  --     0.8898                 0.3494                 0.3562
 IR Inten    --    21.9667               117.3157                58.1616
 Raman Activ --     0.7365                 1.8173                 0.9462

                    46                     47                     48
                     A                      A                      A
 Frequencies --   745.5109               777.3833               833.1079
 Red. masses --     1.1250                 1.0934                 2.6948
 Frc consts  --     0.3684                 0.3893                 1.1020
 IR Inten    --   175.9978                59.9935                 7.7819
 Raman Activ --     1.9304                 1.0618                 3.2897

                    49                     50                     51
                     A                      A                      A
 Frequencies --   871.8139               904.3647               936.0073
 Red. masses --     2.6132                 3.1559                 6.2142
 Frc consts  --     1.1702                 1.5208                 3.2077
 IR Inten    --     3.2217                 6.5384               295.7078
 Raman Activ --     6.0685                 1.1041                 1.4666

                    52                     53                     54
                     A                      A                      A
 Frequencies --   945.9187               968.4490               994.9859
 Red. masses --     6.8054                 5.1476                 5.4575
 Frc consts  --     3.5877                 2.8445                 3.1833
 IR Inten    --   173.5235                29.3461               107.3307
 Raman Activ --     1.9338                 1.4399                 2.9182

                    55                     56                     57
                     A                      A                      A
 Frequencies --  1004.0675              1005.9523              1014.1243
 Red. masses --     5.7969                 3.4434                 3.5254
 Frc consts  --     3.4433                 2.0530                 2.1362
 IR Inten    --   221.4238               115.5562                 0.7303
 Raman Activ --     0.4606                 2.0307                 4.2805

                    58                     59                     60
                     A                      A                      A
 Frequencies --  1024.3838              1037.3144              1046.2830
 Red. masses --     5.4885                 3.4019                 4.5891
 Frc consts  --     3.3934                 2.1567                 2.9599
 IR Inten    --   103.8491               189.9964                54.8884
 Raman Activ --     3.3015                 0.4096                 4.2403

                    61                     62                     63
                     A                      A                      A
 Frequencies --  1055.4100              1080.1360              1083.3196
 Red. masses --     4.0019                 3.7945                 3.4925
 Frc consts  --     2.6264                 2.6083                 2.4149
 IR Inten    --    35.3089               170.8578                55.1608
 Raman Activ --    19.7245                 2.3128                13.1876

                    64                     65                     66
                     A                      A                      A
 Frequencies --  1088.3803              1095.7666              1102.3609
 Red. masses --     3.2550                 3.3047                 2.5523
 Frc consts  --     2.2718                 2.3378                 1.8274
 IR Inten    --    66.5540                12.4418                 9.5425
 Raman Activ --     2.2815                 4.4101                 2.1733

                    67                     68                     69
                     A                      A                      A
 Frequencies --  1111.5766              1118.8160              1136.2107
 Red. masses --     2.9356                 3.0966                 2.5942
 Frc consts  --     2.1371                 2.2838                 1.9732
 IR Inten    --     8.3237                42.4296                18.3219
 Raman Activ --     6.4506                 3.7569                 9.4905

                    70                     71                     72
                     A                      A                      A
 Frequencies --  1141.2383              1149.1661              1158.4123
 Red. masses --     2.1704                 1.5067                 2.4097
 Frc consts  --     1.6655                 1.1723                 1.9052
 IR Inten    --    23.1400                54.2933                32.0578
 Raman Activ --     3.4597                 0.8282                 1.6533

                    73                     74                     75
                     A                      A                      A
 Frequencies --  1166.9553              1191.8372              1196.2339
 Red. masses --     1.8398                 2.2977                 1.6452
 Frc consts  --     1.4762                 1.9230                 1.3871
 IR Inten    --    35.1466                15.7184                 2.2669
 Raman Activ --     1.4431                 2.7652                 0.4239

                    76                     77                     78
                     A                      A                      A
 Frequencies --  1198.3302              1221.5920              1231.4524
 Red. masses --     1.6845                 1.5820                 1.2244
 Frc consts  --     1.4252                 1.3909                 1.0940
 IR Inten    --    10.0668                 6.7196                21.1678
 Raman Activ --     1.3225                 3.2189                 3.1737

                    79                     80                     81
                     A                      A                      A
 Frequencies --  1237.8502              1241.6283              1256.1816
 Red. masses --     1.3014                 1.2315                 1.1980
 Frc consts  --     1.1749                 1.1186                 1.1138
 IR Inten    --    23.8525                 5.2407                13.1352
 Raman Activ --     2.2057                 2.9006                 3.0385

                    82                     83                     84
                     A                      A                      A
 Frequencies --  1261.8145              1266.0160              1280.7629
 Red. masses --     1.2813                 1.3442                 1.2973
 Frc consts  --     1.2020                 1.2694                 1.2538
 IR Inten    --     2.0528                 7.3129                12.7078
 Raman Activ --     4.9293                 1.4156                 0.7660

                    85                     86                     87
                     A                      A                      A
 Frequencies --  1291.2884              1300.2385              1303.8223
 Red. masses --     1.4139                 1.2545                 1.3071
 Frc consts  --     1.3890                 1.2495                 1.3091
 IR Inten    --    20.6196                17.3873                10.9209
 Raman Activ --     1.9582                 4.6524                 2.1543

                    88                     89                     90
                     A                      A                      A
 Frequencies --  1319.8503              1333.4136              1338.7337
 Red. masses --     1.3085                 1.2464                 1.1825
 Frc consts  --     1.3430                 1.3057                 1.2486
 IR Inten    --    12.2835                15.9231                 3.2198
 Raman Activ --     3.6031                 1.6714                 2.7581

                    91                     92                     93
                     A                      A                      A
 Frequencies --  1344.6957              1346.0629              1350.5876
 Red. masses --     1.2692                 1.2061                 1.2889
 Frc consts  --     1.3522                 1.2875                 1.3853
 IR Inten    --    33.7599                18.9439                 6.9024
 Raman Activ --     2.6809                 2.6482                 1.1393

                    94                     95                     96
                     A                      A                      A
 Frequencies --  1359.5959              1369.3292              1372.7211
 Red. masses --     1.4454                 1.4924                 1.3566
 Frc consts  --     1.5742                 1.6488                 1.5062
 IR Inten    --     6.1662                18.4046                34.3275
 Raman Activ --     2.6709                 5.2180                 2.8758

                    97                     98                     99
                     A                      A                      A
 Frequencies --  1383.9599              1392.8053              1399.3246
 Red. masses --     1.5463                 1.5522                 1.2442
 Frc consts  --     1.7450                 1.7741                 1.4354
 IR Inten    --    12.2492                28.4567                12.9034
 Raman Activ --     7.7026                 9.1286                 4.3748

                   100                    101                    102
                     A                      A                      A
 Frequencies --  1403.5770              1411.6947              1443.0312
 Red. masses --     1.3285                 1.3024                 1.0796
 Frc consts  --     1.5420                 1.5293                 1.3245
 IR Inten    --    19.4361                 6.9512                 9.5427
 Raman Activ --     3.1210                 9.3562                 4.4073

                   103                    104                    105
                     A                      A                      A
 Frequencies --  1473.5623              1474.0856              1488.3530
 Red. masses --     1.0787                 1.1926                 1.3419
 Frc consts  --     1.3800                 1.5269                 1.7514
 IR Inten    --     2.8040                26.6204                13.5728
 Raman Activ --     4.5448                 1.5416                 0.9935

                   106                    107                    108
                     A                      A                      A
 Frequencies --  1498.3872              1606.5494              3246.3725
 Red. masses --     1.3513                 1.1858                 1.0796
 Frc consts  --     1.7876                 1.8031                 6.7038
 IR Inten    --    80.6235               125.9234                33.3717
 Raman Activ --     2.1230                 1.9358                51.1771

                   109                    110                    111
                     A                      A                      A
 Frequencies --  3254.0304              3256.5276              3266.4701
 Red. masses --     1.0767                 1.0606                 1.0816
 Frc consts  --     6.7173                 6.6271                 6.7993
 IR Inten    --    20.1441                39.6886                 6.3632
 Raman Activ --    81.5148                45.3049                77.9699

                   112                    113                    114
                     A                      A                      A
 Frequencies --  3267.3460              3269.7541              3272.9583
 Red. masses --     1.0814                 1.0788                 1.0612
 Frc consts  --     6.8019                 6.7953                 6.6974
 IR Inten    --     8.6424                 8.5438                47.1561
 Raman Activ --     3.8085               152.0836               195.4911

                   115                    116                    117
                     A                      A                      A
 Frequencies --  3283.5249              3288.4218              3291.6473
 Red. masses --     1.0857                 1.0853                 1.0861
 Frc consts  --     6.8965                 6.9146                 6.9334
 IR Inten    --    53.6357                76.1620                 5.5055
 Raman Activ --    17.2435                62.7545                 8.6140

                   118                    119                    120
                     A                      A                      A
 Frequencies --  3292.5023              3301.8531              3304.0035
 Red. masses --     1.0708                 1.0863                 1.0875
 Frc consts  --     6.8392                 6.9778                 6.9943
 IR Inten    --   751.8120                19.5629                66.5694
 Raman Activ --   196.1336                18.1881                94.6605

                   121                    122                    123
                     A                      A                      A
 Frequencies --  3320.6059              3323.5008              3326.5492
 Red. masses --     1.0800                 1.0915                 1.1059
 Frc consts  --     7.0166                 7.1034                 7.2105
 IR Inten    --    39.5577                58.4326                69.2835
 Raman Activ --    23.6609                53.5665                77.1056

                   124                    125                    126
                     A                      A                      A
 Frequencies --  3364.0850              3369.1586              3369.6487
 Red. masses --     1.0685                 1.0664                 1.0660
 Frc consts  --     7.1245                 7.1322                 7.1316
 IR Inten    --   211.3626                34.0252                35.4553
 Raman Activ --   158.7648                17.5669               128.2904

                   127                    128                    129
                     A                      A                      A
 Frequencies --  3378.6844              3881.9250              3889.6509
 Red. masses --     1.0684                 1.0673                 1.0670
 Frc consts  --     7.1858                 9.4762                 9.5114
 IR Inten    --    84.3796                53.2606                59.4772
 Raman Activ --   197.5048               104.4088               149.6333

 - Thermochemistry -
 -------------------
 Temperature   298.150 Kelvin.  Pressure   1.00000 Atm.
 Atom     1 has atomic number  8 and mass  15.99491

 Molecular mass:   342.11621 amu.
 Principal axes and moments of inertia in atomic units:
                           1         2         3
     Eigenvalues --  4483.90518********************
           X            0.99998  -0.00626   0.00104
           Y            0.00627   0.99998  -0.00096
           Z           -0.00104   0.00097   1.00000
 This molecule is an asymmetric top.
 Rotational symmetry number  1.
 Warning -- assumption of classical behavior for rotation
           may cause significant error
 Rotational temperatures (Kelvin)      0.01932     0.00773     0.00569
 Rotational constants (GHZ):           0.40249     0.16101     0.11862
    7 imaginary frequencies ignored.
 Zero-point vibrational energy     973285.6 (Joules/Mol)
                                  232.62083 (Kcal/Mol)
 Warning -- explicit consideration of  31 degrees of freedom as
           vibrations may cause significant error
 Vibrational temperatures:     39.14    90.03   116.37   128.83   147.40
          (Kelvin)            167.31   249.22   261.79   270.78   328.05
                              349.69   369.80   374.45   402.84   435.65
                              455.80   502.41   516.89   537.66   550.25
                              589.01   611.88   636.91   665.86   683.12
                              715.50   773.27   797.75   804.88   852.39
                              859.53   905.76   942.07   957.76   975.16
                              992.37  1053.21  1060.30  1072.62  1118.48
                             1198.65  1254.34  1301.18  1346.70  1360.96
                             1393.38  1431.56  1444.63  1447.34  1459.10
                             1473.86  1492.46  1505.37  1518.50  1554.07
                             1558.65  1565.93  1576.56  1586.05  1599.31
                             1609.72  1634.75  1641.99  1653.39  1666.69
                             1678.99  1714.79  1721.11  1724.13  1757.60
                             1771.78  1780.99  1786.42  1807.36  1815.47
                             1821.51  1842.73  1857.87  1870.75  1875.91
                             1898.97  1918.48  1926.14  1934.71  1936.68
                             1943.19  1956.15  1970.16  1975.04  1991.21
                             2003.93  2013.31  2019.43  2031.11  2076.20
                             2120.12  2120.88  2141.41  2155.84  2311.46
                             4670.80  4681.82  4685.41  4699.72  4700.98
                             4704.44  4709.05  4724.25  4731.30  4735.94
                             4737.17  4750.62  4753.72  4777.61  4781.77
                             4786.16  4840.16  4847.46  4848.17  4861.17
                             5585.22  5596.33

 Zero-point correction=                           0.370705 (Hartree/Particle)
 Thermal correction to Energy=                    0.389272
 Thermal correction to Enthalpy=                  0.390216
 Thermal correction to Gibbs Free Energy=         0.324340
 Sum of electronic and zero-point Energies=          -1297.600424
 Sum of electronic and thermal Energies=             -1297.581857
 Sum of electronic and thermal Enthalpies=           -1297.580913
 Sum of electronic and thermal Free Energies=        -1297.646789

                     E (Thermal)             CV                S
                      KCal/Mol        Cal/Mol-Kelvin    Cal/Mol-Kelvin
 Total                  244.272             76.219            138.649
 Electronic               0.000              0.000              0.000
 Translational            0.889              2.981             43.384
 Rotational               0.889              2.981             34.991
 Vibrational            242.494             70.257             60.274
 Vibration     1          0.593              1.984              6.024
 Vibration     2          0.597              1.972              4.374
 Vibration     3          0.600              1.962              3.869
 Vibration     4          0.602              1.957              3.670
 Vibration     5          0.605              1.947              3.407
 Vibration     6          0.608              1.936              3.161
 Vibration     7          0.627              1.875              2.400
 Vibration     8          0.630              1.864              2.308
 Vibration     9          0.633              1.856              2.245
 Vibration    10          0.651              1.798              1.895
 Vibration    11          0.659              1.774              1.780
 Vibration    12          0.667              1.751              1.682
 Vibration    13          0.668              1.745              1.660
 Vibration    14          0.680              1.711              1.534
 Vibration    15          0.694              1.668              1.401
 Vibration    16          0.704              1.642              1.327
 Vibration    17          0.726              1.577              1.170
 Vibration    18          0.734              1.556              1.125
 Vibration    19          0.745              1.526              1.065
 Vibration    20          0.752              1.508              1.029
 Vibration    21          0.774              1.450              0.929
 Vibration    22          0.787              1.415              0.874
 Vibration    23          0.802              1.377              0.818
 Vibration    24          0.820              1.333              0.758
 Vibration    25          0.832              1.306              0.724
 Vibration    26          0.853              1.256              0.665
 Vibration    27          0.892              1.167              0.571
 Vibration    28          0.910              1.130              0.535
 Vibration    29          0.915              1.119              0.525
 Vibration    30          0.950              1.048              0.463
 Vibration    31          0.955              1.037              0.454

 Normal termination of Gaussian 09 at Fri Apr  1 13:08:02 2016.
