 Gaussian 09, Revision B.01,
 Gaussian 09:  EM64L-G09RevB.01 12-Aug-2010

 ------------------------------------------------
 # freq=raman b3lyp/6-31+g(d,p) geom=connectivity
 ------------------------------------------------

 ------------
 400 8000.com
 ------------
 Symbolic Z-matrix:
 Charge =  0 Multiplicity = 1

                         Standard orientation:
 ---------------------------------------------------------------------
 Center     Atomic      Atomic             Coordinates (Angstroms)
 Number     Number       Type             X           Y           Z
 ---------------------------------------------------------------------
      1          8           0        5.073436   -0.341346   -0.652280
      2          6           0        3.804615   -0.074595   -0.037008
      3          6           0        3.221657    1.290381   -0.366679
      4          8           0        4.137627    2.361423   -0.096318
      5          1           0        5.031767    1.999574   -0.359282
      6          6           0        1.858734    1.588011    0.236256
      7          8           0        1.229914    2.614888   -0.542658
      8          1           0        0.312867    2.852238   -0.222306
      9          6           0        3.174185   -2.472307    0.480952
     10          8           0        4.171116   -3.212653   -0.238476
     11          1           0        3.858105   -4.149849   -0.080844
     12          6           0        2.732078   -1.148195   -0.120022
     13          8           0        1.582329   -0.751118    0.641835
     14          6           0        0.959287    0.382103    0.021059
     15          8           0       -0.205730    0.416206    0.858478
     16          6           0       -1.468049    0.162966    0.223596
     17          6           0       -2.083177   -1.223927    0.316418
     18          8           0       -1.051676   -2.127510   -0.104964
     19          1           0       -0.136209   -1.865147    0.199891
     20          6           0       -3.416263   -1.443362   -0.382230
     21          8           0       -4.006326   -2.701521   -0.022216
     22          1           0       -4.972486   -2.768336   -0.272139
     23          6           0       -2.153240    2.464165    0.701014
     24          8           0       -1.500954    3.146458   -0.380274
     25          1           0       -1.559184    4.143727   -0.324681
     26          6           0       -2.631348    1.020895    0.691644
     27          8           0       -3.752324    0.954905   -0.201673
     28          6           0       -4.393832   -0.321643   -0.072876
     29          8           0       -5.513311   -0.484762   -0.956320
     30          1           0       -6.328920   -0.357684   -0.466184
     31          1           0       -4.734630   -0.432463    0.935328
     32          1           0       -3.240364   -1.449028   -1.437657
     33          1           0       -2.253208   -1.413835    1.355612
     34          1           0       -1.328266    0.369481   -0.816938
     35          1           0       -2.929830    0.727956    1.676528
     36          1           0       -1.489275    2.543888    1.536295
     37          1           0       -3.014734    3.053111    0.937383
     38          1           0        5.768928   -0.272949    0.005909
     39          1           0        2.309016   -3.094413    0.577729
     40          1           0        3.553988   -2.277344    1.462094
     41          1           0        2.450936   -1.295068   -1.141926
     42          1           0        4.034002   -0.017754    1.006568
     43          1           0        3.075505    1.292296   -1.426649
     44          1           0        1.926365    1.856120    1.269911
     45          1           0        0.724943    0.208766   -1.008473
 ---------------------------------------------------------------------

 SCF Done:  E(RB3LYP) =  -1297.91638199     A.U. after   14 cycles

 The electronic state is 1-A.
 Alpha  occ. eigenvalues --  -19.19962 -19.19597 -19.19297 -19.19274 -19.19234
 Alpha  occ. eigenvalues --  -19.18286 -19.17100 -19.16908 -19.16369 -19.14909
 Alpha  occ. eigenvalues --  -19.14626 -10.31622 -10.31165 -10.27194 -10.25944
 Alpha  occ. eigenvalues --  -10.25835 -10.25765 -10.25643 -10.25435 -10.25217
 Alpha  occ. eigenvalues --  -10.25108 -10.24597 -10.24336  -1.10732  -1.09542
 Alpha  occ. eigenvalues --   -1.05672  -1.05231  -1.04286  -1.04059  -1.03030
 Alpha  occ. eigenvalues --   -1.02736  -1.02490  -1.00931  -1.00556  -0.82960
 Alpha  occ. eigenvalues --   -0.80408  -0.79530  -0.78687  -0.72163  -0.70319
 Alpha  occ. eigenvalues --   -0.67958  -0.65609  -0.63468  -0.62448  -0.62099
 Alpha  occ. eigenvalues --   -0.60703  -0.56940  -0.56191  -0.55391  -0.54845
 Alpha  occ. eigenvalues --   -0.54393  -0.53864  -0.53198  -0.52632  -0.52162
 Alpha  occ. eigenvalues --   -0.50889  -0.50220  -0.49230  -0.48667  -0.46264
 Alpha  occ. eigenvalues --   -0.46114  -0.46006  -0.44689  -0.44245  -0.43686
 Alpha  occ. eigenvalues --   -0.42769  -0.42117  -0.41403  -0.40716  -0.39684
 Alpha  occ. eigenvalues --   -0.39053  -0.38471  -0.36749  -0.36424  -0.35697
 Alpha  occ. eigenvalues --   -0.35386  -0.35221  -0.34712  -0.34001  -0.33731
 Alpha  occ. eigenvalues --   -0.33195  -0.31766  -0.31607  -0.30661  -0.30075
 Alpha  occ. eigenvalues --   -0.29721  -0.28917  -0.28430  -0.28160  -0.26756
 Alpha  occ. eigenvalues --   -0.26039
 Alpha virt. eigenvalues --   -0.02459  -0.02155  -0.02053  -0.00593   0.00162
 Alpha virt. eigenvalues --    0.01183   0.01692   0.02136   0.02775   0.03224
 Alpha virt. eigenvalues --    0.03586   0.03957   0.04465   0.05074   0.05640

 Mulliken atomic charges:
              1
     1  O   -0.514593
     2  C   -0.470046
     3  C    0.232413
     4  O   -0.509656
     5  H    0.345166
     6  C    0.132889
     7  O   -0.516471
     8  H    0.413965
     9  C   -0.127636
    10  O   -0.483840
    11  H    0.343787
    12  C    0.358398
    13  O   -0.409294
    14  C   -0.038856
    15  O   -0.353519
    16  C   -0.347949
    17  C    0.143886
    18  O   -0.539126
    19  H    0.399658
    20  C    0.196573
    21  O   -0.518154
    22  H    0.359750
    23  C   -0.206596
    24  O   -0.635388
    25  H    0.398866
    26  C    0.435284
    27  O   -0.303108
    28  C    0.089486
    29  O   -0.552057
    30  H    0.360066
    31  H    0.124350
    32  H    0.153941
    33  H    0.136039
    34  H    0.148220
    35  H    0.137278
    36  H    0.147000
    37  H    0.131291
    38  H    0.371073
    39  H    0.129473
    40  H    0.132454
    41  H    0.136067
    42  H    0.125250
    43  H    0.145757
    44  H    0.147710
    45  H    0.150196
 Sum of Mulliken atomic charges =   0.00000

 Dipole moment (field-independent basis, Debye):
    X=             -3.1143    Y=              0.7739    Z=              4.2753  Tot=              5.3457
 Quadrupole moment (field-independent basis, Debye-Ang):
   XX=           -112.4735   YY=           -140.0556   ZZ=           -142.6312
   XY=            -12.0887   XZ=             -1.1225   YZ=              3.0908

  Exact polarizability: 230.380   2.094 188.951  -0.630   0.434 142.755
 Approx polarizability: 269.072   2.686 243.884  -0.703  -0.834 232.158

 ******    6 imaginary frequencies (negative Signs) ******

                     1                      2                      3
                     A                      A                      A
 Frequencies --  -285.7875              -266.8979              -252.6683
 Red. masses --     1.3775                 1.6490                 1.5721
 Frc consts  --     0.0663                 0.0692                 0.0591
 IR Inten    --    92.2389                 9.4581                29.3664
 Raman Activ --     0.7869                 0.0620                 0.3723

                     4                      5                      6
                     A                      A                      A
 Frequencies --   -92.7074               -63.7422               -36.8852
 Red. masses --     3.6536                 2.3630                 4.9796
 Frc consts  --     0.0185                 0.0057                 0.0040
 IR Inten    --    23.5334                31.5506                 4.5702
 Raman Activ --     0.0910                 0.4730                 0.0495

                     7                      8                      9
                     A                      A                      A
 Frequencies --    10.3896                53.4559                61.6899
 Red. masses --     6.6614                 5.9133                 3.0844
 Frc consts  --     0.0004                 0.0100                 0.0069
 IR Inten    --     1.4185                 7.1244                38.9619
 Raman Activ --     0.0632                 0.1338                 0.3721

                    10                     11                     12
                     A                      A                      A
 Frequencies --    67.4179                80.8517               128.7656
 Red. masses --     4.9100                 5.8328                 6.1228
 Frc consts  --     0.0131                 0.0225                 0.0598
 IR Inten    --     6.0206                 9.2674                 0.2848
 Raman Activ --     0.1097                 0.0592                 0.2146

                    13                     14                     15
                     A                      A                      A
 Frequencies --   141.6383               166.5644               179.9774
 Red. masses --     6.3857                 7.4984                 6.3082
 Frc consts  --     0.0755                 0.1226                 0.1204
 IR Inten    --     2.1205                 2.9085                 2.1670
 Raman Activ --     0.3148                 0.4532                 0.9377

                    16                     17                     18
                     A                      A                      A
 Frequencies --   204.3174               236.5922               241.2361
 Red. masses --     5.5872                 5.4002                 5.9115
 Frc consts  --     0.1374                 0.1781                 0.2027
 IR Inten    --     2.2762                 4.4156                 1.5497
 Raman Activ --     0.3984                 2.2269                 1.1007

                    19                     20                     21
                     A                      A                      A
 Frequencies --   259.3303               286.2689               292.9167
 Red. masses --     4.7115                 4.1803                 5.9754
 Frc consts  --     0.1867                 0.2018                 0.3021
 IR Inten    --    24.3952                 3.1716                 0.5108
 Raman Activ --     0.3348                 0.0844                 0.5105

                    22                     23                     24
                     A                      A                      A
 Frequencies --   299.3302               309.3493               328.6649
 Red. masses --     4.3367                 6.3531                 6.5511
 Frc consts  --     0.2289                 0.3582                 0.4169
 IR Inten    --     3.5437                 6.1317                 0.8081
 Raman Activ --     0.2864                 1.0363                 2.2656

                    25                     26                     27
                     A                      A                      A
 Frequencies --   331.4194               353.6091               378.2520
 Red. masses --     6.9295                 7.1878                 4.1550
 Frc consts  --     0.4484                 0.5295                 0.3503
 IR Inten    --     8.3343                 3.7934                 7.9681
 Raman Activ --     3.7483                 1.2023                 1.7880

                    28                     29                     30
                     A                      A                      A
 Frequencies --   400.6385               421.7804               428.5435
 Red. masses --     5.3315                 5.7440                 4.2039
 Frc consts  --     0.5042                 0.6021                 0.4549
 IR Inten    --     2.4718                 2.3158                 6.7180
 Raman Activ --     3.7588                 1.9356                 1.6001

                    31                     32                     33
                     A                      A                      A
 Frequencies --   463.8749               473.6426               509.2527
 Red. masses --     5.2990                 4.3755                 3.9219
 Frc consts  --     0.6718                 0.5783                 0.5993
 IR Inten    --     0.1647                12.8475                22.7880
 Raman Activ --     3.3302                 1.2289                 9.3111

                    34                     35                     36
                     A                      A                      A
 Frequencies --   521.2114               531.4317               554.9906
 Red. masses --     5.9138                 3.4277                 3.5168
 Frc consts  --     0.9466                 0.5704                 0.6382
 IR Inten    --    13.7273                 7.8413                40.6945
 Raman Activ --     2.5160                 1.1691                 1.5146

                    37                     38                     39
                     A                      A                      A
 Frequencies --   566.6753               595.4469               628.0127
 Red. masses --     3.3202                 3.7259                 4.8963
 Frc consts  --     0.6282                 0.7783                 1.1378
 IR Inten    --     5.7944                61.6254                 5.5822
 Raman Activ --     1.9024                 0.4260                 0.6546

                    40                     41                     42
                     A                      A                      A
 Frequencies --   639.6824               676.0483               689.4593
 Red. masses --     1.0909                 1.1381                 4.0580
 Frc consts  --     0.2630                 0.3065                 1.1365
 IR Inten    --    54.5233                92.8383                27.9759
 Raman Activ --     1.2330                 2.4375                 2.0632

                    43                     44                     45
                     A                      A                      A
 Frequencies --   699.4105               704.7997               729.4988
 Red. masses --     3.3801                 1.0985                 1.0714
 Frc consts  --     0.9742                 0.3215                 0.3359
 IR Inten    --     3.3113                98.1160                87.9587
 Raman Activ --     0.5818                 1.3451                 1.7298

                    46                     47                     48
                     A                      A                      A
 Frequencies --   777.2654               800.4590               843.6062
 Red. masses --     1.0533                 1.0828                 1.8152
 Frc consts  --     0.3749                 0.4088                 0.7611
 IR Inten    --    84.6880               196.9672                 2.4769
 Raman Activ --     1.0350                 1.5011                 1.1447

                    49                     50                     51
                     A                      A                      A
 Frequencies --   847.3391               887.5505               940.6627
 Red. masses --     2.8561                 2.3387                 6.0259
 Frc consts  --     1.2082                 1.0854                 3.1415
 IR Inten    --     9.1654                 6.4467                99.8207
 Raman Activ --     2.2436                 1.9102                 2.8748

                    52                     53                     54
                     A                      A                      A
 Frequencies --   981.8814               994.4854              1002.3822
 Red. masses --     5.7765                 4.1764                 5.0254
 Frc consts  --     3.2812                 2.4336                 2.9750
 IR Inten    --   138.4201                23.6704               230.0576
 Raman Activ --     1.2489                 1.1205                 2.7950

                    55                     56                     57
                     A                      A                      A
 Frequencies --  1016.3426              1017.5463              1031.0465
 Red. masses --     5.0264                 4.8044                 5.7527
 Frc consts  --     3.0591                 2.9309                 3.6031
 IR Inten    --   126.8831               402.7956                25.3524
 Raman Activ --     5.3077                 1.1385                 3.0998

                    58                     59                     60
                     A                      A                      A
 Frequencies --  1053.2932              1060.7429              1064.7982
 Red. masses --     3.8000                 3.3392                 3.9770
 Frc consts  --     2.4839                 2.2136                 2.6567
 IR Inten    --   138.5495                39.8414                37.0154
 Raman Activ --     3.1360                 8.5870                 0.9336

                    61                     62                     63
                     A                      A                      A
 Frequencies --  1071.0167              1081.5315              1088.2754
 Red. masses --     4.2312                 4.9924                 4.8516
 Frc consts  --     2.8596                 3.4406                 3.3854
 IR Inten    --    78.8684                79.4873               193.7628
 Raman Activ --     4.7492                 1.8124                 0.8722

                    64                     65                     66
                     A                      A                      A
 Frequencies --  1101.9420              1104.3890              1113.1358
 Red. masses --     2.5997                 3.3360                 2.2395
 Frc consts  --     1.8599                 2.3973                 1.6349
 IR Inten    --    26.7465                14.2475               127.4811
 Raman Activ --     3.7365                 8.6458                 3.7522

                    67                     68                     69
                     A                      A                      A
 Frequencies --  1119.8091              1128.6786              1136.2938
 Red. masses --     2.4675                 3.1957                 2.5313
 Frc consts  --     1.8230                 2.3986                 1.9256
 IR Inten    --     4.8411                30.5487                13.3119
 Raman Activ --     7.3143                 5.7527                11.5331

                    70                     71                     72
                     A                      A                      A
 Frequencies --  1142.9746              1151.6400              1165.5187
 Red. masses --     1.9088                 2.1611                 2.0805
 Frc consts  --     1.4692                 1.6887                 1.6651
 IR Inten    --    12.3638                 6.4424                17.1142
 Raman Activ --     3.7176                 0.9505                 2.5719

                    73                     74                     75
                     A                      A                      A
 Frequencies --  1171.1076              1173.4701              1185.5889
 Red. masses --     2.1524                 1.4981                 2.5663
 Frc consts  --     1.7393                 1.2155                 2.1253
 IR Inten    --    28.9795                 3.0109                 7.8261
 Raman Activ --     6.0248                 2.5690                 0.9343

                    76                     77                     78
                     A                      A                      A
 Frequencies --  1197.4246              1216.9456              1226.9612
 Red. masses --     1.6046                 1.4209                 1.2754
 Frc consts  --     1.3555                 1.2398                 1.1313
 IR Inten    --    20.7167                 6.1529                18.6005
 Raman Activ --     2.5779                 0.8639                 4.9543

                    79                     80                     81
                     A                      A                      A
 Frequencies --  1237.9363              1252.3357              1265.5407
 Red. masses --     1.2602                 1.3108                 1.2977
 Frc consts  --     1.1379                 1.2113                 1.2246
 IR Inten    --     3.0274                43.3395                18.1049
 Raman Activ --     2.4775                 0.9468                 4.2494

                    82                     83                     84
                     A                      A                      A
 Frequencies --  1270.2062              1277.9631              1294.2125
 Red. masses --     1.3119                 1.2632                 1.2484
 Frc consts  --     1.2471                 1.2155                 1.2320
 IR Inten    --     9.2363                30.8028                15.9134
 Raman Activ --     5.0551                 4.9590                 2.4875

                    85                     86                     87
                     A                      A                      A
 Frequencies --  1300.3448              1306.5814              1308.9576
 Red. masses --     1.3440                 1.2315                 1.2622
 Frc consts  --     1.3390                 1.2386                 1.2742
 IR Inten    --    24.3941                 6.9691                82.0060
 Raman Activ --     3.1132                 6.4282                 1.4373

                    88                     89                     90
                     A                      A                      A
 Frequencies --  1316.5728              1323.8759              1331.9044
 Red. masses --     1.2630                 1.2441                 1.2456
 Frc consts  --     1.2899                 1.2847                 1.3019
 IR Inten    --    12.0264                10.8174                 0.7899
 Raman Activ --     8.1534                11.9568                 7.4371

                    91                     92                     93
                     A                      A                      A
 Frequencies --  1341.6287              1350.0928              1355.2780
 Red. masses --     1.3746                 1.2884                 1.2962
 Frc consts  --     1.4578                 1.3837                 1.4028
 IR Inten    --    23.6396                 7.5141                41.0754
 Raman Activ --     2.9137                 2.3337                 2.2299

                    94                     95                     96
                     A                      A                      A
 Frequencies --  1366.8793              1374.1506              1377.3399
 Red. masses --     1.4569                 1.5829                 1.3411
 Frc consts  --     1.6037                 1.7610                 1.4989
 IR Inten    --    31.3488                17.1532                27.5335
 Raman Activ --     7.6294                 6.2982                 0.9271

                    97                     98                     99
                     A                      A                      A
 Frequencies --  1379.6605              1406.5175              1416.6639
 Red. masses --     1.2721                 1.6524                 1.2299
 Frc consts  --     1.4266                 1.9260                 1.4543
 IR Inten    --    28.7090                15.9245                18.6484
 Raman Activ --     1.1765                 4.6389                 2.9325

                   100                    101                    102
                     A                      A                      A
 Frequencies --  1422.6437              1425.4433              1435.6662
 Red. masses --     1.3217                 1.2897                 1.3593
 Frc consts  --     1.5761                 1.5440                 1.6507
 IR Inten    --    25.8997                34.9516                15.5440
 Raman Activ --     5.4860                 4.1621                 2.8169

                   103                    104                    105
                     A                      A                      A
 Frequencies --  1444.8781              1455.2421              1471.4366
 Red. masses --     1.3273                 1.5276                 1.0902
 Frc consts  --     1.6326                 1.9060                 1.3908
 IR Inten    --     2.4363                37.5802                24.5480
 Raman Activ --     0.2666                 1.6193                 5.5221

                   106                    107                    108
                     A                      A                      A
 Frequencies --  1474.9479              1494.0759              3265.5090
 Red. masses --     1.0989                 1.2841                 1.0659
 Frc consts  --     1.4085                 1.6888                 6.6966
 IR Inten    --     5.5564                20.9887                13.1027
 Raman Activ --     5.5462                 0.5201                11.0657

                   109                    110                    111
                     A                      A                      A
 Frequencies --  3268.7600              3269.4471              3274.8191
 Red. masses --     1.0720                 1.0618                 1.0816
 Frc consts  --     6.7483                 6.6874                 6.8344
 IR Inten    --    14.7260                84.9498                 7.7912
 Raman Activ --   152.4418               119.2958                56.8069

                   112                    113                    114
                     A                      A                      A
 Frequencies --  3284.6962              3286.0210              3293.8956
 Red. masses --     1.0834                 1.0846                 1.0840
 Frc consts  --     6.8868                 6.9003                 6.9291
 IR Inten    --    10.5463                25.8341                 6.3303
 Raman Activ --    10.3653                95.6801                68.1324

                   115                    116                    117
                     A                      A                      A
 Frequencies --  3297.3859              3304.7576              3312.2324
 Red. masses --     1.0863                 1.0854                 1.0874
 Frc consts  --     6.9591                 6.9840                 7.0286
 IR Inten    --    34.3728                13.7716                72.9420
 Raman Activ --    50.5026                66.4606                 7.7479

                   118                    119                    120
                     A                      A                      A
 Frequencies --  3314.8769              3315.3547              3318.6062
 Red. masses --     1.0790                 1.1020                 1.0789
 Frc consts  --     6.9855                 7.1363                 7.0006
 IR Inten    --   271.7275                22.7241               194.1021
 Raman Activ --   236.3191                58.1452               121.3705

                   121                    122                    123
                     A                      A                      A
 Frequencies --  3324.1901              3326.4749              3345.6774
 Red. masses --     1.1038                 1.0879                 1.0695
 Frc consts  --     7.1866                 7.0930                 7.0532
 IR Inten    --    54.7002                65.1816               423.3747
 Raman Activ --    27.1414                13.8527               146.2023

                   124                    125                    126
                     A                      A                      A
 Frequencies --  3386.4275              3387.1764              3390.8834
 Red. masses --     1.0654                 1.0679                 1.0666
 Frc consts  --     7.1986                 7.2187                 7.2256
 IR Inten    --    25.4589                33.0946                68.5284
 Raman Activ --    78.3458               142.8224               120.5890

                   127                    128                    129
                     A                      A                      A
 Frequencies --  3391.5268              3913.3218              3917.9881
 Red. masses --     1.0680                 1.0681                 1.0676
 Frc consts  --     7.2378                 9.6373                 9.6556
 IR Inten    --    67.9492                80.2827                72.7304
 Raman Activ --   136.2005                82.6911               127.2545

 - Thermochemistry -
 -------------------
 Temperature   298.150 Kelvin.  Pressure   1.00000 Atm.
 Atom     1 has atomic number  8 and mass  15.99491

 Molecular mass:   342.11621 amu.
 Principal axes and moments of inertia in atomic units:
                           1         2         3
     Eigenvalues --  4307.17312********************
           X            0.99998  -0.00562  -0.00119
           Y            0.00562   0.99998   0.00221
           Z            0.00117  -0.00222   1.00000
 This molecule is an asymmetric top.
 Rotational symmetry number  1.
 Warning -- assumption of classical behavior for rotation
           may cause significant error
 Rotational temperatures (Kelvin)      0.02011     0.00684     0.00531
 Rotational constants (GHZ):           0.41901     0.14246     0.11054
    6 imaginary frequencies ignored.
 Zero-point vibrational energy     976221.8 (Joules/Mol)
                                  233.32262 (Kcal/Mol)
 Warning -- explicit consideration of  32 degrees of freedom as
           vibrations may cause significant error
 Vibrational temperatures:     14.95    76.91    88.76    97.00   116.33
          (Kelvin)            185.26   203.79   239.65   258.95   293.97
                              340.40   347.08   373.12   411.88   421.44
                              430.67   445.08   472.87   476.84   508.76
                              544.22   576.43   606.85   616.58   667.41
                              681.47   732.70   749.91   764.61   798.51
                              815.32   856.71   903.57   920.36   972.68
                              991.98  1006.29  1014.05  1049.58  1118.31
                             1151.68  1213.76  1219.13  1276.99  1353.40
                             1412.71  1430.84  1442.20  1462.29  1464.02
                             1483.44  1515.45  1526.17  1532.01  1540.95
                             1556.08  1565.78  1585.45  1588.97  1601.55
                             1611.15  1623.91  1634.87  1644.48  1656.95
                             1676.92  1684.96  1688.36  1705.80  1722.82
                             1750.91  1765.32  1781.11  1801.83  1820.83
                             1827.54  1838.70  1862.08  1870.90  1879.88
                             1883.30  1894.25  1904.76  1916.31  1930.30
                             1942.48  1949.94  1966.63  1977.09  1981.68
                             1985.02  2023.66  2038.26  2046.86  2050.89
                             2065.60  2078.85  2093.77  2117.07  2122.12
                             2149.64  4698.33  4703.01  4704.00  4711.73
                             4725.94  4727.85  4739.18  4744.20  4754.80
                             4765.56  4769.36  4770.05  4774.73  4782.76
                             4786.05  4813.68  4872.31  4873.39  4878.72
                             4879.64  5630.39  5637.10

 Zero-point correction=                           0.371823 (Hartree/Particle)
 Thermal correction to Energy=                    0.391248
 Thermal correction to Enthalpy=                  0.392193
 Thermal correction to Gibbs Free Energy=         0.323162
 Sum of electronic and zero-point Energies=          -1297.544559
 Sum of electronic and thermal Energies=             -1297.525134
 Sum of electronic and thermal Enthalpies=           -1297.524189
 Sum of electronic and thermal Free Energies=        -1297.593220

                     E (Thermal)             CV                S
                      KCal/Mol        Cal/Mol-Kelvin    Cal/Mol-Kelvin
 Total                  245.512             78.155            145.287
 Electronic               0.000              0.000              0.000
 Translational            0.889              2.981             43.384
 Rotational               0.889              2.981             35.142
 Vibrational            243.735             72.193             66.760
 Vibration     1          0.593              1.987              7.935
 Vibration     2          0.596              1.976              4.685
 Vibration     3          0.597              1.973              4.402
 Vibration     4          0.598              1.970              4.227
 Vibration     5          0.600              1.962              3.870
 Vibration     6          0.611              1.924              2.964
 Vibration     7          0.615              1.912              2.782
 Vibration     8          0.624              1.884              2.474
 Vibration     9          0.629              1.867              2.329
 Vibration    10          0.640              1.834              2.094
 Vibration    11          0.655              1.785              1.828
 Vibration    12          0.658              1.777              1.794
 Vibration    13          0.668              1.747              1.666
 Vibration    14          0.684              1.699              1.496
 Vibration    15          0.688              1.687              1.457
 Vibration    16          0.692              1.675              1.421
 Vibration    17          0.699              1.656              1.366
 Vibration    18          0.712              1.618              1.267
 Vibration    19          0.714              1.613              1.253
 Vibration    20          0.730              1.568              1.150
 Vibration    21          0.749              1.517              1.046
 Vibration    22          0.766              1.469              0.960
 Vibration    23          0.784              1.423              0.886
 Vibration    24          0.790              1.408              0.863
 Vibration    25          0.821              1.330              0.755
 Vibration    26          0.830              1.309              0.727
 Vibration    27          0.864              1.229              0.635
 Vibration    28          0.876              1.203              0.607
 Vibration    29          0.886              1.180              0.584
 Vibration    30          0.910              1.129              0.534
 Vibration    31          0.923              1.103              0.511
 Vibration    32          0.953              1.041              0.458

 Normal termination of Gaussian 09 at Thu Jan 21 17:46:45 2016.
