 Gaussian 09, Revision B.01,
 Gaussian 09:  EM64L-G09RevB.01 12-Aug-2010

 ------------------------------------------------
 # freq=raman b3lyp/6-31+g(d,p) geom=connectivity
 ------------------------------------------------

 ------------
 350 6000.com
 ------------
 Symbolic Z-matrix:
 Charge =  0 Multiplicity = 1

                         Standard orientation:
 ---------------------------------------------------------------------
 Center     Atomic      Atomic             Coordinates (Angstroms)
 Number     Number       Type             X           Y           Z
 ---------------------------------------------------------------------
      1          8           0        4.935874   -0.452564   -0.611812
      2          6           0        3.692536   -0.068803   -0.008240
      3          6           0        3.216921    1.324471   -0.387338
      4          8           0        4.195905    2.293160    0.015359
      5          1           0        5.068386    1.853464   -0.198244
      6          6           0        1.921896    1.590911    0.362601
      7          8           0        1.317372    2.792485   -0.136219
      8          1           0        0.354268    2.948392    0.082001
      9          6           0        2.970211   -2.609463    0.184009
     10          8           0        4.139059   -3.323562   -0.242949
     11          1           0        4.087475   -4.280263    0.043480
     12          6           0        2.687253   -1.182253   -0.253365
     13          8           0        1.482007   -0.774606    0.410302
     14          6           0        0.912550    0.494394    0.059625
     15          8           0       -0.343664    0.521656    0.753494
     16          6           0       -1.553023    0.218294    0.043234
     17          6           0       -2.068363   -1.128291    0.525079
     18          8           0       -1.033627   -2.109992    0.368277
     19          1           0       -0.231275   -1.616937    0.704945
     20          6           0       -3.316120   -1.528811   -0.245614
     21          8           0       -3.715533   -2.879692    0.028459
     22          1           0       -4.587672   -2.930936   -0.457097
     23          6           0       -2.234313    2.610788   -0.398105
     24          8           0       -1.223883    3.332098    0.321135
     25          1           0       -1.342541    4.321208    0.226710
     26          6           0       -2.624205    1.280239    0.225305
     27          8           0       -3.923377    0.929264   -0.273105
     28          6           0       -4.298530   -0.412774    0.068505
     29          8           0       -5.439834   -0.689486   -0.756487
     30          1           0       -6.177697   -0.955769   -0.203087
     31          1           0       -4.579540   -0.458170    1.099947
     32          1           0       -3.085801   -1.470341   -1.288894
     33          1           0       -2.315213   -1.051055    1.563347
     34          1           0       -1.324598    0.141945   -0.999308
     35          1           0       -2.725554    1.443050    1.277978
     36          1           0       -3.108681    3.224463   -0.459617
     37          1           0       -1.877565    2.427728   -1.390133
     38          1           0        5.549427   -0.734229    0.070697
     39          1           0        2.126430   -3.195118   -0.115895
     40          1           0        2.987529   -2.604631    1.253858
     41          1           0        2.487875   -1.205401   -1.304370
     42          1           0        3.864637   -0.046364    1.047590
     43          1           0        3.051137    1.383572   -1.442763
     44          1           0        2.099078    1.663745    1.415312
     45          1           0        0.716631    0.499365   -0.992274
 ---------------------------------------------------------------------

 SCF Done:  E(RB3LYP) =  -1297.94181297     A.U. after   14 cycles

 The electronic state is 1-A.
 Alpha  occ. eigenvalues --  -19.20508 -19.20103 -19.19743 -19.19019 -19.18277
 Alpha  occ. eigenvalues --  -19.17937 -19.17471 -19.17018 -19.16319 -19.14625
 Alpha  occ. eigenvalues --  -19.13251 -10.31574 -10.31247 -10.26869 -10.26669
 Alpha  occ. eigenvalues --  -10.26341 -10.26049 -10.25305 -10.25304 -10.25002
 Alpha  occ. eigenvalues --  -10.24848 -10.24592 -10.24543  -1.10166  -1.09582
 Alpha  occ. eigenvalues --   -1.06324  -1.05407  -1.04396  -1.04077  -1.03154
 Alpha  occ. eigenvalues --   -1.02611  -1.02205  -1.00785  -0.99634  -0.82793
 Alpha  occ. eigenvalues --   -0.80243  -0.79987  -0.78931  -0.72478  -0.70201
 Alpha  occ. eigenvalues --   -0.67545  -0.65020  -0.63748  -0.62754  -0.61746
 Alpha  occ. eigenvalues --   -0.60468  -0.56910  -0.56436  -0.55448  -0.55116
 Alpha  occ. eigenvalues --   -0.54058  -0.53704  -0.53462  -0.51836  -0.51359
 Alpha  occ. eigenvalues --   -0.51063  -0.49860  -0.49759  -0.48747  -0.46777
 Alpha  occ. eigenvalues --   -0.46507  -0.45693  -0.44964  -0.44061  -0.43486
 Alpha  occ. eigenvalues --   -0.42919  -0.41891  -0.41284  -0.40495  -0.40057
 Alpha  occ. eigenvalues --   -0.38673  -0.38540  -0.37798  -0.36200  -0.35884
 Alpha  occ. eigenvalues --   -0.35519  -0.35201  -0.34509  -0.34122  -0.33726
 Alpha  occ. eigenvalues --   -0.32601  -0.31786  -0.31269  -0.30685  -0.30074
 Alpha  occ. eigenvalues --   -0.29312  -0.28828  -0.28573  -0.27690  -0.26884
 Alpha  occ. eigenvalues --   -0.26228
 Alpha virt. eigenvalues --   -0.02245  -0.02063  -0.01913  -0.00182   0.00110
 Alpha virt. eigenvalues --    0.00746   0.02003   0.02217   0.03031   0.03442
 Alpha virt. eigenvalues --    0.03969   0.04304   0.04568   0.05131   0.05589

 Mulliken atomic charges:
              1
     1  O   -0.522874
     2  C   -0.331347
     3  C    0.269625
     4  O   -0.491718
     5  H    0.353589
     6  C   -0.055785
     7  O   -0.593488
     8  H    0.471582
     9  C   -0.076308
    10  O   -0.559550
    11  H    0.360947
    12  C    0.195576
    13  O   -0.433405
    14  C    0.195752
    15  O   -0.354295
    16  C    0.198699
    17  C   -0.066946
    18  O   -0.482867
    19  H    0.399702
    20  C   -0.031579
    21  O   -0.474403
    22  H    0.347615
    23  C   -0.006274
    24  O   -0.637287
    25  H    0.398882
    26  C   -0.174079
    27  O   -0.300825
    28  C    0.314670
    29  O   -0.575172
    30  H    0.367383
    31  H    0.130234
    32  H    0.147229
    33  H    0.134933
    34  H    0.124796
    35  H    0.146938
    36  H    0.144391
    37  H    0.146204
    38  H    0.374486
    39  H    0.152096
    40  H    0.133254
    41  H    0.130780
    42  H    0.136335
    43  H    0.140310
    44  H    0.143910
    45  H    0.108281
 Sum of Mulliken atomic charges =   0.00000

 Dipole moment (field-independent basis, Debye):
    X=             -3.0812    Y=              0.1348    Z=              1.6395  Tot=              3.4928
 Quadrupole moment (field-independent basis, Debye-Ang):
   XX=           -120.6454   YY=           -137.1996   ZZ=           -140.1700
   XY=            -16.6955   XZ=              3.1558   YZ=             -2.5084

  Exact polarizability: 225.880   0.477 195.020   1.460  -0.596 141.357
 Approx polarizability: 263.329  -1.709 252.267   2.627   0.370 230.312

 ******    8 imaginary frequencies (negative Signs) ******

                     1                      2                      3
                     A                      A                      A
 Frequencies --  -313.3876              -283.6698              -257.8729
 Red. masses --     1.6991                 1.1896                 1.1670
 Frc consts  --     0.0983                 0.0564                 0.0457
 IR Inten    --    17.9174               124.7822               112.8196
 Raman Activ --     0.1020                 1.2066                 0.9712

                     4                      5                      6
                     A                      A                      A
 Frequencies --  -222.9367               -90.6683               -75.6590
 Red. masses --     1.8059                 6.8857                 6.0893
 Frc consts  --     0.0529                 0.0334                 0.0205
 IR Inten    --     3.8622                 1.0935                 2.3822
 Raman Activ --     0.0501                 0.0462                 0.0846

                     7                      8                      9
                     A                      A                      A
 Frequencies --   -57.2509               -17.6388                69.5246
 Red. masses --     6.8995                 6.5462                 6.0937
 Frc consts  --     0.0133                 0.0012                 0.0174
 IR Inten    --     1.6148                 0.1816                 1.8851
 Raman Activ --     0.0500                 0.0331                 0.1390

                    10                     11                     12
                     A                      A                      A
 Frequencies --    75.6785                90.2601               103.8633
 Red. masses --     6.5295                 6.4821                 5.8654
 Frc consts  --     0.0220                 0.0311                 0.0373
 IR Inten    --     0.5634                 0.9998                 2.1009
 Raman Activ --     0.1421                 0.0662                 0.1077

                    13                     14                     15
                     A                      A                      A
 Frequencies --   156.0254               163.3664               179.2947
 Red. masses --     6.2559                 5.9200                 7.9228
 Frc consts  --     0.0897                 0.0931                 0.1501
 IR Inten    --     1.0202                 7.9974                 1.4472
 Raman Activ --     0.3055                 0.2190                 1.2881

                    16                     17                     18
                     A                      A                      A
 Frequencies --   211.0199               226.7545               240.8305
 Red. masses --     6.6878                 4.9755                 4.9107
 Frc consts  --     0.1755                 0.1507                 0.1678
 IR Inten    --     0.4388                 5.7058                22.1423
 Raman Activ --     2.6329                 0.1147                 0.2298

                    19                     20                     21
                     A                      A                      A
 Frequencies --   267.5465               279.4419               293.0568
 Red. masses --     4.7709                 5.0585                 5.1783
 Frc consts  --     0.2012                 0.2327                 0.2620
 IR Inten    --     0.1779                 4.1139                 6.8592
 Raman Activ --     0.0819                 0.1299                 0.9187

                    22                     23                     24
                     A                      A                      A
 Frequencies --   308.7151               321.3561               323.5740
 Red. masses --     4.4979                 5.7985                 6.2174
 Frc consts  --     0.2526                 0.3528                 0.3835
 IR Inten    --     5.8047                 0.1222                 0.8196
 Raman Activ --     0.2753                 1.7717                 4.1534

                    25                     26                     27
                     A                      A                      A
 Frequencies --   345.5396               356.7115               374.2023
 Red. masses --     6.3892                 4.9858                 7.1749
 Frc consts  --     0.4495                 0.3738                 0.5919
 IR Inten    --     6.1900                 8.5494                 2.5291
 Raman Activ --     2.8916                 1.1894                 1.3839

                    28                     29                     30
                     A                      A                      A
 Frequencies --   401.7013               422.0651               430.3129
 Red. masses --     3.8344                 6.6733                 5.0936
 Frc consts  --     0.3645                 0.7004                 0.5557
 IR Inten    --    18.1763                 3.6114                 1.7881
 Raman Activ --     2.8799                 5.2939                 0.8242

                    31                     32                     33
                     A                      A                      A
 Frequencies --   446.9700               466.6064               483.6810
 Red. masses --     6.4344                 4.2754                 4.1326
 Frc consts  --     0.7574                 0.5484                 0.5696
 IR Inten    --     0.1287                 2.4462                11.6027
 Raman Activ --     4.5253                 4.0658                 0.7310

                    34                     35                     36
                     A                      A                      A
 Frequencies --   510.8170               527.1483               559.4241
 Red. masses --     4.1839                 3.1313                 4.4555
 Frc consts  --     0.6432                 0.5127                 0.8215
 IR Inten    --     7.0783                15.8500                23.5349
 Raman Activ --     1.7927                 2.8140                 1.2595

                    37                     38                     39
                     A                      A                      A
 Frequencies --   578.8315               595.2002               611.4268
 Red. masses --     2.9232                 4.5395                 4.2781
 Frc consts  --     0.5770                 0.9475                 0.9423
 IR Inten    --    42.1101                 2.1099                18.4473
 Raman Activ --     0.2753                 0.8923                 0.3293

                    40                     41                     42
                     A                      A                      A
 Frequencies --   631.0494               664.7268               682.6082
 Red. masses --     4.6196                 1.0577                 5.6180
 Frc consts  --     1.0839                 0.2754                 1.5423
 IR Inten    --    26.5024               122.8910                18.6615
 Raman Activ --     1.3080                 2.2684                 0.5497

                    43                     44                     45
                     A                      A                      A
 Frequencies --   702.4402               750.1107               752.2835
 Red. masses --     1.1004                 1.1000                 1.0718
 Frc consts  --     0.3199                 0.3647                 0.3574
 IR Inten    --   112.3805                98.3457                85.5281
 Raman Activ --     1.9426                 1.8031                 1.5916

                    46                     47                     48
                     A                      A                      A
 Frequencies --   821.8683               830.5991               849.1588
 Red. masses --     1.1318                 1.1750                 1.8445
 Frc consts  --     0.4504                 0.4776                 0.7836
 IR Inten    --   112.0430                54.9623                 2.6562
 Raman Activ --     3.5435                 0.6265                 0.9230

                    49                     50                     51
                     A                      A                      A
 Frequencies --   878.1032               932.4712               972.4194
 Red. masses --     1.4539                 5.5834                 4.0720
 Frc consts  --     0.6605                 2.8604                 2.2686
 IR Inten    --    22.6705               107.1262                86.0167
 Raman Activ --     0.3030                 1.8694                 0.7629

                    52                     53                     54
                     A                      A                      A
 Frequencies --   982.6857               990.2174               993.2368
 Red. masses --     5.6312                 4.7520                 5.7412
 Frc consts  --     3.2039                 2.7453                 3.3370
 IR Inten    --    43.2863                18.7637                55.8475
 Raman Activ --     1.6097                 1.4727                 1.0093

                    55                     56                     57
                     A                      A                      A
 Frequencies --  1008.0560              1025.7821              1036.9446
 Red. masses --     5.1575                 6.1249                 5.8887
 Frc consts  --     3.0879                 3.7971                 3.7306
 IR Inten    --   399.8895                55.8896                87.3942
 Raman Activ --     1.5062                 3.4028                 1.5242

                    58                     59                     60
                     A                      A                      A
 Frequencies --  1053.1336              1061.5292              1065.3294
 Red. masses --     4.2772                 2.5344                 5.0181
 Frc consts  --     2.7949                 1.6827                 3.3555
 IR Inten    --   442.6019                51.2026               107.2977
 Raman Activ --     4.0404                 9.7060                 3.5043

                    61                     62                     63
                     A                      A                      A
 Frequencies --  1076.6277              1088.1084              1093.9865
 Red. masses --     3.1437                 4.4802                 5.4188
 Frc consts  --     2.1469                 3.1253                 3.8210
 IR Inten    --    18.8293               106.0358                42.3121
 Raman Activ --    10.3903                 3.3449                 2.2387

                    64                     65                     66
                     A                      A                      A
 Frequencies --  1095.7255              1098.3557              1105.5011
 Red. masses --     2.2917                 2.6343                 3.4803
 Frc consts  --     1.6211                 1.8724                 2.5060
 IR Inten    --    68.1410               137.4789                25.1302
 Raman Activ --     2.0673                 2.3313                21.6708

                    67                     68                     69
                     A                      A                      A
 Frequencies --  1125.7218              1134.7734              1137.8153
 Red. masses --     2.2405                 2.9136                 2.7177
 Frc consts  --     1.6728                 2.2105                 2.0730
 IR Inten    --    48.2826                 2.7032                31.4041
 Raman Activ --     4.0581                 4.0615                 9.5153

                    70                     71                     72
                     A                      A                      A
 Frequencies --  1153.3814              1159.5258              1164.8616
 Red. masses --     2.5424                 2.1625                 2.8659
 Frc consts  --     1.9927                 1.7130                 2.2912
 IR Inten    --     8.5734                15.2141                26.9186
 Raman Activ --     3.3601                 5.5136                 1.1691

                    73                     74                     75
                     A                      A                      A
 Frequencies --  1169.8515              1178.5120              1189.6008
 Red. masses --     1.7605                 1.9577                 1.8526
 Frc consts  --     1.4195                 1.6020                 1.5447
 IR Inten    --     1.7138                 3.3961                18.8620
 Raman Activ --     4.4288                 1.1823                 3.1204

                    76                     77                     78
                     A                      A                      A
 Frequencies --  1206.2851              1214.6982              1222.1031
 Red. masses --     1.5058                 1.2635                 1.3401
 Frc consts  --     1.2910                 1.0984                 1.1792
 IR Inten    --    17.4550                 2.4456                 4.6053
 Raman Activ --     3.3667                 2.1739                 2.6697

                    79                     80                     81
                     A                      A                      A
 Frequencies --  1239.6499              1250.1758              1265.5504
 Red. masses --     1.3614                 1.2467                 1.2829
 Frc consts  --     1.2326                 1.1481                 1.2106
 IR Inten    --     6.5548                15.3812                 8.3962
 Raman Activ --     0.6770                 0.5039                 2.2752

                    82                     83                     84
                     A                      A                      A
 Frequencies --  1269.6054              1271.6376              1283.3820
 Red. masses --     1.2479                 1.2308                 1.2654
 Frc consts  --     1.1851                 1.1726                 1.2280
 IR Inten    --    22.4356                 7.8925                 3.7696
 Raman Activ --     2.7560                 1.7960                 4.3802

                    85                     86                     87
                     A                      A                      A
 Frequencies --  1294.2170              1300.6221              1306.5909
 Red. masses --     1.2778                 1.2869                 1.1632
 Frc consts  --     1.2610                 1.2826                 1.1700
 IR Inten    --    76.4554                12.3074                 1.4846
 Raman Activ --     5.4992                 3.0940                 4.9518

                    88                     89                     90
                     A                      A                      A
 Frequencies --  1308.9520              1312.5263              1324.1887
 Red. masses --     1.2295                 1.2644                 1.2654
 Frc consts  --     1.2412                 1.2834                 1.3073
 IR Inten    --    16.3754                14.6944                29.8280
 Raman Activ --     4.5251                 9.3743                 3.8686

                    91                     92                     93
                     A                      A                      A
 Frequencies --  1335.9151              1339.3073              1344.0662
 Red. masses --     1.2493                 1.2360                 1.2614
 Frc consts  --     1.3136                 1.3063                 1.3426
 IR Inten    --    11.3048                27.9958                59.4016
 Raman Activ --     2.4916                 8.9889                 4.3053

                    94                     95                     96
                     A                      A                      A
 Frequencies --  1356.3098              1364.9684              1375.6510
 Red. masses --     1.2983                 1.3877                 1.5569
 Frc consts  --     1.4072                 1.5233                 1.7359
 IR Inten    --    31.9682                13.0883                 3.9104
 Raman Activ --     0.4552                 3.9150                 8.5033

                    97                     98                     99
                     A                      A                      A
 Frequencies --  1395.9609              1400.6200              1402.6283
 Red. masses --     1.6705                 1.3123                 1.3600
 Frc consts  --     1.9179                 1.5167                 1.5764
 IR Inten    --     9.5239                 1.9681                 2.6531
 Raman Activ --     5.6980                 2.0804                13.1896

                   100                    101                    102
                     A                      A                      A
 Frequencies --  1420.6559              1449.8363              1451.9034
 Red. masses --     1.4669                 1.3722                 1.3503
 Frc consts  --     1.7443                 1.6994                 1.6771
 IR Inten    --    34.8716                26.2400                33.5847
 Raman Activ --     1.0943                 0.7696                 1.4808

                   103                    104                    105
                     A                      A                      A
 Frequencies --  1456.8176              1460.4585              1479.1720
 Red. masses --     1.4114                 1.4049                 1.0893
 Frc consts  --     1.7649                 1.7655                 1.4042
 IR Inten    --     1.3667                45.2119                12.3382
 Raman Activ --     1.2870                 2.0851                 4.4240

                   106                    107                    108
                     A                      A                      A
 Frequencies --  1484.4977              1507.3283              3243.9559
 Red. masses --     1.0948                 1.3222                 1.0715
 Frc consts  --     1.4215                 1.7699                 6.6436
 IR Inten    --     1.3916                64.9167              1109.0379
 Raman Activ --     4.4538                 2.2086               152.8624

                   109                    110                    111
                     A                      A                      A
 Frequencies --  3267.6184              3277.2260              3277.9644
 Red. masses --     1.0589                 1.0612                 1.0821
 Frc consts  --     6.6614                 6.7151                 6.8505
 IR Inten    --    31.9737                53.7086                 6.3942
 Raman Activ --    92.7730               153.6564                89.0671

                   112                    113                    114
                     A                      A                      A
 Frequencies --  3282.3320              3284.5665              3289.3575
 Red. masses --     1.0825                 1.0820                 1.0845
 Frc consts  --     6.8712                 6.8778                 6.9134
 IR Inten    --    12.7232                 7.2753                28.0368
 Raman Activ --    48.1450                 6.9295                13.3604

                   115                    116                    117
                     A                      A                      A
 Frequencies --  3290.4201              3291.5895              3298.2768
 Red. masses --     1.0838                 1.0848                 1.0853
 Frc consts  --     6.9133                 6.9246                 6.9560
 IR Inten    --     1.2708                11.3503                 4.3798
 Raman Activ --   100.7090               145.4937                31.6204

                   118                    119                    120
                     A                      A                      A
 Frequencies --  3303.7924              3309.9675              3318.0227
 Red. masses --     1.0851                 1.0865                 1.0893
 Frc consts  --     6.9780                 7.0131                 7.0655
 IR Inten    --    13.1318               103.1345                31.0054
 Raman Activ --   103.2496                 7.2792                13.4871

                   121                    122                    123
                     A                      A                      A
 Frequencies --  3321.6969              3337.3858              3350.1128
 Red. masses --     1.1023                 1.1079                 1.0659
 Frc consts  --     7.1657                 7.2708                 7.0485
 IR Inten    --    66.3202                40.3775               413.2709
 Raman Activ --    25.7272                41.9941               126.1884

                   124                    125                    126
                     A                      A                      A
 Frequencies --  3380.9179              3389.3024              3391.2730
 Red. masses --     1.0654                 1.0676                 1.0683
 Frc consts  --     7.1749                 7.2258                 7.2387
 IR Inten    --    35.4962                53.5152                71.7025
 Raman Activ --    95.5389               174.5116               147.2974

                   127                    128                    129
                     A                      A                      A
 Frequencies --  3397.2242              3918.1127              3919.4015
 Red. masses --     1.0646                 1.0678                 1.0675
 Frc consts  --     7.2394                 9.6579                 9.6620
 IR Inten    --    29.5789                76.6850                64.6081
 Raman Activ --   118.4019                76.9478               122.2294

 - Thermochemistry -
 -------------------
 Temperature   298.150 Kelvin.  Pressure   1.00000 Atm.
 Atom     1 has atomic number  8 and mass  15.99491

 Molecular mass:   342.11621 amu.
 Principal axes and moments of inertia in atomic units:
                           1         2         3
     Eigenvalues --  4565.96025********************
           X            0.99997  -0.00768   0.00057
           Y            0.00768   0.99996  -0.00338
           Z           -0.00055   0.00338   0.99999
 This molecule is an asymmetric top.
 Rotational symmetry number  1.
 Warning -- assumption of classical behavior for rotation
           may cause significant error
 Rotational temperatures (Kelvin)      0.01897     0.00711     0.00532
 Rotational constants (GHZ):           0.39526     0.14816     0.11084
    8 imaginary frequencies ignored.
 Zero-point vibrational energy     976839.7 (Joules/Mol)
                                  233.47029 (Kcal/Mol)
 Warning -- explicit consideration of  31 degrees of freedom as
           vibrations may cause significant error
 Vibrational temperatures:    100.03   108.88   129.86   149.44   224.49
          (Kelvin)            235.05   257.96   303.61   326.25   346.50
                              384.94   402.05   421.64   444.17   462.36
                              465.55   497.15   513.23   538.39   577.96
                              607.26   619.12   643.09   671.34   695.91
                              734.95   758.45   804.89   832.81   856.36
                              879.71   907.94   956.39   982.12  1010.65
                             1079.24  1082.37  1182.48  1195.05  1221.75
                             1263.39  1341.62  1399.09  1413.86  1424.70
                             1429.04  1450.37  1475.87  1491.93  1515.22
                             1527.30  1532.77  1549.03  1565.54  1574.00
                             1576.50  1580.29  1590.57  1619.66  1632.68
                             1637.06  1659.46  1668.30  1675.97  1683.15
                             1695.61  1711.57  1735.57  1747.68  1758.33
                             1783.58  1798.72  1820.84  1826.68  1829.60
                             1846.50  1862.09  1871.30  1879.89  1883.29
                             1888.43  1905.21  1922.08  1926.96  1933.81
                             1951.42  1963.88  1979.25  2008.47  2015.18
                             2018.07  2044.00  2085.99  2088.96  2096.03
                             2101.27  2128.20  2135.86  2168.71  4667.32
                             4701.37  4715.19  4716.25  4722.54  4725.75
                             4732.65  4734.17  4735.86  4745.48  4753.41
                             4762.30  4773.89  4779.17  4801.75  4820.06
                             4864.38  4876.44  4879.28  4887.84  5637.28
                             5639.14

 Zero-point correction=                           0.372059 (Hartree/Particle)
 Thermal correction to Energy=                    0.389666
 Thermal correction to Enthalpy=                  0.390611
 Thermal correction to Gibbs Free Energy=         0.327833
 Sum of electronic and zero-point Energies=          -1297.569754
 Sum of electronic and thermal Energies=             -1297.552147
 Sum of electronic and thermal Enthalpies=           -1297.551202
 Sum of electronic and thermal Free Energies=        -1297.613980

                     E (Thermal)             CV                S
                      KCal/Mol        Cal/Mol-Kelvin    Cal/Mol-Kelvin
 Total                  244.519             73.920            132.127
 Electronic               0.000              0.000              0.000
 Translational            0.889              2.981             43.384
 Rotational               0.889              2.981             35.159
 Vibrational            242.742             67.958             53.583
 Vibration     1          0.598              1.969              4.167
 Vibration     2          0.599              1.965              4.000
 Vibration     3          0.602              1.956              3.654
 Vibration     4          0.605              1.946              3.380
 Vibration     5          0.620              1.896              2.597
 Vibration     6          0.623              1.887              2.510
 Vibration     7          0.629              1.868              2.336
 Vibration     8          0.643              1.824              2.035
 Vibration     9          0.650              1.800              1.904
 Vibration    10          0.658              1.778              1.797
 Vibration    11          0.673              1.733              1.612
 Vibration    12          0.680              1.712              1.537
 Vibration    13          0.688              1.687              1.456
 Vibration    14          0.698              1.657              1.369
 Vibration    15          0.707              1.633              1.303
 Vibration    16          0.708              1.628              1.292
 Vibration    17          0.724              1.584              1.186
 Vibration    18          0.732              1.561              1.136
 Vibration    19          0.745              1.525              1.063
 Vibration    20          0.767              1.466              0.956
 Vibration    21          0.784              1.422              0.885
 Vibration    22          0.792              1.404              0.858
 Vibration    23          0.806              1.368              0.805
 Vibration    24          0.824              1.324              0.747
 Vibration    25          0.840              1.286              0.700
 Vibration    26          0.866              1.226              0.632
 Vibration    27          0.882              1.190              0.594
 Vibration    28          0.915              1.119              0.525
 Vibration    29          0.935              1.077              0.488
 Vibration    30          0.953              1.042              0.458
 Vibration    31          0.971              1.008              0.430

 Normal termination of Gaussian 09 at Tue Mar  1 16:12:36 2016.
