 Gaussian 09, Revision B.01,
 Gaussian 09:  EM64L-G09RevB.01 12-Aug-2010

 -------------------------------------------------
 # freq=raman b3lyp/6-31+g(2d,p) geom=connectivity
 -------------------------------------------------

 -----------------
 300 8649/8649.com
 -----------------
 Symbolic Z-matrix:
 Charge =  0 Multiplicity = 1

                         Standard orientation:
 ---------------------------------------------------------------------
 Center     Atomic      Atomic             Coordinates (Angstroms)
 Number     Number       Type             X           Y           Z
 ---------------------------------------------------------------------
      1          8           0        4.982594   -0.455992   -0.199306
      2          6           0        3.718202   -0.063554    0.354108
      3          6           0        3.266755    1.251422   -0.259395
      4          8           0        4.220516    2.260702    0.102987
      5          1           0        5.072337    1.831446   -0.199438
      6          6           0        1.833222    1.590621    0.113332
      7          8           0        1.328788    2.853913   -0.345866
      8          1           0        0.410639    3.022590    0.010274
      9          6           0        2.997980   -2.586719    0.126757
     10          8           0        4.181424   -3.298118   -0.263089
     11          1           0        4.015142   -4.261398   -0.050382
     12          6           0        2.749916   -1.115243   -0.161363
     13          8           0        1.386563   -0.807795    0.165705
     14          6           0        0.892313    0.463467   -0.280774
     15          8           0       -0.302654    0.549434    0.509722
     16          6           0       -1.568298    0.254020   -0.097793
     17          6           0       -1.941744   -1.155482    0.333100
     18          8           0       -0.949381   -2.087008   -0.119932
     19          1           0       -0.097481   -1.577899    0.007400
     20          6           0       -3.334085   -1.580246   -0.103706
     21          8           0       -3.784619   -2.849585    0.390564
     22          1           0       -4.643638   -3.126721   -0.039097
     23          6           0       -2.348382    2.656242   -0.071508
     24          8           0       -1.154114    3.387668    0.242355
     25          1           0       -1.306331    4.375872    0.245717
     26          6           0       -2.646731    1.227174    0.350351
     27          8           0       -3.901132    0.850437   -0.234867
     28          6           0       -4.346438   -0.467994    0.116070
     29          8           0       -5.534631   -0.658448   -0.665149
     30          1           0       -6.282826   -0.799616   -0.080448
     31          1           0        5.585661   -0.685425    0.511518
     32          1           0        2.175471   -3.117583   -0.305171
     33          1           0        2.918256   -2.700045    1.187748
     34          1           0        2.807115   -1.033695   -1.226717
     35          1           0        3.738801   -0.026237    1.423259
     36          1           0        3.303564    1.140859   -1.323031
     37          1           0        1.811208    1.636912    1.182103
     38          1           0        0.677491    0.463286   -1.328988
     39          1           0       -3.158933    3.246321    0.302275
     40          1           0       -2.426041    2.667963   -1.138622
     41          1           0       -2.732004    1.187818    1.416221
     42          1           0       -1.472311    0.290092   -1.162869
     43          1           0       -1.927938   -1.172776    1.402871
     44          1           0       -3.270874   -1.700148   -1.165086
     45          1           0       -4.620401   -0.465521    1.150399
 ---------------------------------------------------------------------

 SCF Done:  E(RB3LYP) =  -1297.97656250     A.U. after   13 cycles

 The electronic state is 1-A.
 Alpha  occ. eigenvalues --  -19.19344 -19.18441 -19.18296 -19.17981 -19.17938
 Alpha  occ. eigenvalues --  -19.17342 -19.16346 -19.16172 -19.15119 -19.13125
 Alpha  occ. eigenvalues --  -19.12968 -10.30858 -10.30615 -10.26636 -10.25769
 Alpha  occ. eigenvalues --  -10.25625 -10.25424 -10.25339 -10.24671 -10.24381
 Alpha  occ. eigenvalues --  -10.24336 -10.23980 -10.23932  -1.10456  -1.09101
 Alpha  occ. eigenvalues --   -1.05991  -1.05716  -1.04021  -1.03429  -1.02668
 Alpha  occ. eigenvalues --   -1.02497  -1.02004  -1.00397  -0.99730  -0.82410
 Alpha  occ. eigenvalues --   -0.80558  -0.79556  -0.78318  -0.72290  -0.70152
 Alpha  occ. eigenvalues --   -0.67433  -0.64899  -0.63571  -0.62519  -0.61147
 Alpha  occ. eigenvalues --   -0.60163  -0.56446  -0.56202  -0.55615  -0.54911
 Alpha  occ. eigenvalues --   -0.53934  -0.53683  -0.52686  -0.51886  -0.50933
 Alpha  occ. eigenvalues --   -0.50694  -0.50170  -0.49710  -0.48879  -0.47120
 Alpha  occ. eigenvalues --   -0.46205  -0.45402  -0.44293  -0.43945  -0.43191
 Alpha  occ. eigenvalues --   -0.42712  -0.41983  -0.41214  -0.40410  -0.39303
 Alpha  occ. eigenvalues --   -0.38633  -0.37772  -0.37577  -0.36764  -0.36075
 Alpha  occ. eigenvalues --   -0.35516  -0.34616  -0.34282  -0.33902  -0.33159
 Alpha  occ. eigenvalues --   -0.32481  -0.31550  -0.31058  -0.30502  -0.29726
 Alpha  occ. eigenvalues --   -0.29529  -0.28428  -0.28078  -0.27021  -0.26742
 Alpha  occ. eigenvalues --   -0.26156
 Alpha virt. eigenvalues --   -0.02443  -0.01777  -0.01749  -0.00023   0.00261
 Alpha virt. eigenvalues --    0.01001   0.02027   0.02148   0.02778   0.03273
 Alpha virt. eigenvalues --    0.03835   0.04336   0.04795   0.05358   0.05637

 Mulliken atomic charges:
              1
     1  O   -0.540178
     2  C    0.045303
     3  C    0.106953
     4  O   -0.550025
     5  H    0.345735
     6  C   -0.082704
     7  O   -0.597078
     8  H    0.432410
     9  C   -0.237179
    10  O   -0.523253
    11  H    0.336966
    12  C    0.130665
    13  O   -0.246656
    14  C    0.249562
    15  O   -0.222392
    16  C    0.040521
    17  C    0.304396
    18  O   -0.595688
    19  H    0.424138
    20  C    0.016248
    21  O   -0.550844
    22  H    0.337995
    23  C   -0.293488
    24  O   -0.583470
    25  H    0.369108
    26  C    0.013529
    27  O   -0.239947
    28  C    0.138697
    29  O   -0.526486
    30  H    0.334088
    31  H    0.340132
    32  H    0.153989
    33  H    0.136155
    34  H    0.110565
    35  H    0.125151
    36  H    0.121003
    37  H    0.125527
    38  H    0.134665
    39  H    0.145525
    40  H    0.160039
    41  H    0.123131
    42  H    0.122257
    43  H    0.117239
    44  H    0.129484
    45  H    0.118214
 Sum of Mulliken atomic charges =   0.00000

 Dipole moment (field-independent basis, Debye):
    X=             -2.7761    Y=              0.1721    Z=              2.2472  Tot=              3.5758
 Quadrupole moment (field-independent basis, Debye-Ang):
   XX=           -119.8557   YY=           -135.5870   ZZ=           -138.5841
   XY=            -15.7763   XZ=              0.4505   YZ=              0.1765

  Exact polarizability: 234.776   1.722 199.763   0.467  -0.428 143.203
 Approx polarizability: 274.862   1.084 259.735   0.195   0.099 238.508

 ******    7 imaginary frequencies (negative Signs) ******

                     1                      2                      3
                     A                      A                      A
 Frequencies --  -330.9403              -317.3293              -221.0762
 Red. masses --     1.6770                 1.7077                 1.1570
 Frc consts  --     0.1082                 0.1013                 0.0333
 IR Inten    --     5.6476                 1.9853                84.0692
 Raman Activ --     0.0932                 0.0164                 0.8526

                     4                      5                      6
                     A                      A                      A
 Frequencies --  -215.6330               -69.4828               -55.5916
 Red. masses --     1.2042                 7.0434                 6.1764
 Frc consts  --     0.0330                 0.0200                 0.0112
 IR Inten    --   117.0638                 1.0379                 0.5961
 Raman Activ --     0.7385                 0.0240                 0.0215

                     7                      8                      9
                     A                      A                      A
 Frequencies --   -32.2754                48.0424                66.5707
 Red. masses --     6.7644                 6.6028                 6.9632
 Frc consts  --     0.0042                 0.0090                 0.0182
 IR Inten    --     0.5791                 0.9385                 0.3664
 Raman Activ --     0.0232                 0.0304                 0.0176

                    10                     11                     12
                     A                      A                      A
 Frequencies --    81.2665                97.2349               103.3810
 Red. masses --     5.9163                 6.0474                 5.8674
 Frc consts  --     0.0230                 0.0337                 0.0369
 IR Inten    --     2.7436                 3.7052                 1.0711
 Raman Activ --     0.3537                 0.0590                 0.0688

                    13                     14                     15
                     A                      A                      A
 Frequencies --   150.9542               170.8583               186.5836
 Red. masses --     5.9642                 6.4200                 7.7558
 Frc consts  --     0.0801                 0.1104                 0.1591
 IR Inten    --     7.1719                 1.2640                 0.4400
 Raman Activ --     0.1953                 0.2148                 1.4220

                    16                     17                     18
                     A                      A                      A
 Frequencies --   212.5754               239.8911               262.4495
 Red. masses --     7.3519                 5.9004                 4.0501
 Frc consts  --     0.1957                 0.2001                 0.1644
 IR Inten    --     0.1793                 0.9138                15.8767
 Raman Activ --     3.0233                 0.0636                 0.3745

                    19                     20                     21
                     A                      A                      A
 Frequencies --   269.6718               280.8348               301.7849
 Red. masses --     4.8872                 5.3629                 5.4289
 Frc consts  --     0.2094                 0.2492                 0.2913
 IR Inten    --     4.0493                 1.1079                11.0088
 Raman Activ --     0.2477                 0.0817                 0.3751

                    22                     23                     24
                     A                      A                      A
 Frequencies --   304.5663               308.7898               320.2741
 Red. masses --     5.2982                 5.8098                 5.4519
 Frc consts  --     0.2896                 0.3264                 0.3295
 IR Inten    --     2.0900                 2.5613                 5.1224
 Raman Activ --     2.5767                 3.3328                 3.1198

                    25                     26                     27
                     A                      A                      A
 Frequencies --   349.3816               362.1036               379.8857
 Red. masses --     6.5905                 5.3845                 7.1777
 Frc consts  --     0.4740                 0.4160                 0.6103
 IR Inten    --     8.6809                 2.1175                 4.9016
 Raman Activ --     2.9258                 0.4162                 0.9267

                    28                     29                     30
                     A                      A                      A
 Frequencies --   396.8789               414.8035               430.7893
 Red. masses --     3.9005                 6.1726                 4.9549
 Frc consts  --     0.3620                 0.6258                 0.5418
 IR Inten    --    24.0489                 1.9300                 1.4505
 Raman Activ --     2.1840                 6.5190                 1.8823

                    31                     32                     33
                     A                      A                      A
 Frequencies --   440.6362               478.1681               483.7427
 Red. masses --     6.2979                 4.0482                 4.0542
 Frc consts  --     0.7204                 0.5453                 0.5590
 IR Inten    --     5.0027                 8.9580                 4.9147
 Raman Activ --     1.5455                 0.1641                 2.3097

                    34                     35                     36
                     A                      A                      A
 Frequencies --   505.0359               522.3200               562.0428
 Red. masses --     4.1376                 3.5283                 3.9171
 Frc consts  --     0.6218                 0.5671                 0.7290
 IR Inten    --     5.2853                12.8278                12.9783
 Raman Activ --     4.4382                 3.8033                 1.6612

                    37                     38                     39
                     A                      A                      A
 Frequencies --   578.8523               587.7541               607.0531
 Red. masses --     3.0577                 4.8827                 5.8869
 Frc consts  --     0.6036                 0.9938                 1.2782
 IR Inten    --    37.3764                 7.1069                16.7796
 Raman Activ --     0.7151                 0.4172                 0.6811

                    40                     41                     42
                     A                      A                      A
 Frequencies --   631.5411               650.9076               690.9936
 Red. masses --     4.0628                 1.0861                 5.5911
 Frc consts  --     0.9547                 0.2711                 1.5729
 IR Inten    --    27.2646               116.3054                 6.9018
 Raman Activ --     1.8530                 1.7567                 1.1412

                    43                     44                     45
                     A                      A                      A
 Frequencies --   702.4060               708.6628               785.7230
 Red. masses --     1.0611                 1.0699                 1.0959
 Frc consts  --     0.3084                 0.3166                 0.3986
 IR Inten    --    84.3072               112.8976                93.1261
 Raman Activ --     1.9520                 1.8369                 1.5065

                    46                     47                     48
                     A                      A                      A
 Frequencies --   801.7897               847.1574               850.7032
 Red. masses --     1.0803                 1.7715                 1.2931
 Frc consts  --     0.4092                 0.7491                 0.5514
 IR Inten    --    78.4612                11.5817                28.6577
 Raman Activ --     0.9694                 0.9956                 0.5885

                    49                     50                     51
                     A                      A                      A
 Frequencies --   857.8540               906.5496               947.9152
 Red. masses --     1.3880                 6.2185                 5.6001
 Frc consts  --     0.6018                 3.0111                 2.9647
 IR Inten    --    14.1109               105.5678                77.5665
 Raman Activ --     0.3758                 1.9617                 0.2512

                    52                     53                     54
                     A                      A                      A
 Frequencies --   969.1337               974.3657               981.1817
 Red. masses --     7.2389                 6.7222                 4.4029
 Frc consts  --     4.0058                 3.7601                 2.4974
 IR Inten    --     4.0769               186.6752                22.2281
 Raman Activ --     4.7821                 1.0001                 0.5661

                    55                     56                     57
                     A                      A                      A
 Frequencies --  1000.8937              1006.1731              1019.1859
 Red. masses --     6.6012                 6.2492                 5.6637
 Frc consts  --     3.8963                 3.7275                 3.4662
 IR Inten    --   493.7716                15.0200               176.4782
 Raman Activ --     3.1316                 1.9110                 2.9164

                    58                     59                     60
                     A                      A                      A
 Frequencies --  1032.2095              1047.6620              1062.6649
 Red. masses --     5.2458                 5.3865                 5.2363
 Frc consts  --     3.2930                 3.4833                 3.4839
 IR Inten    --   302.9203               118.6745                30.5564
 Raman Activ --     1.4048                 5.2024                 5.6445

                    61                     62                     63
                     A                      A                      A
 Frequencies --  1065.3421              1072.9842              1079.2523
 Red. masses --     3.1471                 4.2434                 4.7073
 Frc consts  --     2.1045                 2.8784                 3.2305
 IR Inten    --    63.5093                13.1698                28.0035
 Raman Activ --     5.6954                 7.7641                16.7596

                    64                     65                     66
                     A                      A                      A
 Frequencies --  1093.2473              1114.4926              1115.3737
 Red. masses --     3.1199                 3.4279                 3.2976
 Frc consts  --     2.1970                 2.5086                 2.4170
 IR Inten    --    50.5243                 2.8607                22.8533
 Raman Activ --     5.6007                 4.2455                 8.7091

                    67                     68                     69
                     A                      A                      A
 Frequencies --  1124.2493              1133.2507              1140.9098
 Red. masses --     2.7651                 2.0689                 2.4277
 Frc consts  --     2.0592                 1.5655                 1.8619
 IR Inten    --     6.3994                66.4094                87.5691
 Raman Activ --     4.9809                 3.6986                 8.4335

                    70                     71                     72
                     A                      A                      A
 Frequencies --  1143.2618              1151.4430              1165.4297
 Red. masses --     2.7824                 2.0111                 2.2157
 Frc consts  --     2.1427                 1.5710                 1.7731
 IR Inten    --    30.7448                 7.8923                 2.1013
 Raman Activ --     3.8252                 3.1032                 8.1930

                    73                     74                     75
                     A                      A                      A
 Frequencies --  1170.3446              1179.8087              1194.3850
 Red. masses --     1.7054                 2.0042                 1.5527
 Frc consts  --     1.3763                 1.6437                 1.3050
 IR Inten    --     4.9980                25.1689                21.7477
 Raman Activ --     0.9299                 1.2088                 0.5892

                    76                     77                     78
                     A                      A                      A
 Frequencies --  1205.4625              1213.3227              1226.9862
 Red. masses --     1.5704                 1.3280                 1.1653
 Frc consts  --     1.3445                 1.1518                 1.0336
 IR Inten    --     5.3863                12.6978                 5.3225
 Raman Activ --     0.6726                 2.0268                 2.0339

                    79                     80                     81
                     A                      A                      A
 Frequencies --  1235.0821              1253.1406              1265.3639
 Red. masses --     1.3852                 1.2239                 1.2851
 Frc consts  --     1.2450                 1.1324                 1.2123
 IR Inten    --     3.8710                 3.6750                20.0653
 Raman Activ --     0.2198                 1.8082                 0.5861

                    82                     83                     84
                     A                      A                      A
 Frequencies --  1280.6910              1289.4919              1301.3314
 Red. masses --     1.2125                 1.2828                 1.3293
 Frc consts  --     1.1717                 1.2568                 1.3263
 IR Inten    --    10.1809                12.2588                26.3254
 Raman Activ --     1.6630                 2.5310                 0.5466

                    85                     86                     87
                     A                      A                      A
 Frequencies --  1303.5531              1307.0380              1309.3186
 Red. masses --     1.2145                 1.2495                 1.3396
 Frc consts  --     1.2159                 1.2577                 1.3531
 IR Inten    --     3.4196                 6.5879                26.9955
 Raman Activ --     1.4664                 6.0025                 2.9782

                    88                     89                     90
                     A                      A                      A
 Frequencies --  1326.1413              1329.2654              1335.7452
 Red. masses --     1.2295                 1.3080                 1.2927
 Frc consts  --     1.2740                 1.3618                 1.3589
 IR Inten    --     0.5984                42.7324                17.9930
 Raman Activ --    13.4826                 1.9033                11.9071

                    91                     92                     93
                     A                      A                      A
 Frequencies --  1339.9144              1352.7007              1359.6876
 Red. masses --     1.2616                 1.1527                 1.2748
 Frc consts  --     1.3346                 1.2427                 1.3886
 IR Inten    --    18.1673                10.2326                26.2514
 Raman Activ --     3.7395                 1.1892                 5.1759

                    94                     95                     96
                     A                      A                      A
 Frequencies --  1363.6426              1366.2433              1379.3108
 Red. masses --     1.3297                 1.2014                 1.4119
 Frc consts  --     1.4568                 1.3212                 1.5826
 IR Inten    --     6.2886                59.5910                 4.1559
 Raman Activ --     7.3106                 2.3951                 4.9809

                    97                     98                     99
                     A                      A                      A
 Frequencies --  1385.4363              1393.1302              1411.3324
 Red. masses --     1.3654                 1.6347                 1.4422
 Frc consts  --     1.5441                 1.8692                 1.6925
 IR Inten    --     5.7286                 4.9021                 6.2958
 Raman Activ --     2.8713                 6.1185                 4.3984

                   100                    101                    102
                     A                      A                      A
 Frequencies --  1419.9776              1457.6976              1471.7717
 Red. masses --     1.4773                 1.3261                 1.0885
 Frc consts  --     1.7550                 1.6602                 1.3891
 IR Inten    --    29.4805                30.6130                 4.2542
 Raman Activ --     1.6966                 1.0657                 5.0542

                   103                    104                    105
                     A                      A                      A
 Frequencies --  1472.3636              1484.0618              1489.5036
 Red. masses --     1.0906                 1.3357                 1.2654
 Frc consts  --     1.3930                 1.7332                 1.6541
 IR Inten    --     4.0647                22.4498                 8.6599
 Raman Activ --     3.8329                 0.4402                 1.0431

                   106                    107                    108
                     A                      A                      A
 Frequencies --  1506.7294              1543.8033              3235.7828
 Red. masses --     1.3225                 1.2206                 1.0692
 Frc consts  --     1.7690                 1.7140                 6.5960
 IR Inten    --    68.4442                68.3279               482.5604
 Raman Activ --     2.5246                 2.3274               218.4959

                   109                    110                    111
                     A                      A                      A
 Frequencies --  3249.2279              3254.6360              3260.2668
 Red. masses --     1.0653                 1.0672                 1.0777
 Frc consts  --     6.6264                 6.6604                 6.7492
 IR Inten    --   185.6081               981.7925                 6.6314
 Raman Activ --    52.7480               160.8352                 2.5675

                   112                    113                    114
                     A                      A                      A
 Frequencies --  3262.8580              3265.5207              3268.9946
 Red. masses --     1.0621                 1.0801                 1.0815
 Frc consts  --     6.6620                 6.7858                 6.8094
 IR Inten    --    39.3208                44.1316                21.5397
 Raman Activ --   149.4529               170.4718                57.4389

                   115                    116                    117
                     A                      A                      A
 Frequencies --  3272.1716              3274.4454              3279.1728
 Red. masses --     1.0782                 1.0826                 1.0835
 Frc consts  --     6.8020                 6.8391                 6.8642
 IR Inten    --   334.4033                49.0760                58.8136
 Raman Activ --    76.2948               101.5011                 3.5131

                   118                    119                    120
                     A                      A                      A
 Frequencies --  3283.8416              3295.7174              3299.8518
 Red. masses --     1.0853                 1.0876                 1.0890
 Frc consts  --     6.8952                 6.9600                 6.9865
 IR Inten    --    32.9748                20.8036                47.0491
 Raman Activ --    17.4750                13.6000                78.4532

                   121                    122                    123
                     A                      A                      A
 Frequencies --  3301.8518              3306.6081              3312.5418
 Red. masses --     1.0957                 1.0930                 1.1026
 Frc consts  --     7.0383                 7.0410                 7.1286
 IR Inten    --     7.0628                94.3280                65.6784
 Raman Activ --    21.4816                20.5603                38.4259

                   124                    125                    126
                     A                      A                      A
 Frequencies --  3351.9568              3363.1461              3374.7468
 Red. masses --     1.0646                 1.0669                 1.0667
 Frc consts  --     7.0476                 7.1099                 7.1575
 IR Inten    --    38.1406                51.4402                65.4654
 Raman Activ --    85.2538               151.4720               121.1154

                   127                    128                    129
                     A                      A                      A
 Frequencies --  3375.5474              3891.4054              3892.6039
 Red. masses --     1.0679                 1.0675                 1.0675
 Frc consts  --     7.1690                 9.5245                 9.5298
 IR Inten    --    67.0724                84.3419                73.2322
 Raman Activ --   183.0507               106.2867               104.2408

 - Thermochemistry -
 -------------------
 Temperature   298.150 Kelvin.  Pressure   1.00000 Atm.
 Atom     1 has atomic number  8 and mass  15.99491

 Molecular mass:   342.11621 amu.
 Principal axes and moments of inertia in atomic units:
                           1         2         3
     Eigenvalues --  4507.33504********************
           X            0.99997  -0.00793  -0.00029
           Y            0.00793   0.99997  -0.00114
           Z            0.00030   0.00114   1.00000
 This molecule is an asymmetric top.
 Rotational symmetry number  1.
 Warning -- assumption of classical behavior for rotation
           may cause significant error
 Rotational temperatures (Kelvin)      0.01922     0.00704     0.00526
 Rotational constants (GHZ):           0.40040     0.14674     0.10958
    7 imaginary frequencies ignored.
 Zero-point vibrational energy     974817.5 (Joules/Mol)
                                  232.98697 (Kcal/Mol)
 Warning -- explicit consideration of  32 degrees of freedom as
           vibrations may cause significant error
 Vibrational temperatures:     69.12    95.78   116.92   139.90   148.74
          (Kelvin)            217.19   245.83   268.45   305.85   345.15
                              377.61   388.00   404.06   434.20   438.20
                              444.28   460.80   502.68   520.99   546.57
                              571.02   596.81   619.81   633.98   687.98
                              696.00   726.63   751.50   808.65   832.84
                              845.65   873.41   908.65   936.51   994.18
                             1010.60  1019.61  1130.48  1153.60  1218.87
                             1223.97  1234.26  1304.32  1363.84  1394.37
                             1401.89  1411.70  1440.06  1447.66  1466.38
                             1485.12  1507.35  1528.94  1532.79  1543.78
                             1552.80  1572.94  1603.50  1604.77  1617.54
                             1630.49  1641.51  1644.90  1656.67  1676.79
                             1683.86  1697.48  1718.45  1734.39  1745.70
                             1765.36  1777.01  1802.99  1820.57  1842.63
                             1855.29  1872.32  1875.52  1880.53  1883.82
                             1908.02  1912.51  1921.84  1927.84  1946.23
                             1956.28  1961.98  1965.72  1984.52  1993.33
                             2004.40  2030.59  2043.03  2097.30  2117.55
                             2118.40  2135.23  2143.06  2167.84  2221.19
                             4655.56  4674.91  4682.69  4690.79  4694.52
                             4698.35  4703.35  4707.92  4711.19  4717.99
                             4724.71  4741.80  4747.74  4750.62  4757.47
                             4766.00  4822.71  4838.81  4855.50  4856.65
                             5598.86  5600.58

 Zero-point correction=                           0.371288 (Hartree/Particle)
 Thermal correction to Energy=                    0.389694
 Thermal correction to Enthalpy=                  0.390638
 Thermal correction to Gibbs Free Energy=         0.325732
 Sum of electronic and zero-point Energies=          -1297.605274
 Sum of electronic and thermal Energies=             -1297.586868
 Sum of electronic and thermal Enthalpies=           -1297.585924
 Sum of electronic and thermal Free Energies=        -1297.650831

                     E (Thermal)             CV                S
                      KCal/Mol        Cal/Mol-Kelvin    Cal/Mol-Kelvin
 Total                  244.537             76.037            136.607
 Electronic               0.000              0.000              0.000
 Translational            0.889              2.981             43.384
 Rotational               0.889              2.981             35.167
 Vibrational            242.759             70.076             58.056
 Vibration     1          0.595              1.978              4.896
 Vibration     2          0.598              1.970              4.252
 Vibration     3          0.600              1.962              3.860
 Vibration     4          0.603              1.951              3.509
 Vibration     5          0.605              1.946              3.390
 Vibration     6          0.618              1.902              2.660
 Vibration     7          0.626              1.878              2.426
 Vibration     8          0.632              1.858              2.262
 Vibration     9          0.644              1.822              2.021
 Vibration    10          0.657              1.779              1.804
 Vibration    11          0.670              1.742              1.645
 Vibration    12          0.674              1.729              1.598
 Vibration    13          0.681              1.709              1.529
 Vibration    14          0.694              1.670              1.407
 Vibration    15          0.695              1.665              1.392
 Vibration    16          0.698              1.657              1.369
 Vibration    17          0.706              1.635              1.309
 Vibration    18          0.727              1.577              1.169
 Vibration    19          0.736              1.550              1.113
 Vibration    20          0.750              1.513              1.040
 Vibration    21          0.763              1.477              0.974
 Vibration    22          0.778              1.438              0.910
 Vibration    23          0.792              1.403              0.856
 Vibration    24          0.801              1.382              0.825
 Vibration    25          0.835              1.298              0.715
 Vibration    26          0.840              1.286              0.700
 Vibration    27          0.860              1.239              0.646
 Vibration    28          0.877              1.201              0.605
 Vibration    29          0.918              1.113              0.520
 Vibration    30          0.935              1.077              0.487
 Vibration    31          0.945              1.058              0.471
 Vibration    32          0.966              1.017              0.438

 Normal termination of Gaussian 09 at Wed Mar 23 06:42:25 2016.
