 Gaussian 09, Revision B.01,
 Gaussian 09:  EM64L-G09RevB.01 12-Aug-2010

 --------------------------------------------------
 # freq=raman b3lyp/6-31+g(2df,p) geom=connectivity
 --------------------------------------------------

 ------------
 550 8000.com
 ------------
 Symbolic Z-matrix:
 Charge =  0 Multiplicity = 1

                         Standard orientation:
 ---------------------------------------------------------------------
 Center     Atomic      Atomic             Coordinates (Angstroms)
 Number     Number       Type             X           Y           Z
 ---------------------------------------------------------------------
      1          8           0       -5.124124    0.295281   -0.587269
      2          6           0       -3.874567    0.050805    0.073488
      3          6           0       -3.283944   -1.226405   -0.500493
      4          8           0       -3.884983   -2.400461    0.063088
      5          1           0       -4.835703   -2.097277    0.126023
      6          6           0       -1.862860   -1.512187   -0.042923
      7          8           0       -1.325119   -2.482782   -0.952916
      8          1           0       -1.875401   -3.316286   -1.014157
      9          6           0       -3.380573    2.510794    0.335619
     10          8           0       -2.588716    3.698555    0.191897
     11          1           0       -3.190276    4.495435    0.252738
     12          6           0       -2.848865    1.157599   -0.106312
     13          8           0       -1.668536    0.741857    0.597162
     14          6           0       -0.895958   -0.345578    0.067217
     15          8           0        0.289810   -0.736127    0.775354
     16          6           0        1.525234   -0.292243    0.195301
     17          6           0        1.950423    1.164906    0.281463
     18          8           0        0.944652    2.097001   -0.141246
     19          1           0        0.037272    1.817606    0.171520
     20          6           0        3.241108    1.453045   -0.467146
     21          8           0        3.576154    2.824955   -0.212053
     22          1           0        2.651791    3.204728   -0.193483
     23          6           0        2.271446   -2.578590    0.837411
     24          8           0        1.559913   -3.389587   -0.108448
     25          1           0        0.627496   -3.040185   -0.203556
     26          6           0        2.659879   -1.110257    0.790648
     27          8           0        3.786582   -0.825321   -0.050678
     28          6           0        4.354111    0.493188   -0.077658
     29          8           0        5.491479    0.325934   -0.935958
     30          1           0        6.161799   -0.190034   -0.482031
     31          1           0        4.696957    0.743595    0.904509
     32          1           0        3.054283    1.341839   -1.514824
     33          1           0        2.141788    1.366546    1.314720
     34          1           0        1.477025   -0.534969   -0.845689
     35          1           0        2.862559   -0.765647    1.783152
     36          1           0        1.707479   -2.672961    1.741808
     37          1           0        3.199553   -3.091979    0.978652
     38          1           0       -5.845683    0.002793   -0.025662
     39          1           0       -3.628795    2.424893    1.372878
     40          1           0       -4.292598    2.677285   -0.198601
     41          1           0       -2.608881    1.221649   -1.147084
     42          1           0       -4.055751   -0.088498    1.118796
     43          1           0       -3.351542   -1.238230   -1.568290
     44          1           0       -1.922752   -1.970105    0.922283
     45          1           0       -0.600136   -0.075103   -0.924868
 ---------------------------------------------------------------------

 SCF Done:  E(RB3LYP) =  -1297.99955580     A.U. after   14 cycles

 The electronic state is 1-A.
 Alpha  occ. eigenvalues --  -19.19944 -19.19706 -19.19544 -19.19016 -19.17780
 Alpha  occ. eigenvalues --  -19.17325 -19.16356 -19.15871 -19.15422 -19.14791
 Alpha  occ. eigenvalues --  -19.14007 -10.31746 -10.29408 -10.28142 -10.27893
 Alpha  occ. eigenvalues --  -10.26427 -10.25925 -10.25731 -10.24886 -10.24833
 Alpha  occ. eigenvalues --  -10.24807 -10.24351 -10.22320  -1.10405  -1.08300
 Alpha  occ. eigenvalues --   -1.07203  -1.06471  -1.05641  -1.04064  -1.03606
 Alpha  occ. eigenvalues --   -1.03571  -1.01052  -1.00770  -0.99924  -0.83291
 Alpha  occ. eigenvalues --   -0.81600  -0.79137  -0.78139  -0.72916  -0.70212
 Alpha  occ. eigenvalues --   -0.68538  -0.65076  -0.64950  -0.62647  -0.61735
 Alpha  occ. eigenvalues --   -0.60247  -0.57825  -0.57233  -0.55847  -0.54577
 Alpha  occ. eigenvalues --   -0.54476  -0.53772  -0.53122  -0.52681  -0.51101
 Alpha  occ. eigenvalues --   -0.50271  -0.49824  -0.49141  -0.47608  -0.47124
 Alpha  occ. eigenvalues --   -0.46150  -0.45568  -0.45360  -0.44968  -0.44134
 Alpha  occ. eigenvalues --   -0.43668  -0.42892  -0.41400  -0.40843  -0.39768
 Alpha  occ. eigenvalues --   -0.39150  -0.38423  -0.37940  -0.37236  -0.37143
 Alpha  occ. eigenvalues --   -0.36025  -0.35539  -0.34898  -0.34043  -0.33532
 Alpha  occ. eigenvalues --   -0.32658  -0.32209  -0.31304  -0.30936  -0.30614
 Alpha  occ. eigenvalues --   -0.29918  -0.29591  -0.28757  -0.27943  -0.27425
 Alpha  occ. eigenvalues --   -0.26014
 Alpha virt. eigenvalues --   -0.04592  -0.02269  -0.00530   0.00091   0.00503
 Alpha virt. eigenvalues --    0.01265   0.01666   0.02036   0.02997   0.03145
 Alpha virt. eigenvalues --    0.03828   0.04068   0.04817   0.05183   0.05555

 Mulliken atomic charges:
              1
     1  O   -0.435686
     2  C   -0.431331
     3  C    0.067901
     4  O   -0.450867
     5  H    0.315073
     6  C    0.230447
     7  O   -0.526086
     8  H    0.379960
     9  C   -0.366967
    10  O   -0.441453
    11  H    0.346279
    12  C    0.357803
    13  O   -0.110362
    14  C   -0.254655
    15  O   -0.105978
    16  C   -0.126286
    17  C   -0.081931
    18  O   -0.499167
    19  H    0.398455
    20  C    0.058199
    21  O   -0.441923
    22  H    0.362545
    23  C   -0.428901
    24  O   -0.431053
    25  H    0.388887
    26  C    0.047489
    27  O   -0.093704
    28  C    0.018237
    29  O   -0.423154
    30  H    0.339238
    31  H    0.123904
    32  H    0.137664
    33  H    0.124538
    34  H    0.140350
    35  H    0.127098
    36  H    0.150383
    37  H    0.149404
    38  H    0.345205
    39  H    0.146078
    40  H    0.171054
    41  H    0.131862
    42  H    0.146060
    43  H    0.155464
    44  H    0.151324
    45  H    0.138601
 Sum of Mulliken atomic charges =   0.00000

 Dipole moment (field-independent basis, Debye):
    X=             -8.8674    Y=              0.3284    Z=              3.2350  Tot=              9.4448
 Quadrupole moment (field-independent basis, Debye-Ang):
   XX=           -111.2528   YY=           -149.9363   ZZ=           -140.6063
   XY=            -10.3518   XZ=              6.8691   YZ=             -0.1115

  Exact polarizability: 230.281   1.118 198.709  -0.449  -0.615 145.672
 Approx polarizability: 275.354  -0.092 260.728  -1.487  -1.129 238.276

 ******    8 imaginary frequencies (negative Signs) ******

                     1                      2                      3
                     A                      A                      A
 Frequencies --  -285.2699              -266.6142              -255.1713
 Red. masses --     1.6799                 1.4132                 1.1376
 Frc consts  --     0.0805                 0.0592                 0.0436
 IR Inten    --     3.9992                24.8779               102.4195
 Raman Activ --     0.0711                 0.2524                 1.2248

                     4                      5                      6
                     A                      A                      A
 Frequencies --  -210.8427               -97.0648               -72.4194
 Red. masses --     1.3493                 5.3576                 6.3224
 Frc consts  --     0.0353                 0.0297                 0.0195
 IR Inten    --    87.9742                 2.8909                 0.1736
 Raman Activ --     0.6789                 0.0284                 0.1452

                     7                      8                      9
                     A                      A                      A
 Frequencies --   -49.0578               -12.4603                41.9374
 Red. masses --     6.1182                 6.1554                 6.4428
 Frc consts  --     0.0087                 0.0006                 0.0067
 IR Inten    --     2.2079                 2.2341                 4.3703
 Raman Activ --     0.0478                 0.0283                 0.0607

                    10                     11                     12
                     A                      A                      A
 Frequencies --    46.7334                84.8348                99.8930
 Red. masses --     6.9313                 6.5140                 5.8578
 Frc consts  --     0.0089                 0.0276                 0.0344
 IR Inten    --     0.4577                 3.4655                 0.4051
 Raman Activ --     0.1730                 0.0831                 0.2284

                    13                     14                     15
                     A                      A                      A
 Frequencies --   125.5563               146.0558               175.8584
 Red. masses --     6.6528                 7.1917                 6.5173
 Frc consts  --     0.0618                 0.0904                 0.1188
 IR Inten    --     1.8631                 1.3110                 1.0485
 Raman Activ --     0.7780                 0.6829                 0.1960

                    16                     17                     18
                     A                      A                      A
 Frequencies --   188.1989               228.8515               239.1197
 Red. masses --     5.9105                 5.7660                 6.1054
 Frc consts  --     0.1233                 0.1779                 0.2057
 IR Inten    --     5.5255                 0.9174                 1.0492
 Raman Activ --     0.2257                 2.1545                 1.7995

                    19                     20                     21
                     A                      A                      A
 Frequencies --   244.7472               264.7795               276.3436
 Red. masses --     5.3424                 4.2062                 4.3503
 Frc consts  --     0.1885                 0.1737                 0.1957
 IR Inten    --    14.6864                14.2478                 3.6597
 Raman Activ --     1.2992                 0.3030                 0.8236

                    22                     23                     24
                     A                      A                      A
 Frequencies --   296.6204               312.8722               331.5612
 Red. masses --     6.9309                 5.0399                 5.8742
 Frc consts  --     0.3593                 0.2907                 0.3805
 IR Inten    --     4.0942                 1.1695                 5.4461
 Raman Activ --     1.6169                 0.2584                 1.1487

                    25                     26                     27
                     A                      A                      A
 Frequencies --   340.8298               367.4933               384.8030
 Red. masses --     5.6589                 4.7741                 4.9683
 Frc consts  --     0.3873                 0.3799                 0.4334
 IR Inten    --     3.2935                 0.6546                15.2674
 Raman Activ --     6.8373                 0.3624                 4.2700

                    28                     29                     30
                     A                      A                      A
 Frequencies --   391.5383               427.1998               439.6784
 Red. masses --     6.0044                 5.9665                 5.0404
 Frc consts  --     0.5423                 0.6416                 0.5741
 IR Inten    --     8.8247                 1.8291                 0.0200
 Raman Activ --     2.2156                 2.8408                 1.3223

                    31                     32                     33
                     A                      A                      A
 Frequencies --   458.1514               473.9797               496.0683
 Red. masses --     6.2935                 4.2637                 4.7438
 Frc consts  --     0.7783                 0.5644                 0.6878
 IR Inten    --     6.8532                 9.3840                 7.5184
 Raman Activ --     1.2714                 2.0768                 4.7131

                    34                     35                     36
                     A                      A                      A
 Frequencies --   525.3287               551.4237               564.1662
 Red. masses --     4.0593                 4.0255                 4.1586
 Frc consts  --     0.6600                 0.7212                 0.7799
 IR Inten    --    18.0116                28.3433                10.0091
 Raman Activ --     2.1090                 1.2456                 0.4553

                    37                     38                     39
                     A                      A                      A
 Frequencies --   572.9856               590.5569               626.5674
 Red. masses --     5.3045                 3.5263                 4.3779
 Frc consts  --     1.0261                 0.7246                 1.0126
 IR Inten    --     4.4798                13.3116                24.0657
 Raman Activ --     5.6281                 0.3766                 0.4623

                    40                     41                     42
                     A                      A                      A
 Frequencies --   660.0299               687.9806               691.0784
 Red. masses --     3.3796                 3.4668                 1.0628
 Frc consts  --     0.8675                 0.9668                 0.2991
 IR Inten    --    27.1309                 7.4612               104.3137
 Raman Activ --     0.4735                 0.7755                 1.8041

                    43                     44                     45
                     A                      A                      A
 Frequencies --   723.8521               753.0540               767.7416
 Red. masses --     1.1165                 1.0684                 1.0904
 Frc consts  --     0.3447                 0.3570                 0.3787
 IR Inten    --    98.8992                46.3750               108.1465
 Raman Activ --     1.6479                 0.8810                 0.9650

                    46                     47                     48
                     A                      A                      A
 Frequencies --   797.9566               812.8815               818.8916
 Red. masses --     1.0774                 2.6616                 2.8878
 Frc consts  --     0.4042                 1.0362                 1.1410
 IR Inten    --    40.2853                 6.1840                11.9367
 Raman Activ --     0.4640                 1.4582                 3.2376

                    49                     50                     51
                     A                      A                      A
 Frequencies --   848.7143               881.3550               938.7113
 Red. masses --     1.0675                 2.8120                 6.8966
 Frc consts  --     0.4530                 1.2870                 3.5805
 IR Inten    --   119.4559                12.8247               282.3340
 Raman Activ --     0.6403                 1.5860                 2.2301

                    52                     53                     54
                     A                      A                      A
 Frequencies --   954.2280               978.2968               990.3261
 Red. masses --     7.3705                 4.7401                 6.4276
 Frc consts  --     3.9541                 2.6729                 3.7141
 IR Inten    --   184.6768                65.2092               151.2553
 Raman Activ --     2.2716                 0.6095                 1.5944

                    55                     56                     57
                     A                      A                      A
 Frequencies --  1004.1058              1016.8230              1023.8010
 Red. masses --     5.2340                 4.3930                 5.0520
 Frc consts  --     3.1092                 2.6761                 3.1199
 IR Inten    --    54.3966               231.6373               242.1390
 Raman Activ --     2.3417                 1.5338                 0.6661

                    58                     59                     60
                     A                      A                      A
 Frequencies --  1031.3315              1038.3351              1049.6864
 Red. masses --     3.5098                 3.2163                 5.5708
 Frc consts  --     2.1995                 2.0431                 3.6165
 IR Inten    --   136.5348                73.6231                95.1304
 Raman Activ --     2.4916                 9.9302                 0.6115

                    61                     62                     63
                     A                      A                      A
 Frequencies --  1053.3707              1067.3874              1071.4300
 Red. masses --     4.3288                 4.5567                 3.7978
 Frc consts  --     2.8299                 3.0587                 2.5687
 IR Inten    --    66.2149                74.0202                50.8141
 Raman Activ --     3.9546                 2.1314                13.9879

                    64                     65                     66
                     A                      A                      A
 Frequencies --  1086.2814              1092.4522              1102.6155
 Red. masses --     3.7298                 3.0771                 3.4428
 Frc consts  --     2.5931                 2.1637                 2.4661
 IR Inten    --    23.5957                31.1810                32.3925
 Raman Activ --     2.4581                 5.1873                 5.0623

                    67                     68                     69
                     A                      A                      A
 Frequencies --  1113.3052              1125.1451              1135.3245
 Red. masses --     3.2846                 2.3568                 2.8075
 Frc consts  --     2.3986                 1.7579                 2.1321
 IR Inten    --    38.6702                 1.9637                43.8707
 Raman Activ --     6.2224                 4.6304                 2.6718

                    70                     71                     72
                     A                      A                      A
 Frequencies --  1139.9191              1149.8232              1157.0704
 Red. masses --     2.5388                 1.7542                 2.0010
 Frc consts  --     1.9437                 1.3664                 1.5784
 IR Inten    --    24.0858                27.8446                12.4230
 Raman Activ --     1.7277                 6.9937                 1.8450

                    73                     74                     75
                     A                      A                      A
 Frequencies --  1172.3100              1178.8359              1183.3390
 Red. masses --     3.0047                 1.5510                 1.8967
 Frc consts  --     2.4329                 1.2699                 1.5648
 IR Inten    --    45.0897                 8.5640                13.5169
 Raman Activ --     1.0469                 1.7640                 2.2350

                    76                     77                     78
                     A                      A                      A
 Frequencies --  1203.9211              1214.1090              1231.9252
 Red. masses --     1.3496                 1.4302                 1.2783
 Frc consts  --     1.1525                 1.2421                 1.1430
 IR Inten    --     4.7906                 6.5423                10.8501
 Raman Activ --     2.6540                 1.9826                 1.4926

                    79                     80                     81
                     A                      A                      A
 Frequencies --  1234.4172              1255.3970              1262.9038
 Red. masses --     1.1795                 1.2705                 1.3407
 Frc consts  --     1.0589                 1.1797                 1.2599
 IR Inten    --     1.6494                15.2482                12.6530
 Raman Activ --     1.5454                 1.0886                 1.1720

                    82                     83                     84
                     A                      A                      A
 Frequencies --  1271.7287              1279.9094              1287.9799
 Red. masses --     1.1524                 1.2809                 1.2710
 Frc consts  --     1.0981                 1.2363                 1.2423
 IR Inten    --     7.6070                34.1002                 2.4772
 Raman Activ --     4.0244                 1.6158                 4.8460

                    85                     86                     87
                     A                      A                      A
 Frequencies --  1302.7014              1306.5132              1308.9182
 Red. masses --     1.2307                 1.2890                 1.2747
 Frc consts  --     1.2305                 1.2964                 1.2867
 IR Inten    --    20.1263                 5.8778                14.7186
 Raman Activ --     1.9339                 3.6778                 1.9734

                    88                     89                     90
                     A                      A                      A
 Frequencies --  1313.1103              1314.0785              1333.2545
 Red. masses --     1.4452                 1.2707                 1.2199
 Frc consts  --     1.4682                 1.2928                 1.2776
 IR Inten    --    13.2016                 5.3257                17.9754
 Raman Activ --     4.3175                 5.9407                 2.4693

                    91                     92                     93
                     A                      A                      A
 Frequencies --  1340.2574              1342.9505              1349.8368
 Red. masses --     1.2068                 1.3945                 1.2523
 Frc consts  --     1.2772                 1.4818                 1.3444
 IR Inten    --    18.1803                38.7561                22.5890
 Raman Activ --     1.7454                 3.4138                 6.9842

                    94                     95                     96
                     A                      A                      A
 Frequencies --  1356.6132              1372.9334              1385.0518
 Red. masses --     1.5562                 1.2101                 1.4778
 Frc consts  --     1.6874                 1.3439                 1.6703
 IR Inten    --    18.6824                22.5746                 4.2705
 Raman Activ --     2.1412                 1.9484                 7.6309

                    97                     98                     99
                     A                      A                      A
 Frequencies --  1395.5814              1398.4008              1405.1358
 Red. masses --     1.2564                 1.3795                 1.2578
 Frc consts  --     1.4418                 1.5894                 1.4632
 IR Inten    --     0.0567                22.8149                21.1903
 Raman Activ --     2.7463                 6.2488                 3.0975

                   100                    101                    102
                     A                      A                      A
 Frequencies --  1416.3821              1432.5432              1439.4283
 Red. masses --     1.0871                 1.5302                 1.4197
 Frc consts  --     1.2850                 1.8502                 1.7331
 IR Inten    --     9.3513                 9.0105                28.9222
 Raman Activ --     4.5582                 2.9297                 1.4476

                   103                    104                    105
                     A                      A                      A
 Frequencies --  1446.9471              1455.3042              1469.1518
 Red. masses --     1.1051                 1.3124                 1.1495
 Frc consts  --     1.3632                 1.6377                 1.4619
 IR Inten    --     3.5995                11.5524                67.8945
 Raman Activ --     3.7154                 2.1367                 5.5204

                   106                    107                    108
                     A                      A                      A
 Frequencies --  1480.1687              1543.2867              3252.6736
 Red. masses --     1.3132                 1.2597                 1.0626
 Frc consts  --     1.6951                 1.7677                 6.6238
 IR Inten    --    73.6443               115.0341                37.7745
 Raman Activ --     1.6897                 2.1523               105.6317

                   109                    110                    111
                     A                      A                      A
 Frequencies --  3257.0726              3258.4054              3269.0290
 Red. masses --     1.0603                 1.0798                 1.0827
 Frc consts  --     6.6271                 6.7544                 6.8173
 IR Inten    --    34.2775                 5.7318                 1.6712
 Raman Activ --    98.4609                54.2346                58.6668

                   112                    113                    114
                     A                      A                      A
 Frequencies --  3269.7619              3272.9528              3275.6043
 Red. masses --     1.0832                 1.0811                 1.0816
 Frc consts  --     6.8235                 6.8231                 6.8375
 IR Inten    --    20.0162                 6.6055                12.5396
 Raman Activ --    44.0752                47.6525               207.7144

                   115                    116                    117
                     A                      A                      A
 Frequencies --  3284.0237              3286.2530              3287.5025
 Red. masses --     1.0842                 1.0848                 1.0848
 Frc consts  --     6.8894                 6.9023                 6.9080
 IR Inten    --    10.8502                 7.3718                 0.6359
 Raman Activ --    38.3326                77.5778                19.4558

                   118                    119                    120
                     A                      A                      A
 Frequencies --  3293.4744              3301.6780              3310.6739
 Red. masses --     1.0856                 1.0870                 1.0905
 Frc consts  --     6.9379                 6.9814                 7.0424
 IR Inten    --   108.2933                25.9555                12.8996
 Raman Activ --    10.6004                12.3280               106.3697

                   121                    122                    123
                     A                      A                      A
 Frequencies --  3311.9293              3315.7111              3331.3816
 Red. masses --     1.1003                 1.0752                 1.0756
 Frc consts  --     7.1107                 6.9643                 7.0332
 IR Inten    --    96.2645               454.8840               187.0328
 Raman Activ --    20.5192               259.4515                89.6358

                   124                    125                    126
                     A                      A                      A
 Frequencies --  3343.8890              3350.7331              3357.2119
 Red. masses --     1.0653                 1.0647                 1.0680
 Frc consts  --     7.0180                 7.0432                 7.0925
 IR Inten    --    35.7684                13.8048                73.3265
 Raman Activ --    23.9766               100.7989               149.5113

                   127                    128                    129
                     A                      A                      A
 Frequencies --  3358.2355              3869.1021              3877.3968
 Red. masses --     1.0666                 1.0677                 1.0669
 Frc consts  --     7.0872                 9.4170                 9.4507
 IR Inten    --    48.3894                64.9560                78.1607
 Raman Activ --   111.4740                98.8548               117.7345

 - Thermochemistry -
 -------------------
 Temperature   298.150 Kelvin.  Pressure   1.00000 Atm.
 Atom     1 has atomic number  8 and mass  15.99491

 Molecular mass:   342.11621 amu.
 Principal axes and moments of inertia in atomic units:
                           1         2         3
     Eigenvalues --  4647.47387********************
           X            0.99997  -0.00711   0.00245
           Y            0.00712   0.99997  -0.00185
           Z           -0.00244   0.00186   1.00000
 This molecule is an asymmetric top.
 Rotational symmetry number  1.
 Warning -- assumption of classical behavior for rotation
           may cause significant error
 Rotational temperatures (Kelvin)      0.01864     0.00729     0.00547
 Rotational constants (GHZ):           0.38833     0.15184     0.11403
    8 imaginary frequencies ignored.
 Zero-point vibrational energy     971954.2 (Joules/Mol)
                                  232.30264 (Kcal/Mol)
 Warning -- explicit consideration of  30 degrees of freedom as
           vibrations may cause significant error
 Vibrational temperatures:     60.34    67.24   122.06   143.72   180.65
          (Kelvin)            210.14   253.02   270.78   329.27   344.04
                              352.14   380.96   397.60   426.77   450.15
                              477.04   490.38   528.74   553.64   563.34
                              614.64   632.60   659.18   681.95   713.73
                              755.83   793.37   811.71   824.40   849.68
                              901.49   949.63   989.85   994.31  1041.46
                             1083.48  1104.61  1148.08  1169.55  1178.20
                             1221.11  1268.07  1350.59  1372.92  1407.55
                             1424.86  1444.68  1462.98  1473.02  1483.85
                             1493.93  1510.26  1515.56  1535.73  1541.55
                             1562.91  1571.79  1586.42  1601.80  1618.83
                             1633.48  1640.09  1654.34  1664.76  1686.69
                             1696.08  1702.56  1732.17  1746.83  1772.46
                             1776.05  1806.23  1817.03  1829.73  1841.50
                             1853.11  1874.29  1879.78  1883.24  1889.27
                             1890.66  1918.25  1928.33  1932.20  1942.11
                             1951.86  1975.34  1992.78  2007.93  2011.98
                             2021.67  2037.86  2061.11  2071.01  2081.83
                             2093.86  2113.78  2129.63  2220.44  4679.87
                             4686.20  4688.11  4703.40  4704.45  4709.04
                             4712.86  4724.97  4728.18  4729.98  4738.57
                             4750.37  4763.32  4765.12  4770.56  4793.11
                             4811.10  4820.95  4830.27  4831.75  5566.77
                             5578.70

 Zero-point correction=                           0.370198 (Hartree/Particle)
 Thermal correction to Energy=                    0.388107
 Thermal correction to Enthalpy=                  0.389051
 Thermal correction to Gibbs Free Energy=         0.324750
 Sum of electronic and zero-point Energies=          -1297.629358
 Sum of electronic and thermal Energies=             -1297.611449
 Sum of electronic and thermal Enthalpies=           -1297.610505
 Sum of electronic and thermal Free Energies=        -1297.674806

                     E (Thermal)             CV                S
                      KCal/Mol        Cal/Mol-Kelvin    Cal/Mol-Kelvin
 Total                  243.541             74.242            135.333
 Electronic               0.000              0.000              0.000
 Translational            0.889              2.981             43.384
 Rotational               0.889              2.981             35.124
 Vibrational            241.763             68.280             56.825
 Vibration     1          0.595              1.980              5.165
 Vibration     2          0.595              1.979              4.951
 Vibration     3          0.601              1.960              3.776
 Vibration     4          0.604              1.949              3.456
 Vibration     5          0.611              1.928              3.013
 Vibration     6          0.617              1.907              2.723
 Vibration     7          0.628              1.872              2.372
 Vibration     8          0.633              1.856              2.246
 Vibration     9          0.652              1.797              1.888
 Vibration    10          0.657              1.781              1.809
 Vibration    11          0.660              1.771              1.768
 Vibration    12          0.671              1.738              1.630
 Vibration    13          0.678              1.717              1.556
 Vibration    14          0.690              1.680              1.436
 Vibration    15          0.701              1.649              1.347
 Vibration    16          0.714              1.612              1.252
 Vibration    17          0.720              1.594              1.208
 Vibration    18          0.740              1.539              1.090
 Vibration    19          0.754              1.503              1.020
 Vibration    20          0.759              1.488              0.994
 Vibration    21          0.789              1.411              0.868
 Vibration    22          0.800              1.384              0.828
 Vibration    23          0.816              1.343              0.772
 Vibration    24          0.831              1.308              0.726
 Vibration    25          0.852              1.259              0.668
 Vibration    26          0.880              1.194              0.598
 Vibration    27          0.907              1.137              0.541
 Vibration    28          0.920              1.109              0.516
 Vibration    29          0.929              1.090              0.499
 Vibration    30          0.948              1.052              0.466

 Normal termination of Gaussian 09 at Tue Feb 16 13:03:26 2016.
