 Gaussian 09, Revision B.01,
 Gaussian 09:  EM64L-G09RevB.01 12-Aug-2010

 -------------------------------------------------
 # freq=raman b3lyp/6-31+g(2d,p) geom=connectivity
 -------------------------------------------------

 -----------------
 473 8456/8456.com
 -----------------
 Symbolic Z-matrix:
 Charge =  0 Multiplicity = 1

                         Standard orientation:
 ---------------------------------------------------------------------
 Center     Atomic      Atomic             Coordinates (Angstroms)
 Number     Number       Type             X           Y           Z
 ---------------------------------------------------------------------
      1          8           0       -5.024517   -0.429670    0.400443
      2          6           0       -3.722235   -0.121678   -0.117607
      3          6           0       -3.223762    1.193865    0.456871
      4          8           0       -4.096139    2.257686    0.047947
      5          1           0       -5.042567    2.029950    0.276576
      6          6           0       -1.867389    1.628650   -0.073975
      7          8           0       -1.284358    2.638236    0.763440
      8          1           0       -0.545711    3.136951    0.310004
      9          6           0       -2.939978   -2.538232   -0.357034
     10          8           0       -4.212536   -3.058929    0.053354
     11          1           0       -4.204839   -4.051607    0.175491
     12          6           0       -2.637739   -1.145680    0.170925
     13          8           0       -1.364539   -0.822137   -0.406229
     14          6           0       -0.912333    0.454614    0.069615
     15          8           0        0.309515    0.647421   -0.657353
     16          6           0        1.476806    0.240851    0.070077
     17          6           0        1.969463   -1.139898   -0.330332
     18          8           0        0.930241   -2.116855   -0.173381
     19          1           0        0.125021   -1.582660   -0.430632
     20          6           0        3.262171   -1.580934    0.336452
     21          8           0        3.741523   -2.837866   -0.164262
     22          1           0        4.493070   -3.222383    0.370947
     23          6           0        2.457158    2.662668   -0.192003
     24          8           0        1.245735    3.336325   -0.563133
     25          1           0        1.428426    4.300912   -0.753603
     26          6           0        2.586344    1.164148   -0.407837
     27          8           0        3.858331    0.846756    0.176219
     28          6           0        4.294295   -0.511157    0.017110
     29          8           0        5.406405   -0.635184    0.915197
     30          1           0        6.204406   -0.816403    0.413246
     31          1           0        4.639408   -0.650201   -0.986117
     32          1           0        3.120800   -1.642839    1.395264
     33          1           0        2.177986   -1.089289   -1.378595
     34          1           0        1.331678    0.317830    1.127390
     35          1           0        2.678199    1.010259   -1.462721
     36          1           0        3.256491    3.129981   -0.728273
     37          1           0        2.615894    2.847450    0.849898
     38          1           0       -2.174877   -3.203975   -0.015996
     39          1           0       -2.914128   -2.508832   -1.426318
     40          1           0       -2.516715   -1.209950    1.232115
     41          1           0       -5.605924   -0.677602   -0.322119
     42          1           0       -3.804281   -0.013659   -1.178974
     43          1           0       -3.195379    1.137492    1.525008
     44          1           0       -1.931309    1.954988   -1.090990
     45          1           0       -0.669745    0.354027    1.106887
 ---------------------------------------------------------------------

 SCF Done:  E(RB3LYP) =  -1297.99528685     A.U. after   13 cycles

 The electronic state is 1-A.
 Alpha  occ. eigenvalues --  -19.18659 -19.17802 -19.17775 -19.17121 -19.17083
 Alpha  occ. eigenvalues --  -19.16765 -19.16112 -19.15865 -19.14891 -19.14498
 Alpha  occ. eigenvalues --  -19.12775 -10.29725 -10.29702 -10.25279 -10.25236
 Alpha  occ. eigenvalues --  -10.25191 -10.25133 -10.24826 -10.24704 -10.24517
 Alpha  occ. eigenvalues --  -10.24340 -10.23790 -10.23557  -1.10257  -1.08250
 Alpha  occ. eigenvalues --   -1.05085  -1.04397  -1.03761  -1.02882  -1.02494
 Alpha  occ. eigenvalues --   -1.02070  -1.01973  -1.00554  -0.99979  -0.81746
 Alpha  occ. eigenvalues --   -0.80526  -0.78976  -0.77953  -0.71577  -0.69987
 Alpha  occ. eigenvalues --   -0.66999  -0.64429  -0.62834  -0.62306  -0.61138
 Alpha  occ. eigenvalues --   -0.59960  -0.55912  -0.55292  -0.54967  -0.54416
 Alpha  occ. eigenvalues --   -0.54354  -0.52980  -0.52489  -0.51981  -0.51258
 Alpha  occ. eigenvalues --   -0.50181  -0.49533  -0.48937  -0.48211  -0.46346
 Alpha  occ. eigenvalues --   -0.45827  -0.44590  -0.43824  -0.43250  -0.42712
 Alpha  occ. eigenvalues --   -0.42355  -0.41902  -0.41278  -0.39856  -0.39439
 Alpha  occ. eigenvalues --   -0.37741  -0.37266  -0.36926  -0.35996  -0.35790
 Alpha  occ. eigenvalues --   -0.35105  -0.34584  -0.34145  -0.33696  -0.33603
 Alpha  occ. eigenvalues --   -0.32295  -0.31257  -0.30399  -0.29713  -0.29654
 Alpha  occ. eigenvalues --   -0.29363  -0.28701  -0.28338  -0.27813  -0.26499
 Alpha  occ. eigenvalues --   -0.25737
 Alpha virt. eigenvalues --   -0.01903  -0.01585  -0.01294   0.00114   0.00489
 Alpha virt. eigenvalues --    0.01258   0.02178   0.02481   0.03001   0.03454
 Alpha virt. eigenvalues --    0.03894   0.04396   0.05213   0.05571   0.05683

 Mulliken atomic charges:
              1
     1  O   -0.533154
     2  C   -0.078224
     3  C    0.354426
     4  O   -0.564940
     5  H    0.341505
     6  C   -0.210377
     7  O   -0.551628
     8  H    0.384347
     9  C   -0.267960
    10  O   -0.551438
    11  H    0.345391
    12  C    0.279666
    13  O   -0.266061
    14  C    0.182353
    15  O   -0.199635
    16  C    0.179938
    17  C    0.187377
    18  O   -0.589978
    19  H    0.409217
    20  C    0.043260
    21  O   -0.542819
    22  H    0.338792
    23  C   -0.328236
    24  O   -0.579141
    25  H    0.358885
    26  C   -0.022754
    27  O   -0.249072
    28  C    0.164723
    29  O   -0.526493
    30  H    0.330176
    31  H    0.124794
    32  H    0.128654
    33  H    0.110712
    34  H    0.117139
    35  H    0.113751
    36  H    0.142382
    37  H    0.154823
    38  H    0.153266
    39  H    0.145664
    40  H    0.111710
    41  H    0.344874
    42  H    0.119424
    43  H    0.131856
    44  H    0.142432
    45  H    0.120374
 Sum of Mulliken atomic charges =   0.00000

 Dipole moment (field-independent basis, Debye):
    X=              1.5778    Y=              0.0771    Z=             -1.8222  Tot=              2.4116
 Quadrupole moment (field-independent basis, Debye-Ang):
   XX=           -117.6336   YY=           -129.9818   ZZ=           -139.6631
   XY=             11.3643   XZ=              0.7801   YZ=             -7.2886

  Exact polarizability: 231.976  -2.110 197.936   1.040  -0.938 143.771
 Approx polarizability: 272.483  -1.802 257.275   0.971  -2.422 239.099

 ******    6 imaginary frequencies (negative Signs) ******

                     1                      2                      3
                     A                      A                      A
 Frequencies --  -270.1435              -268.4695              -222.5139
 Red. masses --     1.7592                 1.2108                 1.1988
 Frc consts  --     0.0756                 0.0514                 0.0350
 IR Inten    --     3.4493                92.7592                89.7166
 Raman Activ --     0.0864                 0.5375                 0.9811

                     4                      5                      6
                     A                      A                      A
 Frequencies --  -221.7739               -73.5938               -47.1983
 Red. masses --     1.6123                 6.8198                 6.4182
 Frc consts  --     0.0467                 0.0218                 0.0084
 IR Inten    --    31.3865                 1.1047                 0.0340
 Raman Activ --     0.2185                 0.0315                 0.0377

                     7                      8                      9
                     A                      A                      A
 Frequencies --    28.4240                50.8788                58.1923
 Red. masses --     6.6667                 6.9219                 6.7491
 Frc consts  --     0.0032                 0.0106                 0.0135
 IR Inten    --     1.2241                 0.4047                 1.0976
 Raman Activ --     0.0500                 0.1002                 0.0538

                    10                     11                     12
                     A                      A                      A
 Frequencies --    82.7212                92.6148               102.0221
 Red. masses --     6.0697                 6.4795                 5.9780
 Frc consts  --     0.0245                 0.0327                 0.0367
 IR Inten    --     1.8482                 1.8740                 2.3261
 Raman Activ --     0.3311                 0.0359                 0.0917

                    13                     14                     15
                     A                      A                      A
 Frequencies --   147.9337               176.5382               192.1486
 Red. masses --     6.1205                 5.8947                 6.6900
 Frc consts  --     0.0789                 0.1082                 0.1455
 IR Inten    --     2.6945                 2.0850                 1.0019
 Raman Activ --     0.4885                 0.3219                 1.5071

                    16                     17                     18
                     A                      A                      A
 Frequencies --   201.4021               232.7760               269.7278
 Red. masses --     5.8771                 6.1012                 4.9410
 Frc consts  --     0.1405                 0.1948                 0.2118
 IR Inten    --     0.2683                 1.2426                13.3228
 Raman Activ --     0.3845                 0.5406                 0.7162

                    19                     20                     21
                     A                      A                      A
 Frequencies --   282.8582               293.5529               304.1239
 Red. masses --     5.4994                 5.3111                 5.4978
 Frc consts  --     0.2592                 0.2697                 0.2996
 IR Inten    --     0.5588                 2.0827                 6.5392
 Raman Activ --     0.2774                 0.2723                 0.3088

                    22                     23                     24
                     A                      A                      A
 Frequencies --   318.4095               323.8910               329.9190
 Red. masses --     4.9332                 6.5451                 5.9765
 Frc consts  --     0.2947                 0.4045                 0.3833
 IR Inten    --     5.0455                 1.3622                 8.5134
 Raman Activ --     1.1667                 1.5885                 4.1456

                    25                     26                     27
                     A                      A                      A
 Frequencies --   335.1901               362.2220               387.0502
 Red. masses --     5.6028                 5.0799                 6.7261
 Frc consts  --     0.3709                 0.3927                 0.5937
 IR Inten    --     6.2763                 5.7417                 0.6762
 Raman Activ --     2.7819                 0.2167                 1.7902

                    28                     29                     30
                     A                      A                      A
 Frequencies --   409.4686               417.3625               440.3226
 Red. masses --     5.8127                 4.8617                 4.3864
 Frc consts  --     0.5742                 0.4990                 0.5011
 IR Inten    --     6.8702                11.3518                 7.9317
 Raman Activ --     3.2366                 6.6163                 0.9497

                    31                     32                     33
                     A                      A                      A
 Frequencies --   445.5155               483.8749               486.9042
 Red. masses --     6.0844                 4.4324                 3.7122
 Frc consts  --     0.7115                 0.6114                 0.5185
 IR Inten    --     8.9841                 1.8101                11.6414
 Raman Activ --     2.2083                 2.6802                 1.5160

                    34                     35                     36
                     A                      A                      A
 Frequencies --   509.9274               540.5120               572.4629
 Red. masses --     4.5093                 3.0926                 4.1189
 Frc consts  --     0.6908                 0.5323                 0.7953
 IR Inten    --     2.4986                10.9637                 8.1769
 Raman Activ --     4.1947                 2.7470                 1.8368

                    37                     38                     39
                     A                      A                      A
 Frequencies --   595.3982               604.6277               619.2161
 Red. masses --     2.8024                 6.4462                 5.5173
 Frc consts  --     0.5853                 1.3885                 1.2464
 IR Inten    --    47.0565                 2.0031                27.4758
 Raman Activ --     0.5508                 0.8168                 0.4328

                    40                     41                     42
                     A                      A                      A
 Frequencies --   641.4355               669.6490               680.1485
 Red. masses --     3.7849                 1.2061                 1.0822
 Frc consts  --     0.9175                 0.3187                 0.2950
 IR Inten    --    40.2009                96.6781                65.2715
 Raman Activ --     1.5253                 1.7281                 1.2023

                    43                     44                     45
                     A                      A                      A
 Frequencies --   691.6702               695.9376               758.4454
 Red. masses --     1.4642                 1.9269                 1.0644
 Frc consts  --     0.4127                 0.5498                 0.3608
 IR Inten    --   118.5584                18.5454                97.2960
 Raman Activ --     0.1754                 3.3402                 2.1156

                    46                     47                     48
                     A                      A                      A
 Frequencies --   759.7818               822.5395               857.8568
 Red. masses --     1.0666                 1.1113                 1.7171
 Frc consts  --     0.3628                 0.4430                 0.7445
 IR Inten    --   141.1824                82.2619                 4.2627
 Raman Activ --     1.8049                 1.7040                 1.1897

                    49                     50                     51
                     A                      A                      A
 Frequencies --   867.6746               936.9670               953.6058
 Red. masses --     1.7183                 5.5180                 6.2463
 Frc consts  --     0.7622                 2.8542                 3.3467
 IR Inten    --     0.6929               134.3431                50.6168
 Raman Activ --     1.0166                 3.0424                 0.7852

                    52                     53                     54
                     A                      A                      A
 Frequencies --   974.6135               976.4535               988.7312
 Red. masses --     6.5485                 5.1421                 5.8542
 Frc consts  --     3.6648                 2.8886                 3.3719
 IR Inten    --    44.9448                78.8354               373.1210
 Raman Activ --     2.6977                 1.7792                 0.7179

                    55                     56                     57
                     A                      A                      A
 Frequencies --   999.9413              1011.6520              1025.5487
 Red. masses --     6.0060                 6.0395                 6.0582
 Frc consts  --     3.5382                 3.6418                 3.7541
 IR Inten    --   123.8360                35.8891               129.2690
 Raman Activ --     1.7434                 1.5501                 3.3441

                    58                     59                     60
                     A                      A                      A
 Frequencies --  1037.8841              1045.8337              1053.2802
 Red. masses --     6.2391                 6.6766                 5.9492
 Frc consts  --     3.9598                 4.3026                 3.8886
 IR Inten    --   331.4125                99.3290               159.5944
 Raman Activ --     4.0822                 2.8420                 0.1886

                    61                     62                     63
                     A                      A                      A
 Frequencies --  1064.1172              1066.4484              1073.9301
 Red. masses --     3.8112                 3.3859                 4.2121
 Frc consts  --     2.5427                 2.2688                 2.8622
 IR Inten    --     7.8590                11.2424                54.9309
 Raman Activ --     4.0077                21.2328                13.3268

                    64                     65                     66
                     A                      A                      A
 Frequencies --  1083.3604              1099.3707              1105.6852
 Red. masses --     2.8541                 2.4104                 2.3292
 Frc consts  --     1.9736                 1.7164                 1.6777
 IR Inten    --    13.3179                46.6540                22.8817
 Raman Activ --     2.3696                 4.3727                15.1604

                    67                     68                     69
                     A                      A                      A
 Frequencies --  1109.5116              1119.0570              1121.6565
 Red. masses --     2.3671                 2.5148                 2.6258
 Frc consts  --     1.7169                 1.8555                 1.9464
 IR Inten    --    30.3192                 0.7475                75.0535
 Raman Activ --     7.5166                 3.6848                 2.9120

                    70                     71                     72
                     A                      A                      A
 Frequencies --  1147.0962              1152.0629              1162.5445
 Red. masses --     2.4545                 2.0931                 1.8073
 Frc consts  --     1.9029                 1.6368                 1.4391
 IR Inten    --     5.4603                 2.6562                13.9914
 Raman Activ --     3.1626                 4.7334                 2.1501

                    73                     74                     75
                     A                      A                      A
 Frequencies --  1169.5638              1180.8137              1194.4024
 Red. masses --     1.9008                 1.8073                 1.7690
 Frc consts  --     1.5319                 1.4847                 1.4869
 IR Inten    --     4.8259                 2.2530                24.6593
 Raman Activ --     1.9798                 2.0793                 3.1823

                    76                     77                     78
                     A                      A                      A
 Frequencies --  1195.3781              1218.8178              1222.1146
 Red. masses --     1.2688                 1.3978                 1.2779
 Frc consts  --     1.0682                 1.2234                 1.1246
 IR Inten    --     3.6404                12.7278                19.4519
 Raman Activ --     0.9875                 2.5923                 3.4824

                    79                     80                     81
                     A                      A                      A
 Frequencies --  1247.4543              1249.5823              1257.3033
 Red. masses --     1.3601                 1.2923                 1.1803
 Frc consts  --     1.2471                 1.1888                 1.0993
 IR Inten    --    20.9461                 2.5545                 8.8235
 Raman Activ --     1.6330                 0.8717                 1.5052

                    82                     83                     84
                     A                      A                      A
 Frequencies --  1261.4416              1284.2639              1288.1442
 Red. masses --     1.2409                 1.3571                 1.2850
 Frc consts  --     1.1634                 1.3188                 1.2563
 IR Inten    --    17.1947                34.8082                16.5544
 Raman Activ --     1.1054                 2.1898                 2.7806

                    85                     86                     87
                     A                      A                      A
 Frequencies --  1288.6697              1294.1138              1301.8173
 Red. masses --     1.3216                 1.3135                 1.2590
 Frc consts  --     1.2931                 1.2960                 1.2571
 IR Inten    --     6.3003                36.0152                17.6173
 Raman Activ --     1.2664                 3.1734                 6.5475

                    88                     89                     90
                     A                      A                      A
 Frequencies --  1312.2876              1319.8919              1325.8306
 Red. masses --     1.2415                 1.2385                 1.3140
 Frc consts  --     1.2597                 1.2712                 1.3608
 IR Inten    --    26.5093                16.7829                14.8125
 Raman Activ --     3.9388                 6.9251                 1.4242

                    91                     92                     93
                     A                      A                      A
 Frequencies --  1330.2346              1339.4619              1351.8225
 Red. masses --     1.2980                 1.2713                 1.2106
 Frc consts  --     1.3533                 1.3439                 1.3034
 IR Inten    --    27.5521                21.1207                37.4923
 Raman Activ --    10.3576                 1.6108                 3.5134

                    94                     95                     96
                     A                      A                      A
 Frequencies --  1357.9694              1376.9407              1383.9832
 Red. masses --     1.1982                 1.5503                 1.3974
 Frc consts  --     1.3019                 1.7318                 1.5770
 IR Inten    --    12.1787                 2.4442                 3.7817
 Raman Activ --     2.1391                 6.4692                 5.0237

                    97                     98                     99
                     A                      A                      A
 Frequencies --  1392.1106              1397.4026              1399.7128
 Red. masses --     1.3330                 1.4189                 1.4696
 Frc consts  --     1.5221                 1.6324                 1.6964
 IR Inten    --     1.8324                13.5599                23.2889
 Raman Activ --     2.4765                10.5341                 1.8599

                   100                    101                    102
                     A                      A                      A
 Frequencies --  1414.2057              1420.8930              1440.2081
 Red. masses --     1.4112                 1.3832                 1.4458
 Frc consts  --     1.6629                 1.6453                 1.7669
 IR Inten    --     8.1443                60.0806                14.1995
 Raman Activ --     4.2321                 3.4186                 1.9180

                   103                    104                    105
                     A                      A                      A
 Frequencies --  1449.0151              1469.1659              1473.0893
 Red. masses --     1.4358                 1.2757                 1.0864
 Frc consts  --     1.7762                 1.6223                 1.3890
 IR Inten    --    26.7628                18.2276                 2.8512
 Raman Activ --     1.4647                 2.5661                 3.8054

                   106                    107                    108
                     A                      A                      A
 Frequencies --  1473.8065              1553.3718              3254.8143
 Red. masses --     1.1541                 1.2147                 1.0802
 Frc consts  --     1.4770                 1.7269                 6.7425
 IR Inten    --     6.7069                78.7330                93.4425
 Raman Activ --     2.9916                 2.2490                20.7356

                   109                    110                    111
                     A                      A                      A
 Frequencies --  3259.9343              3260.9011              3267.2220
 Red. masses --     1.0571                 1.0581                 1.0784
 Frc consts  --     6.6191                 6.6289                 6.7823
 IR Inten    --    15.0931                79.0724               164.8864
 Raman Activ --    70.2852               125.4106                46.2208

                   112                    113                    114
                     A                      A                      A
 Frequencies --  3270.1979              3277.0837              3280.8879
 Red. masses --     1.0822                 1.0804                 1.0846
 Frc consts  --     6.8190                 6.8364                 6.8786
 IR Inten    --     6.6964               187.5169                13.9616
 Raman Activ --   124.1816                31.0258               135.9224

                   115                    116                    117
                     A                      A                      A
 Frequencies --  3282.2913              3284.5616              3294.5057
 Red. masses --     1.0843                 1.0768                 1.0856
 Frc consts  --     6.8829                 6.8446                 6.9424
 IR Inten    --     5.5463               302.8313                20.5773
 Raman Activ --   100.6972                91.4646                 9.0561

                   118                    119                    120
                     A                      A                      A
 Frequencies --  3295.5661              3302.9152              3310.7950
 Red. masses --     1.0857                 1.0871                 1.0871
 Frc consts  --     6.9473                 6.9876                 7.0205
 IR Inten    --    26.6450                49.9743                29.9741
 Raman Activ --    74.8749                40.9613                11.2275

                   121                    122                    123
                     A                      A                      A
 Frequencies --  3315.4627              3320.3033              3331.2915
 Red. masses --     1.1049                 1.1063                 1.0688
 Frc consts  --     7.1560                 7.1858                 6.9882
 IR Inten    --    46.1331                58.9324               465.9039
 Raman Activ --    53.0125                34.5498               167.9356

                   124                    125                    126
                     A                      A                      A
 Frequencies --  3366.4331              3368.9744              3369.9864
 Red. masses --     1.0694                 1.0677                 1.0656
 Frc consts  --     7.1408                 7.1401                 7.1299
 IR Inten    --    39.6351                49.4115                30.7966
 Raman Activ --   172.9328               151.6490               136.8344

                   127                    128                    129
                     A                      A                      A
 Frequencies --  3377.0938              3889.4344              3891.2228
 Red. masses --     1.0672                 1.0675                 1.0676
 Frc consts  --     7.1710                 9.5145                 9.5241
 IR Inten    --    49.6696                74.3625                81.6771
 Raman Activ --   173.2071               113.1059                86.9252

 - Thermochemistry -
 -------------------
 Temperature   298.150 Kelvin.  Pressure   1.00000 Atm.
 Atom     1 has atomic number  8 and mass  15.99491

 Molecular mass:   342.11621 amu.
 Principal axes and moments of inertia in atomic units:
                           1         2         3
     Eigenvalues --  4417.50754********************
           X            0.99998   0.00697  -0.00035
           Y           -0.00697   0.99997  -0.00185
           Z            0.00033   0.00185   1.00000
 This molecule is an asymmetric top.
 Rotational symmetry number  1.
 Warning -- assumption of classical behavior for rotation
           may cause significant error
 Rotational temperatures (Kelvin)      0.01961     0.00712     0.00539
 Rotational constants (GHZ):           0.40854     0.14835     0.11231
    6 imaginary frequencies ignored.
 Zero-point vibrational energy     974716.3 (Joules/Mol)
                                  232.96279 (Kcal/Mol)
 Warning -- explicit consideration of  33 degrees of freedom as
           vibrations may cause significant error
 Vibrational temperatures:     40.90    73.20    83.73   119.02   133.25
          (Kelvin)            146.79   212.84   254.00   276.46   289.77
                              334.91   388.08   406.97   422.36   437.57
                              458.12   466.01   474.68   482.26   521.16
                              556.88   589.13   600.49   633.53   641.00
                              696.19   700.55   733.67   777.68   823.65
                              856.64   869.92   890.91   922.88   963.47
                              978.58   995.16  1001.30  1091.23  1093.16
                             1183.45  1234.26  1248.39  1348.08  1372.02
                             1402.25  1404.90  1422.56  1438.69  1455.54
                             1475.53  1493.28  1504.72  1515.43  1531.03
                             1534.38  1545.14  1558.71  1581.75  1590.83
                             1596.34  1610.07  1613.81  1650.41  1657.56
                             1672.64  1682.74  1698.93  1718.48  1719.88
                             1753.60  1758.35  1794.81  1797.87  1808.98
                             1814.93  1847.77  1853.35  1854.11  1861.94
                             1873.02  1888.09  1899.03  1907.57  1913.91
                             1927.18  1944.97  1953.81  1981.11  1991.24
                             2002.93  2010.55  2013.87  2034.72  2044.35
                             2072.14  2084.81  2113.80  2119.44  2120.48
                             2234.95  4682.95  4690.31  4691.70  4700.80
                             4705.08  4714.99  4720.46  4722.48  4725.75
                             4740.05  4741.58  4752.15  4763.49  4770.21
                             4777.17  4792.98  4843.54  4847.20  4848.65
                             4858.88  5596.02  5598.59

 Zero-point correction=                           0.371250 (Hartree/Particle)
 Thermal correction to Energy=                    0.390438
 Thermal correction to Enthalpy=                  0.391383
 Thermal correction to Gibbs Free Energy=         0.323802
 Sum of electronic and zero-point Energies=          -1297.624037
 Sum of electronic and thermal Energies=             -1297.604848
 Sum of electronic and thermal Enthalpies=           -1297.603904
 Sum of electronic and thermal Free Energies=        -1297.671485

                     E (Thermal)             CV                S
                      KCal/Mol        Cal/Mol-Kelvin    Cal/Mol-Kelvin
 Total                  245.004             77.924            142.236
 Electronic               0.000              0.000              0.000
 Translational            0.889              2.981             43.384
 Rotational               0.889              2.981             35.111
 Vibrational            243.226             71.962             63.740
 Vibration     1          0.593              1.984              5.936
 Vibration     2          0.595              1.977              4.783
 Vibration     3          0.596              1.974              4.518
 Vibration     4          0.600              1.961              3.825
 Vibration     5          0.602              1.954              3.604
 Vibration     6          0.604              1.948              3.415
 Vibration     7          0.617              1.905              2.699
 Vibration     8          0.628              1.871              2.365
 Vibration     9          0.634              1.851              2.207
 Vibration    10          0.638              1.838              2.120
 Vibration    11          0.654              1.791              1.857
 Vibration    12          0.674              1.729              1.598
 Vibration    13          0.682              1.705              1.516
 Vibration    14          0.688              1.686              1.453
 Vibration    15          0.695              1.666              1.394
 Vibration    16          0.705              1.638              1.318
 Vibration    17          0.708              1.628              1.290
 Vibration    18          0.713              1.616              1.260
 Vibration    19          0.716              1.605              1.235
 Vibration    20          0.736              1.550              1.113
 Vibration    21          0.755              1.498              1.011
 Vibration    22          0.774              1.450              0.928
 Vibration    23          0.780              1.433              0.901
 Vibration    24          0.800              1.382              0.826
 Vibration    25          0.805              1.371              0.809
 Vibration    26          0.840              1.286              0.700
 Vibration    27          0.843              1.279              0.692
 Vibration    28          0.865              1.228              0.634
 Vibration    29          0.896              1.160              0.564
 Vibration    30          0.929              1.091              0.500
 Vibration    31          0.953              1.042              0.458
 Vibration    32          0.963              1.022              0.442
 Vibration    33          0.979              0.991              0.418

 Normal termination of Gaussian 09 at Tue Mar 29 16:45:45 2016.
