 Gaussian 09, Revision B.01,
 Gaussian 09:  EM64L-G09RevB.01 12-Aug-2010

 ------------------------------------------------
 # freq=raman b3lyp/6-31+g(d,p) geom=connectivity
 ------------------------------------------------

 ------------
 300 9000.com
 ------------
 Symbolic Z-matrix:
 Charge =  0 Multiplicity = 1

                         Standard orientation:
 ---------------------------------------------------------------------
 Center     Atomic      Atomic             Coordinates (Angstroms)
 Number     Number       Type             X           Y           Z
 ---------------------------------------------------------------------
      1          8           0       -4.990371   -0.389075    0.513575
      2          6           0       -3.766290   -0.171053   -0.203252
      3          6           0       -3.231381    1.208072    0.143546
      4          8           0       -4.145541    2.291902   -0.075746
      5          1           0       -5.062854    2.072883    0.257622
      6          6           0       -1.830339    1.526223   -0.353651
      7          8           0       -1.325798    2.683936    0.327680
      8          1           0       -0.375416    2.759619    0.024100
      9          6           0       -3.067493   -2.626751   -0.128382
     10          8           0       -4.194354   -3.283892    0.468583
     11          1           0       -3.999115   -4.250804    0.632895
     12          6           0       -2.716545   -1.187267    0.213113
     13          8           0       -1.419799   -0.882405   -0.320808
     14          6           0       -0.931674    0.393902    0.117120
     15          8           0        0.288402    0.647058   -0.593748
     16          6           0        1.511114    0.264392    0.051576
     17          6           0        2.096808   -1.016181   -0.519707
     18          8           0        1.152170   -2.095391   -0.536878
     19          1           0        0.304417   -1.612196   -0.755482
     20          6           0        3.357841   -1.555292    0.135540
     21          8           0        3.941267   -2.649078   -0.587405
     22          1           0        4.808802   -2.892651   -0.155315
     23          6           0        2.210615    2.715366    0.182964
     24          8           0        1.156038    3.423549   -0.483571
     25          1           0        1.253595    4.381706   -0.212346
     26          6           0        2.607718    1.292328   -0.175205
     27          8           0        3.689461    0.761872    0.604842
     28          6           0        4.366636   -0.418236    0.150122
     29          8           0        5.487195   -0.760103    0.979082
     30          1           0       -5.707712   -0.520593   -0.110703
     31          1           0        6.241097   -0.975510    0.425159
     32          1           0        4.714574   -0.252904   -0.848129
     33          1           0        3.142116   -1.859281    1.138513
     34          1           0        2.346391   -0.807168   -1.538983
     35          1           0        1.341775    0.145169    1.101343
     36          1           0        2.888552    1.268915   -1.207429
     37          1           0        3.092044    3.312442    0.075814
     38          1           0        1.960796    2.707932    1.223366
     39          1           0       -0.782728    0.420937    1.176357
     40          1           0       -1.799162    1.643046   -1.416797
     41          1           0       -3.123140    1.175805    1.207568
     42          1           0       -3.942872   -0.239502   -1.256358
     43          1           0       -2.636696   -1.130848    1.278637
     44          1           0       -2.206088   -3.218713    0.100666
     45          1           0       -3.209796   -2.668278   -1.188063
 ---------------------------------------------------------------------

 SCF Done:  E(RB3LYP) =  -1297.93089912     A.U. after   14 cycles

 The electronic state is 1-A.
 Alpha  occ. eigenvalues --  -19.20248 -19.19738 -19.19666 -19.19441 -19.18884
 Alpha  occ. eigenvalues --  -19.17705 -19.17213 -19.16892 -19.15487 -19.14677
 Alpha  occ. eigenvalues --  -19.14122 -10.31564 -10.31107 -10.27498 -10.26235
 Alpha  occ. eigenvalues --  -10.26133 -10.25960 -10.25453 -10.25008 -10.24459
 Alpha  occ. eigenvalues --  -10.24413 -10.24369 -10.23998  -1.10349  -1.09199
 Alpha  occ. eigenvalues --   -1.06177  -1.05369  -1.04564  -1.04167  -1.03195
 Alpha  occ. eigenvalues --   -1.02388  -1.01743  -1.00879  -0.99966  -0.82637
 Alpha  occ. eigenvalues --   -0.80479  -0.79614  -0.78238  -0.72625  -0.70364
 Alpha  occ. eigenvalues --   -0.67416  -0.64712  -0.63204  -0.62615  -0.61823
 Alpha  occ. eigenvalues --   -0.60331  -0.56774  -0.56084  -0.55526  -0.55106
 Alpha  occ. eigenvalues --   -0.53983  -0.53623  -0.53188  -0.51748  -0.51293
 Alpha  occ. eigenvalues --   -0.50913  -0.50513  -0.49533  -0.48467  -0.47105
 Alpha  occ. eigenvalues --   -0.46876  -0.45574  -0.44352  -0.43837  -0.43381
 Alpha  occ. eigenvalues --   -0.42728  -0.41829  -0.41011  -0.40479  -0.39382
 Alpha  occ. eigenvalues --   -0.39042  -0.38118  -0.37626  -0.36472  -0.35544
 Alpha  occ. eigenvalues --   -0.35246  -0.35009  -0.34152  -0.34092  -0.33906
 Alpha  occ. eigenvalues --   -0.33364  -0.31563  -0.31372  -0.30447  -0.29980
 Alpha  occ. eigenvalues --   -0.29356  -0.28638  -0.28031  -0.27357  -0.26612
 Alpha  occ. eigenvalues --   -0.26408
 Alpha virt. eigenvalues --   -0.02596  -0.02241  -0.01658  -0.00236   0.00233
 Alpha virt. eigenvalues --    0.00801   0.01860   0.02039   0.03243   0.03607
 Alpha virt. eigenvalues --    0.03871   0.04274   0.04692   0.05236   0.05420

 Mulliken atomic charges:
              1
     1  O   -0.534025
     2  C   -0.115545
     3  C    0.074189
     4  O   -0.524380
     5  H    0.356826
     6  C   -0.026471
     7  O   -0.530363
     8  H    0.446328
     9  C   -0.178687
    10  O   -0.540524
    11  H    0.363651
    12  C    0.260788
    13  O   -0.385867
    14  C    0.228888
    15  O   -0.369642
    16  C   -0.306024
    17  C    0.053370
    18  O   -0.498029
    19  H    0.400950
    20  C    0.156184
    21  O   -0.507381
    22  H    0.342567
    23  C   -0.113754
    24  O   -0.583092
    25  H    0.385009
    26  C    0.217922
    27  O   -0.338170
    28  C    0.155288
    29  O   -0.553313
    30  H    0.366668
    31  H    0.367155
    32  H    0.128589
    33  H    0.150661
    34  H    0.132081
    35  H    0.134226
    36  H    0.138641
    37  H    0.140116
    38  H    0.150349
    39  H    0.137765
    40  H    0.150871
    41  H    0.126779
    42  H    0.132262
    43  H    0.133357
    44  H    0.140612
    45  H    0.133172
 Sum of Mulliken atomic charges =   0.00000

 Dipole moment (field-independent basis, Debye):
    X=              2.8594    Y=              0.0455    Z=             -0.8746  Tot=              2.9905
 Quadrupole moment (field-independent basis, Debye-Ang):
   XX=           -114.9368   YY=           -135.0036   ZZ=           -143.2367
   XY=             14.1184   XZ=              0.5497   YZ=             -2.8435

  Exact polarizability: 227.211  -2.710 193.261   0.411  -0.248 141.922
 Approx polarizability: 264.248  -3.553 248.383  -0.601  -1.773 230.947

 ******    6 imaginary frequencies (negative Signs) ******

                     1                      2                      3
                     A                      A                      A
 Frequencies --  -340.3285              -313.6380              -308.0623
 Red. masses --     1.1944                 1.3710                 1.6953
 Frc consts  --     0.0815                 0.0795                 0.0948
 IR Inten    --   136.6107                67.8698                 3.9807
 Raman Activ --     1.3719                 0.5552                 0.0291

                     4                      5                      6
                     A                      A                      A
 Frequencies --  -284.4185               -86.2576               -44.6338
 Red. masses --     1.3608                 6.7236                 6.2270
 Frc consts  --     0.0649                 0.0295                 0.0073
 IR Inten    --    56.5890                 1.0375                 0.4743
 Raman Activ --     0.5947                 0.0364                 0.0262

                     7                      8                      9
                     A                      A                      A
 Frequencies --     3.3900                36.9488                56.7631
 Red. masses --     6.3307                 6.6470                 7.0089
 Frc consts  --     0.0000                 0.0053                 0.0133
 IR Inten    --     0.2891                 2.2913                 0.7098
 Raman Activ --     0.1076                 0.0347                 0.0460

                    10                     11                     12
                     A                      A                      A
 Frequencies --    77.7759                95.2332               130.3567
 Red. masses --     6.3417                 6.6375                 5.5771
 Frc consts  --     0.0226                 0.0355                 0.0558
 IR Inten    --     1.8795                 0.3284                 3.5396
 Raman Activ --     0.2340                 0.1610                 0.0770

                    13                     14                     15
                     A                      A                      A
 Frequencies --   151.8599               172.0732               179.6590
 Red. masses --     6.3982                 5.5989                 7.6821
 Frc consts  --     0.0869                 0.0977                 0.1461
 IR Inten    --     6.2273                 1.3463                 0.4160
 Raman Activ --     0.1935                 0.1972                 0.6006

                    16                     17                     18
                     A                      A                      A
 Frequencies --   207.1314               227.3357               258.1677
 Red. masses --     7.1136                 6.0037                 4.3509
 Frc consts  --     0.1798                 0.1828                 0.1709
 IR Inten    --     1.1178                 4.3082                19.1622
 Raman Activ --     1.9144                 1.8017                 0.4823

                    19                     20                     21
                     A                      A                      A
 Frequencies --   279.0067               287.0735               300.7189
 Red. masses --     4.4697                 4.9875                 5.6897
 Frc consts  --     0.2050                 0.2422                 0.3032
 IR Inten    --     0.7927                 0.8517                 1.3300
 Raman Activ --     0.0854                 0.1325                 3.9917

                    22                     23                     24
                     A                      A                      A
 Frequencies --   303.7341               310.4764               316.1026
 Red. masses --     5.0709                 5.7973                 6.9741
 Frc consts  --     0.2756                 0.3293                 0.4106
 IR Inten    --     1.8185                10.7081                 5.9909
 Raman Activ --     0.4307                 0.5203                 4.5719

                    25                     26                     27
                     A                      A                      A
 Frequencies --   337.1652               351.8905               378.0620
 Red. masses --     6.9329                 4.6416                 5.9899
 Frc consts  --     0.4644                 0.3386                 0.5044
 IR Inten    --     9.2858                 1.9380                 1.0284
 Raman Activ --     2.0485                 0.3020                 0.7524

                    28                     29                     30
                     A                      A                      A
 Frequencies --   400.0993               422.7866               430.0964
 Red. masses --     4.9338                 6.0270                 4.8533
 Frc consts  --     0.4653                 0.6347                 0.5290
 IR Inten    --    17.3428                 6.8584                 5.1347
 Raman Activ --     1.8227                 6.5198                 0.5381

                    31                     32                     33
                     A                      A                      A
 Frequencies --   434.3467               473.9935               484.4459
 Red. masses --     5.2431                 4.5905                 4.0338
 Frc consts  --     0.5828                 0.6077                 0.5578
 IR Inten    --     2.7170                 6.8428                16.7501
 Raman Activ --     2.7467                 4.0850                 0.2520

                    34                     35                     36
                     A                      A                      A
 Frequencies --   517.7770               524.6340               567.5234
 Red. masses --     4.1594                 3.1509                 4.4363
 Frc consts  --     0.6570                 0.5110                 0.8419
 IR Inten    --     9.7194                 7.0588                27.0306
 Raman Activ --     2.2173                 3.7932                 2.3908

                    37                     38                     39
                     A                      A                      A
 Frequencies --   580.0563               594.8449               604.3362
 Red. masses --     4.3210                 3.6871                 4.3795
 Frc consts  --     0.8566                 0.7687                 0.9424
 IR Inten    --    13.5840                17.1336                35.0972
 Raman Activ --     0.7404                 1.2991                 0.3001

                    40                     41                     42
                     A                      A                      A
 Frequencies --   628.7696               642.0846               678.1206
 Red. masses --     3.0991                 1.2114                 4.9250
 Frc consts  --     0.7219                 0.2942                 1.3343
 IR Inten    --    15.0566               106.0087                10.1084
 Raman Activ --     0.7070                 1.6905                 1.2795

                    43                     44                     45
                     A                      A                      A
 Frequencies --   707.7375               713.9246               745.3064
 Red. masses --     1.0642                 1.0505                 1.0941
 Frc consts  --     0.3141                 0.3155                 0.3581
 IR Inten    --    97.8671                98.1556               133.4453
 Raman Activ --     1.9223                 2.1408                 1.9155

                    46                     47                     48
                     A                      A                      A
 Frequencies --   793.5397               840.2272               857.8659
 Red. masses --     1.1028                 1.7418                 1.6214
 Frc consts  --     0.4092                 0.7245                 0.7030
 IR Inten    --   115.4956                 6.4761                 4.9591
 Raman Activ --     3.3021                 0.6719                 0.4347

                    49                     50                     51
                     A                      A                      A
 Frequencies --   898.3909               932.8183               959.4524
 Red. masses --     1.1695                 4.0897                 4.3125
 Frc consts  --     0.5561                 2.0967                 2.3390
 IR Inten    --    98.9515               152.1144                16.8874
 Raman Activ --     0.7160                 3.6946                 0.7675

                    52                     53                     54
                     A                      A                      A
 Frequencies --   990.1981               994.3922              1005.5015
 Red. masses --     5.1313                 4.0619                 6.6871
 Frc consts  --     2.9643                 2.3665                 3.9834
 IR Inten    --    66.0461                20.6100               149.8818
 Raman Activ --     3.3286                 1.1852                 1.0785

                    55                     56                     57
                     A                      A                      A
 Frequencies --  1015.1496              1017.3760              1030.6252
 Red. masses --     6.8895                 5.5504                 5.0704
 Frc consts  --     4.1831                 3.3849                 3.1731
 IR Inten    --    87.7077                90.4611               127.5696
 Raman Activ --     1.1446                 3.2321                 1.7801

                    58                     59                     60
                     A                      A                      A
 Frequencies --  1036.8554              1049.8702              1066.9407
 Red. masses --     4.4412                 4.2104                 3.8748
 Frc consts  --     2.8131                 2.7343                 2.5989
 IR Inten    --   522.3847               260.5960                36.3329
 Raman Activ --     2.0385                 3.9732                 7.5662

                    61                     62                     63
                     A                      A                      A
 Frequencies --  1071.2593              1080.4644              1093.7984
 Red. masses --     4.6089                 4.8266                 3.3091
 Frc consts  --     3.1163                 3.3198                 2.3326
 IR Inten    --   151.4075                12.6342                54.6523
 Raman Activ --     3.3731                 2.0269                 7.2235

                    64                     65                     66
                     A                      A                      A
 Frequencies --  1103.0362              1108.3608              1109.7145
 Red. masses --     2.3053                 2.0302                 2.7408
 Frc consts  --     1.6526                 1.4694                 1.9886
 IR Inten    --    28.1266                82.1225                20.7214
 Raman Activ --     4.1893                 4.6779                 8.2703

                    67                     68                     69
                     A                      A                      A
 Frequencies --  1124.1096              1131.2007              1132.5394
 Red. masses --     2.4800                 2.3399                 2.9590
 Frc consts  --     1.8464                 1.7641                 2.2361
 IR Inten    --    39.3224                16.1752                24.8015
 Raman Activ --     6.4010                 9.9662                10.7858

                    70                     71                     72
                     A                      A                      A
 Frequencies --  1139.4496              1143.3120              1154.2183
 Red. masses --     2.3321                 1.7907                 2.1180
 Frc consts  --     1.7840                 1.3791                 1.6625
 IR Inten    --    14.1974                20.1074                12.5299
 Raman Activ --     3.9904                 3.1909                 3.8094

                    73                     74                     75
                     A                      A                      A
 Frequencies --  1173.0737              1178.9292              1188.3350
 Red. masses --     2.4662                 1.7267                 2.4316
 Frc consts  --     1.9996                 1.4140                 2.0231
 IR Inten    --    18.6166                 6.0781                 1.4187
 Raman Activ --     3.8102                 2.4809                 1.0326

                    76                     77                     78
                     A                      A                      A
 Frequencies --  1200.2267              1204.3034              1218.5780
 Red. masses --     1.3401                 1.5507                 1.4761
 Frc consts  --     1.1374                 1.3251                 1.2915
 IR Inten    --    34.4912                 7.3408                 2.9647
 Raman Activ --     0.5158                 4.8970                 0.8477

                    79                     80                     81
                     A                      A                      A
 Frequencies --  1243.3970              1249.9445              1256.7997
 Red. masses --     1.3396                 1.2627                 1.1853
 Frc consts  --     1.2202                 1.1624                 1.1031
 IR Inten    --    24.0240                22.0893                19.9883
 Raman Activ --     0.7211                 1.9036                 2.0014

                    82                     83                     84
                     A                      A                      A
 Frequencies --  1268.2484              1282.4977              1291.5871
 Red. masses --     1.3110                 1.3143                 1.2472
 Frc consts  --     1.2424                 1.2736                 1.2258
 IR Inten    --     6.7752                13.7492                24.2540
 Raman Activ --     2.1166                 2.7375                 4.7374

                    85                     86                     87
                     A                      A                      A
 Frequencies --  1296.2092              1304.3621              1307.6791
 Red. masses --     1.3444                 1.2537                 1.2088
 Frc consts  --     1.3309                 1.2567                 1.2179
 IR Inten    --    33.4978                11.0747                35.1373
 Raman Activ --     6.1805                 3.7317                 8.1110

                    88                     89                     90
                     A                      A                      A
 Frequencies --  1311.1109              1319.8069              1330.5037
 Red. masses --     1.3662                 1.2619                 1.3039
 Frc consts  --     1.3837                 1.2951                 1.3599
 IR Inten    --    26.2929                12.4191                14.3784
 Raman Activ --     5.6444                 6.5891                 4.7159

                    91                     92                     93
                     A                      A                      A
 Frequencies --  1346.3389              1349.5304              1360.5348
 Red. masses --     1.2859                 1.1872                 1.3114
 Frc consts  --     1.3733                 1.2739                 1.4302
 IR Inten    --    22.1284                50.8695                12.5206
 Raman Activ --     2.6837                 2.6890                 6.9120

                    94                     95                     96
                     A                      A                      A
 Frequencies --  1363.8304              1372.1351              1376.9611
 Red. masses --     1.2850                 1.3209                 1.4722
 Frc consts  --     1.4082                 1.4652                 1.6445
 IR Inten    --     9.1536                18.8957                35.9830
 Raman Activ --     3.2898                15.3855                 3.4650

                    97                     98                     99
                     A                      A                      A
 Frequencies --  1384.6805              1396.4959              1397.8921
 Red. masses --     1.2758                 1.4754                 1.5348
 Frc consts  --     1.4412                 1.6952                 1.7671
 IR Inten    --     9.9223                 7.9567                 2.0909
 Raman Activ --     1.6477                 2.7559                 3.0034

                   100                    101                    102
                     A                      A                      A
 Frequencies --  1416.5657              1419.5052              1443.4997
 Red. masses --     1.5630                 1.4670                 1.3992
 Frc consts  --     1.8479                 1.7416                 1.7178
 IR Inten    --    36.7182                 4.2551                 8.8113
 Raman Activ --     0.5069                 3.9909                 1.5566

                   103                    104                    105
                     A                      A                      A
 Frequencies --  1473.5848              1475.9545              1484.8112
 Red. masses --     1.3463                 1.0872                 1.1107
 Frc consts  --     1.7224                 1.3955                 1.4427
 IR Inten    --    19.1386                 2.8145                 3.5269
 Raman Activ --     2.1442                 4.6889                 4.2627

                   106                    107                    108
                     A                      A                      A
 Frequencies --  1503.1292              1520.1841              3266.1287
 Red. masses --     1.2744                 1.2855                 1.0619
 Frc consts  --     1.6965                 1.7504                 6.6745
 IR Inten    --    52.1721                55.5741                29.9533
 Raman Activ --     1.4192                 1.5427                51.2811

                   109                    110                    111
                     A                      A                      A
 Frequencies --  3266.6390              3269.4093              3273.9544
 Red. masses --     1.0602                 1.0784                 1.0821
 Frc consts  --     6.6657                 6.7917                 6.8338
 IR Inten    --   126.9336                19.4988                23.1731
 Raman Activ --    19.9918               133.1640                32.7218

                   112                    113                    114
                     A                      A                      A
 Frequencies --  3285.2763              3287.8775              3291.8284
 Red. masses --     1.0821                 1.0842                 1.0839
 Frc consts  --     6.8811                 6.9052                 6.9203
 IR Inten    --    14.7414                14.9310                80.8177
 Raman Activ --    99.4399                28.8551               152.2548

                   115                    116                    117
                     A                      A                      A
 Frequencies --  3292.3528              3303.9744              3305.1652
 Red. masses --     1.0690                 1.0873                 1.0868
 Frc consts  --     6.8270                 6.9930                 6.9951
 IR Inten    --   532.3458                27.6117                 3.4512
 Raman Activ --   269.3391                13.6798                11.5666

                   118                    119                    120
                     A                      A                      A
 Frequencies --  3312.9444              3315.2064              3321.0327
 Red. masses --     1.0859                 1.0880                 1.0979
 Frc consts  --     7.0221                 7.0453                 7.1344
 IR Inten    --    15.9514                29.2193                19.1260
 Raman Activ --    56.2111                48.1111                33.8785

                   121                    122                    123
                     A                      A                      A
 Frequencies --  3321.7322              3323.3206              3364.0547
 Red. masses --     1.1032                 1.0922                 1.0656
 Frc consts  --     7.1719                 7.1069                 7.1050
 IR Inten    --    23.5407               146.1334               368.5486
 Raman Activ --    51.6181                 9.6528               140.2429

                   124                    125                    126
                     A                      A                      A
 Frequencies --  3387.3222              3390.5947              3391.8544
 Red. masses --     1.0661                 1.0692                 1.0669
 Frc consts  --     7.2073                 7.2423                 7.2318
 IR Inten    --    33.0814                48.0204                81.7235
 Raman Activ --   128.0632               156.7729               126.3898

                   127                    128                    129
                     A                      A                      A
 Frequencies --  3396.0601              3919.9921              3920.3420
 Red. masses --     1.0661                 1.0677                 1.0678
 Frc consts  --     7.2441                 9.6664                 9.6687
 IR Inten    --    27.9376               106.6724                54.2604
 Raman Activ --   144.4146                75.4874               123.1995

 - Thermochemistry -
 -------------------
 Temperature   298.150 Kelvin.  Pressure   1.00000 Atm.
 Atom     1 has atomic number  8 and mass  15.99491

 Molecular mass:   342.11621 amu.
 Principal axes and moments of inertia in atomic units:
                           1         2         3
     Eigenvalues --  4536.58953********************
           X            0.99997   0.00746  -0.00065
           Y           -0.00746   0.99997   0.00098
           Z            0.00066  -0.00097   1.00000
 This molecule is an asymmetric top.
 Rotational symmetry number  1.
 Warning -- assumption of classical behavior for rotation
           may cause significant error
 Rotational temperatures (Kelvin)      0.01909     0.00699     0.00529
 Rotational constants (GHZ):           0.39782     0.14562     0.11028
    6 imaginary frequencies ignored.
 Zero-point vibrational energy     977413.4 (Joules/Mol)
                                  233.60741 (Kcal/Mol)
 Warning -- explicit consideration of  33 degrees of freedom as
           vibrations may cause significant error
 Vibrational temperatures:      4.88    53.16    81.67   111.90   137.02
          (Kelvin)            187.55   218.49   247.57   258.49   298.02
                              327.08   371.45   401.43   413.03   432.67
                              437.01   446.71   454.80   485.10   506.29
                              543.95   575.65   608.29   618.81   624.93
                              681.97   697.01   744.96   754.83   816.54
                              834.57   855.85   869.50   904.66   923.82
                              975.66  1018.28  1027.18  1072.33  1141.73
                             1208.90  1234.28  1292.58  1342.12  1380.44
                             1424.67  1430.71  1446.69  1460.57  1463.78
                             1482.84  1491.80  1510.53  1535.09  1541.30
                             1554.55  1573.73  1587.02  1594.68  1596.63
                             1617.34  1627.54  1629.47  1639.41  1644.97
                             1660.66  1687.79  1696.21  1709.75  1726.86
                             1732.72  1753.26  1788.97  1798.39  1808.25
                             1824.72  1845.23  1858.30  1864.95  1876.68
                             1881.46  1886.39  1898.91  1914.30  1937.08
                             1941.67  1957.50  1962.25  1974.19  1981.14
                             1992.24  2009.24  2011.25  2038.12  2042.35
                             2076.87  2120.16  2123.57  2136.31  2162.66
                             2187.20  4699.22  4699.96  4703.94  4710.48
                             4726.77  4730.52  4736.20  4736.96  4753.68
                             4755.39  4766.58  4769.84  4778.22  4779.23
                             4781.51  4840.12  4873.59  4878.30  4880.12
                             4886.17  5639.99  5640.49

 Zero-point correction=                           0.372277 (Hartree/Particle)
 Thermal correction to Energy=                    0.391655
 Thermal correction to Enthalpy=                  0.392599
 Thermal correction to Gibbs Free Energy=         0.322528
 Sum of electronic and zero-point Energies=          -1297.558622
 Sum of electronic and thermal Energies=             -1297.539245
 Sum of electronic and thermal Enthalpies=           -1297.538300
 Sum of electronic and thermal Free Energies=        -1297.608371

                     E (Thermal)             CV                S
                      KCal/Mol        Cal/Mol-Kelvin    Cal/Mol-Kelvin
 Total                  245.767             77.995            147.475
 Electronic               0.000              0.000              0.000
 Translational            0.889              2.981             43.384
 Rotational               0.889              2.981             35.174
 Vibrational            243.989             72.034             68.917
 Vibration     1          0.592              1.987             10.161
 Vibration     2          0.594              1.982              5.416
 Vibration     3          0.596              1.975              4.567
 Vibration     4          0.599              1.964              3.946
 Vibration     5          0.603              1.953              3.550
 Vibration     6          0.612              1.923              2.941
 Vibration     7          0.619              1.901              2.649
 Vibration     8          0.626              1.877              2.413
 Vibration     9          0.629              1.867              2.332
 Vibration    10          0.641              1.830              2.069
 Vibration    11          0.651              1.799              1.900
 Vibration    12          0.667              1.749              1.674
 Vibration    13          0.679              1.712              1.540
 Vibration    14          0.684              1.698              1.491
 Vibration    15          0.693              1.672              1.413
 Vibration    16          0.695              1.667              1.396
 Vibration    17          0.699              1.654              1.360
 Vibration    18          0.703              1.643              1.330
 Vibration    19          0.718              1.601              1.226
 Vibration    20          0.728              1.571              1.158
 Vibration    21          0.748              1.517              1.047
 Vibration    22          0.766              1.470              0.962
 Vibration    23          0.785              1.421              0.883
 Vibration    24          0.791              1.405              0.858
 Vibration    25          0.795              1.395              0.845
 Vibration    26          0.831              1.308              0.726
 Vibration    27          0.841              1.285              0.698
 Vibration    28          0.873              1.211              0.615
 Vibration    29          0.880              1.195              0.599
 Vibration    30          0.923              1.102              0.509
 Vibration    31          0.937              1.074              0.485
 Vibration    32          0.953              1.043              0.459
 Vibration    33          0.963              1.023              0.442

 Normal termination of Gaussian 09 at Thu Jan 21 05:06:33 2016.
