 Gaussian 09, Revision B.01,
 Gaussian 09:  EM64L-G09RevB.01 12-Aug-2010

 --------------------------------------------------
 # freq=raman b3lyp/6-31+g(2df,p) geom=connectivity
 --------------------------------------------------

 ------------
 280 8000.com
 ------------
 Symbolic Z-matrix:
 Charge =  0 Multiplicity = 1

                         Standard orientation:
 ---------------------------------------------------------------------
 Center     Atomic      Atomic             Coordinates (Angstroms)
 Number     Number       Type             X           Y           Z
 ---------------------------------------------------------------------
      1          8           0        5.014572   -0.279250   -0.211283
      2          6           0        3.721465   -0.120320    0.391017
      3          6           0        3.242807    1.249356   -0.061003
      4          8           0        3.893018    2.254379    0.730516
      5          1           0        4.829205    1.909432    0.660786
      6          6           0        1.760371    1.540961    0.101578
      7          8           0        1.332845    2.660058   -0.689780
      8          1           0        0.383780    2.825734   -0.418707
      9          6           0        3.111549   -2.501501    0.187392
     10          8           0        4.135884   -3.322774   -0.392068
     11          1           0        3.776048   -4.256108   -0.361571
     12          6           0        2.830775   -1.106966   -0.347484
     13          8           0        1.446242   -0.869735   -0.054835
     14          6           0        0.926726    0.403319   -0.465135
     15          8           0       -0.286165    0.422543    0.300914
     16          6           0       -1.564095    0.222897   -0.320911
     17          6           0       -1.980290   -1.086483    0.330347
     18          8           0       -0.965825   -2.058376    0.037950
     19          1           0       -0.116595   -1.600310    0.299548
     20          6           0       -3.387275   -1.491643   -0.077731
     21          8           0       -3.854722   -2.727259    0.482378
     22          1           0       -4.779415   -2.954382    0.177826
     23          6           0       -2.191541    2.621986   -0.236215
     24          8           0       -1.049722    3.289327    0.320958
     25          1           0       -1.206558    4.258847    0.509197
     26          6           0       -2.567156    1.223647    0.228341
     27          8           0       -3.847584    0.854514   -0.303346
     28          6           0       -4.370637   -0.373085    0.223557
     29          8           0       -5.629170   -0.661734   -0.390997
     30          1           0        5.667963   -0.444155    0.472446
     31          1           0        3.512051    1.387952   -1.087258
     32          1           0        3.720906   -0.249460    1.453195
     33          1           0        3.008154   -1.063469   -1.401782
     34          1           0        2.196023   -3.051330    0.121062
     35          1           0        3.346518   -2.395921    1.225921
     36          1           0        0.758690    0.475926   -1.519361
     37          1           0        1.521117    1.700234    1.132252
     38          1           0       -1.527735    0.178033   -1.389352
     39          1           0       -2.584430    1.180879    1.297347
     40          1           0       -3.039752    3.250239   -0.060900
     41          1           0       -2.041569    2.572290   -1.294486
     42          1           0       -4.499748   -0.283639    1.281966
     43          1           0       -3.376026   -1.618824   -1.140086
     44          1           0       -1.984865   -0.934091    1.389429
     45          1           0       -6.274936   -0.874435    0.286753
 ---------------------------------------------------------------------

 SCF Done:  E(RB3LYP) =  -1298.00211519     A.U. after   13 cycles

 The electronic state is 1-A.
 Alpha  occ. eigenvalues --  -19.19399 -19.18442 -19.18067 -19.17599 -19.17531
 Alpha  occ. eigenvalues --  -19.17392 -19.15948 -19.15701 -19.15083 -19.13050
 Alpha  occ. eigenvalues --  -19.12707 -10.30659 -10.29725 -10.26221 -10.25667
 Alpha  occ. eigenvalues --  -10.25112 -10.25036 -10.24947 -10.24179 -10.23464
 Alpha  occ. eigenvalues --  -10.23447 -10.23406 -10.23348  -1.09905  -1.08964
 Alpha  occ. eigenvalues --   -1.05943  -1.05767  -1.04048  -1.03411  -1.02454
 Alpha  occ. eigenvalues --   -1.02154  -1.02001  -1.00293  -0.99367  -0.82447
 Alpha  occ. eigenvalues --   -0.79978  -0.79133  -0.77465  -0.71910  -0.69567
 Alpha  occ. eigenvalues --   -0.67106  -0.64249  -0.63155  -0.62305  -0.61192
 Alpha  occ. eigenvalues --   -0.60046  -0.56462  -0.56150  -0.55760  -0.54359
 Alpha  occ. eigenvalues --   -0.53878  -0.53411  -0.52306  -0.51562  -0.50582
 Alpha  occ. eigenvalues --   -0.50444  -0.49973  -0.49626  -0.47957  -0.46510
 Alpha  occ. eigenvalues --   -0.46237  -0.44636  -0.44015  -0.43635  -0.42930
 Alpha  occ. eigenvalues --   -0.42522  -0.41702  -0.40794  -0.40362  -0.39079
 Alpha  occ. eigenvalues --   -0.38422  -0.37735  -0.37648  -0.37034  -0.36392
 Alpha  occ. eigenvalues --   -0.35704  -0.34684  -0.34248  -0.33969  -0.33206
 Alpha  occ. eigenvalues --   -0.32716  -0.31982  -0.31018  -0.30235  -0.29798
 Alpha  occ. eigenvalues --   -0.29128  -0.28573  -0.27639  -0.27550  -0.25976
 Alpha  occ. eigenvalues --   -0.25610
 Alpha virt. eigenvalues --   -0.02309  -0.02005  -0.01773  -0.00172   0.00267
 Alpha virt. eigenvalues --    0.00988   0.01831   0.02268   0.03057   0.03575
 Alpha virt. eigenvalues --    0.03891   0.04307   0.04837   0.05445   0.05695

 Mulliken atomic charges:
              1
     1  O   -0.436488
     2  C   -0.162199
     3  C    0.068723
     4  O   -0.464477
     5  H    0.326259
     6  C    0.029607
     7  O   -0.487167
     8  H    0.433395
     9  C   -0.331040
    10  O   -0.434002
    11  H    0.338408
    12  C    0.026147
    13  O    0.029951
    14  C   -0.255738
    15  O   -0.042170
    16  C   -0.138835
    17  C    0.114087
    18  O   -0.473851
    19  H    0.411360
    20  C    0.035604
    21  O   -0.476079
    22  H    0.345885
    23  C   -0.457139
    24  O   -0.506264
    25  H    0.381748
    26  C    0.048050
    27  O   -0.073648
    28  C   -0.038492
    29  O   -0.480813
    30  H    0.345505
    31  H    0.145098
    32  H    0.143635
    33  H    0.135936
    34  H    0.147869
    35  H    0.131064
    36  H    0.147065
    37  H    0.147696
    38  H    0.140762
    39  H    0.133555
    40  H    0.148616
    41  H    0.167129
    42  H    0.129708
    43  H    0.132273
    44  H    0.119952
    45  H    0.353315
 Sum of Mulliken atomic charges =   0.00000

 Dipole moment (field-independent basis, Debye):
    X=             -2.5481    Y=              0.9188    Z=              2.5369  Tot=              3.7112
 Quadrupole moment (field-independent basis, Debye-Ang):
   XX=           -120.7159   YY=           -137.3513   ZZ=           -137.1639
   XY=            -12.0236   XZ=              0.0592   YZ=              1.5760

  Exact polarizability: 232.718   1.575 195.444   0.533   0.058 144.245
 Approx polarizability: 274.086   1.331 254.365   0.169   0.575 239.889

 ******    7 imaginary frequencies (negative Signs) ******

                     1                      2                      3
                     A                      A                      A
 Frequencies --  -291.9870              -262.3210              -191.9068
 Red. masses --     1.7584                 1.7090                 1.2472
 Frc consts  --     0.0883                 0.0693                 0.0271
 IR Inten    --     5.5464                 2.7505               113.4477
 Raman Activ --     0.1714                 0.0217                 0.9398

                     4                      5                      6
                     A                      A                      A
 Frequencies --  -179.1618               -81.6400               -43.1817
 Red. masses --     1.2540                 6.4089                 6.0036
 Frc consts  --     0.0237                 0.0252                 0.0066
 IR Inten    --   109.4861                 1.2753                 0.3250
 Raman Activ --     0.9176                 0.0574                 0.0504

                     7                      8                      9
                     A                      A                      A
 Frequencies --   -23.8678                37.8398                42.1394
 Red. masses --     5.6843                 6.6031                 6.9735
 Frc consts  --     0.0019                 0.0056                 0.0073
 IR Inten    --     1.7243                 0.5669                 0.5836
 Raman Activ --     0.0477                 0.0283                 0.0791

                    10                     11                     12
                     A                      A                      A
 Frequencies --    72.0592                87.9931               133.5706
 Red. masses --     6.8789                 6.1895                 6.0698
 Frc consts  --     0.0210                 0.0282                 0.0638
 IR Inten    --     0.5582                 2.1594                 1.1675
 Raman Activ --     0.0704                 0.3890                 0.0491

                    13                     14                     15
                     A                      A                      A
 Frequencies --   153.4024               179.3035               185.0673
 Red. masses --     6.0612                 5.7483                 7.1196
 Frc consts  --     0.0840                 0.1089                 0.1437
 IR Inten    --     6.7897                 2.0948                 2.4017
 Raman Activ --     0.2942                 0.0740                 0.9462

                    16                     17                     18
                     A                      A                      A
 Frequencies --   217.4228               237.2463               268.1810
 Red. masses --     7.3145                 5.7881                 4.2790
 Frc consts  --     0.2037                 0.1919                 0.1813
 IR Inten    --     0.2051                 1.4561                13.8988
 Raman Activ --     2.7162                 0.0854                 0.3283

                    19                     20                     21
                     A                      A                      A
 Frequencies --   277.4082               290.1131               305.2337
 Red. masses --     4.6131                 5.2424                 5.3535
 Frc consts  --     0.2092                 0.2600                 0.2939
 IR Inten    --     2.1400                 2.6836                 5.3056
 Raman Activ --     0.5197                 0.5975                 1.9537

                    22                     23                     24
                     A                      A                      A
 Frequencies --   312.2803               319.3966               327.0941
 Red. masses --     5.0895                 4.8876                 5.4354
 Frc consts  --     0.2924                 0.2938                 0.3426
 IR Inten    --     9.8582                 1.4691                 2.9800
 Raman Activ --     0.1282                 1.2153                 3.4946

                    25                     26                     27
                     A                      A                      A
 Frequencies --   350.0090               375.2056               383.5285
 Red. masses --     6.8687                 5.2979                 6.1529
 Frc consts  --     0.4958                 0.4394                 0.5332
 IR Inten    --     7.7077                 4.1802                 0.2752
 Raman Activ --     3.3597                 0.4607                 0.7786

                    28                     29                     30
                     A                      A                      A
 Frequencies --   416.2190               417.8486               442.1114
 Red. masses --     4.9707                 6.0166                 5.7927
 Frc consts  --     0.5074                 0.6189                 0.6671
 IR Inten    --     6.5029                 9.5911                 0.0539
 Raman Activ --     6.5725                 2.4382                 2.0883

                    31                     32                     33
                     A                      A                      A
 Frequencies --   459.4379               496.4238               497.7063
 Red. masses --     4.7355                 3.7210                 3.9447
 Frc consts  --     0.5889                 0.5403                 0.5757
 IR Inten    --     3.3805                 2.4213                18.4606
 Raman Activ --     2.4684                 2.4195                 0.0836

                    34                     35                     36
                     A                      A                      A
 Frequencies --   523.1012               554.8177               574.3371
 Red. masses --     3.8478                 3.2482                 5.0143
 Frc consts  --     0.6203                 0.5891                 0.9745
 IR Inten    --    10.7134                 8.9818                 5.7588
 Raman Activ --     2.0582                 3.7497                 0.9934

                    37                     38                     39
                     A                      A                      A
 Frequencies --   592.4515               605.0145               611.8906
 Red. masses --     3.5914                 3.5907                 4.5756
 Frc consts  --     0.7427                 0.7744                 1.0093
 IR Inten    --    19.5504                 6.0997                51.2844
 Raman Activ --     0.7356                 0.9523                 1.2019

                    40                     41                     42
                     A                      A                      A
 Frequencies --   654.4107               678.9333               700.7020
 Red. masses --     4.0984                 1.1254                 3.7919
 Frc consts  --     1.0341                 0.3056                 1.0969
 IR Inten    --    12.1376               102.4731                23.7521
 Raman Activ --     0.5981                 1.4508                 0.4809

                    43                     44                     45
                     A                      A                      A
 Frequencies --   715.2108               724.0861               796.6740
 Red. masses --     1.1154                 1.0545                 1.1057
 Frc consts  --     0.3362                 0.3257                 0.4135
 IR Inten    --    84.0235                91.5186                80.2207
 Raman Activ --     1.4667                 1.9345                 1.1974

                    46                     47                     48
                     A                      A                      A
 Frequencies --   847.5117               859.4448               870.6686
 Red. masses --     1.5150                 1.8154                 1.1540
 Frc consts  --     0.6411                 0.7900                 0.5154
 IR Inten    --    21.8840                 5.4887                95.0390
 Raman Activ --     0.5610                 0.5315                 2.9465

                    49                     50                     51
                     A                      A                      A
 Frequencies --   900.2641               911.8245               959.4207
 Red. masses --     1.6739                 2.1618                 4.1150
 Frc consts  --     0.7993                 1.0590                 2.2317
 IR Inten    --   104.9084                44.5833               105.8155
 Raman Activ --     1.8036                 1.4393                 1.3790

                    52                     53                     54
                     A                      A                      A
 Frequencies --   977.1364               994.4351               995.2105
 Red. masses --     4.8564                 4.4423                 7.1220
 Frc consts  --     2.7320                 2.5883                 4.1560
 IR Inten    --    29.0899                14.7436                81.8053
 Raman Activ --     1.8449                 2.8018                 2.9192

                    55                     56                     57
                     A                      A                      A
 Frequencies --  1012.8718              1025.4839              1031.0036
 Red. masses --     5.7147                 5.5788                 6.4902
 Frc consts  --     3.4542                 3.4566                 4.0647
 IR Inten    --   219.5428               382.9451               107.6658
 Raman Activ --     5.8302                 2.6801                 3.9774

                    58                     59                     60
                     A                      A                      A
 Frequencies --  1033.3755              1044.0870              1051.4353
 Red. masses --     4.6028                 6.2690                 4.0462
 Frc consts  --     2.8959                 4.0265                 2.6355
 IR Inten    --   170.7512               191.1468                83.6685
 Raman Activ --     1.9118                 1.3352                 6.5476

                    61                     62                     63
                     A                      A                      A
 Frequencies --  1062.1120              1074.2060              1078.4626
 Red. masses --     2.7941                 3.4855                 4.0980
 Frc consts  --     1.8571                 2.3697                 2.8082
 IR Inten    --    34.9666               114.1336                54.1655
 Raman Activ --     6.2704                20.5998                 5.7181

                    64                     65                     66
                     A                      A                      A
 Frequencies --  1089.1519              1096.8523              1103.4905
 Red. masses --     3.2422                 3.1329                 1.9678
 Frc consts  --     2.2661                 2.2207                 1.4118
 IR Inten    --     7.3333                10.4346                 1.6334
 Raman Activ --     3.0499                 7.7269                 7.9177

                    67                     68                     69
                     A                      A                      A
 Frequencies --  1111.9474              1118.0629              1119.1894
 Red. masses --     2.0729                 2.2849                 1.9331
 Frc consts  --     1.5101                 1.6829                 1.4266
 IR Inten    --     8.4275                 7.6571                87.9204
 Raman Activ --     6.1710                 3.0181                 5.8864

                    70                     71                     72
                     A                      A                      A
 Frequencies --  1121.6848              1133.2962              1146.4287
 Red. masses --     1.8423                 2.2683                 2.5497
 Frc consts  --     1.3657                 1.7165                 1.9744
 IR Inten    --    58.1675                12.2296                22.6735
 Raman Activ --     3.0600                 5.0781                 3.8640

                    73                     74                     75
                     A                      A                      A
 Frequencies --  1147.6943              1159.3881              1161.9828
 Red. masses --     2.4814                 1.9983                 1.5035
 Frc consts  --     1.9257                 1.5826                 1.1961
 IR Inten    --    43.9827                 3.4605                19.9851
 Raman Activ --     1.1810                 2.3519                 2.8561

                    76                     77                     78
                     A                      A                      A
 Frequencies --  1175.9949              1194.7382              1198.5646
 Red. masses --     1.3884                 1.4085                 1.4740
 Frc consts  --     1.1313                 1.1845                 1.2476
 IR Inten    --    27.6983                14.9537                 3.0440
 Raman Activ --     0.2049                 1.3375                 2.9751

                    79                     80                     81
                     A                      A                      A
 Frequencies --  1215.1466              1235.0062              1242.5485
 Red. masses --     1.2408                 1.2424                 1.2516
 Frc consts  --     1.0795                 1.1165                 1.1385
 IR Inten    --     9.0270                19.6106                 7.1057
 Raman Activ --     1.0732                 0.3613                 1.5989

                    82                     83                     84
                     A                      A                      A
 Frequencies --  1250.8143              1263.0433              1267.8512
 Red. masses --     1.3731                 1.2058                 1.2549
 Frc consts  --     1.2658                 1.1334                 1.1885
 IR Inten    --    13.2074                 5.1516                 6.1314
 Raman Activ --     1.1078                 5.8607                 2.9490

                    85                     86                     87
                     A                      A                      A
 Frequencies --  1286.7119              1288.6274              1292.1729
 Red. masses --     1.3151                 1.4072                 1.3768
 Frc consts  --     1.2828                 1.3768                 1.3545
 IR Inten    --    11.8266                45.1025                 8.2946
 Raman Activ --     4.4465                 1.3273                 3.2827

                    88                     89                     90
                     A                      A                      A
 Frequencies --  1298.1859              1309.6309              1320.5294
 Red. masses --     1.4343                 1.3801                 1.2793
 Frc consts  --     1.4241                 1.3947                 1.3144
 IR Inten    --    20.2870                11.2213                27.7420
 Raman Activ --     4.5358                 7.6219                 4.2628

                    91                     92                     93
                     A                      A                      A
 Frequencies --  1325.9498              1331.9950              1334.3305
 Red. masses --     1.3798                 1.4093                 1.2765
 Frc consts  --     1.4293                 1.4732                 1.3391
 IR Inten    --    28.5512                17.1441                16.0576
 Raman Activ --     4.1246                 8.3079                 8.0014

                    94                     95                     96
                     A                      A                      A
 Frequencies --  1342.8416              1361.0059              1367.6962
 Red. masses --     1.7834                 1.1358                 1.5714
 Frc consts  --     1.8948                 1.2396                 1.7319
 IR Inten    --    19.5703                27.3924                14.0270
 Raman Activ --     5.4207                 3.9185                 2.4254

                    97                     98                     99
                     A                      A                      A
 Frequencies --  1368.5765              1370.9622              1390.2659
 Red. masses --     1.5744                 1.2969                 1.2033
 Frc consts  --     1.7374                 1.4362                 1.3703
 IR Inten    --    14.8946                 5.5319                24.3779
 Raman Activ --     3.9232                 2.6072                 2.0485

                   100                    101                    102
                     A                      A                      A
 Frequencies --  1402.0076              1428.4692              1464.1228
 Red. masses --     1.5083                 1.3913                 1.0797
 Frc consts  --     1.7468                 1.6726                 1.3636
 IR Inten    --    31.6626                13.8341                 7.6957
 Raman Activ --     1.3066                 0.9277                 4.2595

                   103                    104                    105
                     A                      A                      A
 Frequencies --  1466.7667              1477.9844              1487.8786
 Red. masses --     1.1008                 1.2733                 1.3248
 Frc consts  --     1.3953                 1.6387                 1.7280
 IR Inten    --    13.1899                56.1814                16.9077
 Raman Activ --     5.5195                 1.3492                 3.6477

                   106                    107                    108
                     A                      A                      A
 Frequencies --  1494.7226              1516.5090              3222.1274
 Red. masses --     1.2382                 1.3215                 1.0674
 Frc consts  --     1.6298                 1.7907                 6.5293
 IR Inten    --    36.0601                52.7325               810.2662
 Raman Activ --     1.4606                 1.0905               156.9028

                   109                    110                    111
                     A                      A                      A
 Frequencies --  3249.6734              3259.2011              3260.6277
 Red. masses --     1.0585                 1.0687                 1.0715
 Frc consts  --     6.5858                 6.6882                 6.7117
 IR Inten    --    27.0596                39.3616                26.6670
 Raman Activ --    70.5980                44.2328               175.3643

                   112                    113                    114
                     A                      A                      A
 Frequencies --  3270.5305              3281.0267              3282.9182
 Red. masses --     1.0831                 1.0845                 1.0841
 Frc consts  --     6.8256                 6.8785                 6.8838
 IR Inten    --     2.0980                 0.1089                23.6038
 Raman Activ --    88.0931                64.8507                42.0868

                   115                    116                    117
                     A                      A                      A
 Frequencies --  3287.8471              3290.6901              3295.4653
 Red. masses --     1.0846                 1.0835                 1.0795
 Frc consts  --     6.9081                 6.9127                 6.9073
 IR Inten    --   132.1669               110.4887               171.9646
 Raman Activ --    20.5714               166.0583                24.2383

                   118                    119                    120
                     A                      A                      A
 Frequencies --  3297.7189              3300.8879              3305.8872
 Red. masses --     1.0841                 1.0927                 1.0884
 Frc consts  --     6.9461                 7.0148                 7.0083
 IR Inten    --   158.2838               144.0919                 9.5564
 Raman Activ --    23.0941                63.1638                16.9111

                   121                    122                    123
                     A                      A                      A
 Frequencies --  3309.0808              3312.0972              3315.1998
 Red. masses --     1.0908                 1.0895                 1.0987
 Frc consts  --     7.0375                 7.0418                 7.1145
 IR Inten    --    48.6416                56.9391                76.8055
 Raman Activ --    70.5683                23.5746                33.5130

                   124                    125                    126
                     A                      A                      A
 Frequencies --  3343.5612              3351.6525              3359.7004
 Red. masses --     1.0641                 1.0700                 1.0662
 Frc consts  --     7.0091                 7.0817                 7.0908
 IR Inten    --    16.7318                37.6054                39.3918
 Raman Activ --    97.1129               123.7991               154.7412

                   127                    128                    129
                     A                      A                      A
 Frequencies --  3364.3295              3874.5903              3878.7848
 Red. masses --     1.0696                 1.0675                 1.0674
 Frc consts  --     7.1331                 9.4421                 9.4619
 IR Inten    --    74.4293                63.3714                85.4792
 Raman Activ --   160.2833               106.2591               106.5288

 - Thermochemistry -
 -------------------
 Temperature   298.150 Kelvin.  Pressure   1.00000 Atm.
 Atom     1 has atomic number  8 and mass  15.99491

 Molecular mass:   342.11621 amu.
 Principal axes and moments of inertia in atomic units:
                           1         2         3
     Eigenvalues --  4342.58016********************
           X            0.99998  -0.00647   0.00009
           Y            0.00647   0.99998  -0.00202
           Z           -0.00008   0.00202   1.00000
 This molecule is an asymmetric top.
 Rotational symmetry number  1.
 Warning -- assumption of classical behavior for rotation
           may cause significant error
 Rotational temperatures (Kelvin)      0.01995     0.00705     0.00536
 Rotational constants (GHZ):           0.41559     0.14698     0.11161
    7 imaginary frequencies ignored.
 Zero-point vibrational energy     973396.8 (Joules/Mol)
                                  232.64743 (Kcal/Mol)
 Warning -- explicit consideration of  32 degrees of freedom as
           vibrations may cause significant error
 Vibrational temperatures:     54.44    60.63   103.68   126.60   192.18
          (Kelvin)            220.71   257.98   266.27   312.82   341.34
                              385.85   399.13   417.41   439.16   449.30
                              459.54   470.61   503.58   539.84   551.81
                              598.85   601.19   636.10   661.03   714.24
                              716.09   752.63   798.26   826.34   852.40
                              870.48   880.37   941.55   976.83  1008.15
                             1029.03  1041.80  1146.23  1219.38  1236.55
                             1252.70  1295.28  1311.91  1380.39  1405.88
                             1430.77  1431.88  1457.29  1475.44  1483.38
                             1486.79  1502.21  1512.78  1528.14  1545.54
                             1551.67  1567.04  1578.12  1587.67  1599.84
                             1608.64  1610.26  1613.85  1630.56  1649.45
                             1651.27  1668.10  1671.83  1691.99  1718.96
                             1724.46  1748.32  1776.90  1787.75  1799.64
                             1817.24  1824.15  1851.29  1854.05  1859.15
                             1867.80  1884.26  1899.94  1907.74  1916.44
                             1919.80  1932.05  1958.18  1967.81  1969.07
                             1972.51  2000.28  2017.17  2055.25  2106.54
                             2110.35  2126.49  2140.72  2150.57  2181.92
                             4635.92  4675.55  4689.26  4691.31  4705.56
                             4720.66  4723.38  4730.47  4734.56  4741.43
                             4744.68  4749.24  4756.43  4761.02  4765.36
                             4769.83  4810.63  4822.27  4833.85  4840.51
                             5574.66  5580.70

 Zero-point correction=                           0.370747 (Hartree/Particle)
 Thermal correction to Energy=                    0.388931
 Thermal correction to Enthalpy=                  0.389875
 Thermal correction to Gibbs Free Energy=         0.324882
 Sum of electronic and zero-point Energies=          -1297.631368
 Sum of electronic and thermal Energies=             -1297.613185
 Sum of electronic and thermal Enthalpies=           -1297.612240
 Sum of electronic and thermal Free Energies=        -1297.677233

                     E (Thermal)             CV                S
                      KCal/Mol        Cal/Mol-Kelvin    Cal/Mol-Kelvin
 Total                  244.058             75.465            136.788
 Electronic               0.000              0.000              0.000
 Translational            0.889              2.981             43.384
 Rotational               0.889              2.981             35.110
 Vibrational            242.280             69.503             58.294
 Vibration     1          0.594              1.982              5.369
 Vibration     2          0.595              1.980              5.156
 Vibration     3          0.598              1.967              4.096
 Vibration     4          0.601              1.958              3.704
 Vibration     5          0.613              1.920              2.894
 Vibration     6          0.619              1.899              2.630
 Vibration     7          0.629              1.868              2.336
 Vibration     8          0.631              1.860              2.277
 Vibration     9          0.646              1.815              1.980
 Vibration    10          0.656              1.784              1.823
 Vibration    11          0.673              1.732              1.608
 Vibration    12          0.678              1.715              1.550
 Vibration    13          0.686              1.692              1.473
 Vibration    14          0.696              1.664              1.388
 Vibration    15          0.701              1.650              1.350
 Vibration    16          0.705              1.636              1.313
 Vibration    17          0.711              1.621              1.274
 Vibration    18          0.727              1.575              1.166
 Vibration    19          0.746              1.523              1.058
 Vibration    20          0.753              1.505              1.025
 Vibration    21          0.779              1.435              0.905
 Vibration    22          0.781              1.431              0.899
 Vibration    23          0.802              1.378              0.820
 Vibration    24          0.817              1.340              0.768
 Vibration    25          0.852              1.258              0.667
 Vibration    26          0.853              1.255              0.664
 Vibration    27          0.878              1.199              0.603
 Vibration    28          0.910              1.129              0.534
 Vibration    29          0.931              1.087              0.496
 Vibration    30          0.950              1.048              0.463
 Vibration    31          0.964              1.021              0.441
 Vibration    32          0.971              1.007              0.430

 Normal termination of Gaussian 09 at Fri Feb  5 14:35:07 2016.
