 Gaussian 09, Revision B.01,
 Gaussian 09:  EM64L-G09RevB.01 12-Aug-2010

 -------------------------------------------------
 # freq=raman b3lyp/6-31+g(2d,p) geom=connectivity
 -------------------------------------------------

 -----------------
 483 9330/9330.com
 -----------------
 Symbolic Z-matrix:
 Charge =  0 Multiplicity = 1

                         Standard orientation:
 ---------------------------------------------------------------------
 Center     Atomic      Atomic             Coordinates (Angstroms)
 Number     Number       Type             X           Y           Z
 ---------------------------------------------------------------------
      1          8           0        4.994365   -0.386258   -0.419033
      2          6           0        3.683978   -0.011318    0.029157
      3          6           0        3.107614    1.282754   -0.521820
      4          8           0        4.026452    2.352854   -0.260319
      5          1           0        4.952367    2.015443   -0.432784
      6          6           0        1.809772    1.688032    0.157646
      7          8           0        1.047227    2.745522   -0.442710
      8          1           0        0.228466    2.968443    0.085951
      9          6           0        3.092486   -2.568263    0.283576
     10          8           0        4.303877   -3.204399   -0.149697
     11          1           0        4.298020   -4.189847    0.019314
     12          6           0        2.691495   -1.154480   -0.108455
     13          8           0        1.482948   -0.811110    0.585210
     14          6           0        0.958357    0.430541    0.093365
     15          8           0       -0.322243    0.682812    0.689587
     16          6           0       -1.459620    0.230532   -0.059632
     17          6           0       -1.939021   -1.169597    0.288513
     18          8           0       -0.964313   -2.211327    0.133225
     19          1           0       -0.008956   -1.953381    0.278535
     20          6           0       -3.301280   -1.562270   -0.259069
     21          8           0       -3.693299   -2.864203    0.201205
     22          1           0       -4.535622   -3.078810   -0.293308
     23          6           0       -2.310030    2.655140    0.009724
     24          8           0       -1.250442    3.373275    0.658012
     25          1           0       -1.469880    4.349029    0.654761
     26          6           0       -2.605679    1.182421    0.241933
     27          8           0       -3.831687    0.830475   -0.415184
     28          6           0       -4.315529   -0.457751   -0.007868
     29          8           0       -5.468133   -0.803764   -0.790570
     30          1           0       -6.182512   -1.070724   -0.207479
     31          1           0       -4.576395   -0.435117    1.029598
     32          1           0       -3.192834   -1.637439   -1.320902
     33          1           0       -2.095141   -1.124091    1.346083
     34          1           0       -1.231886    0.274095   -1.104208
     35          1           0       -2.795457    1.084075    1.290366
     36          1           0       -3.212683    3.181283    0.240572
     37          1           0       -2.145831    2.764902   -1.041890
     38          1           0        5.542812   -0.600401    0.339220
     39          1           0        2.291214   -3.204758   -0.029056
     40          1           0        3.108647   -2.589609    1.353241
     41          1           0        2.439790   -1.199404   -1.147458
     42          1           0        3.784991    0.152900    1.081644
     43          1           0        2.950848    1.189787   -1.576183
     44          1           0        2.006735    1.930688    1.180985
     45          1           0        0.770038    0.267474   -0.947233
 ---------------------------------------------------------------------

 SCF Done:  E(RB3LYP) =  -1297.96977995     A.U. after   13 cycles

 The electronic state is 1-A.
 Alpha  occ. eigenvalues --  -19.19402 -19.19041 -19.18649 -19.18388 -19.17939
 Alpha  occ. eigenvalues --  -19.17102 -19.16452 -19.16371 -19.15020 -19.13548
 Alpha  occ. eigenvalues --  -19.13239 -10.30997 -10.29847 -10.26465 -10.25946
 Alpha  occ. eigenvalues --  -10.25589 -10.25548 -10.25401 -10.24754 -10.24656
 Alpha  occ. eigenvalues --  -10.24647 -10.24520 -10.24094  -1.09884  -1.09201
 Alpha  occ. eigenvalues --   -1.06141  -1.05291  -1.04391  -1.04007  -1.02869
 Alpha  occ. eigenvalues --   -1.02641  -1.02000  -1.00163  -0.99716  -0.82243
 Alpha  occ. eigenvalues --   -0.80694  -0.79471  -0.78608  -0.72220  -0.70556
 Alpha  occ. eigenvalues --   -0.67548  -0.64652  -0.63351  -0.62808  -0.61380
 Alpha  occ. eigenvalues --   -0.60355  -0.56502  -0.56158  -0.55391  -0.54841
 Alpha  occ. eigenvalues --   -0.54501  -0.53496  -0.52804  -0.52101  -0.51325
 Alpha  occ. eigenvalues --   -0.50928  -0.49926  -0.49785  -0.48974  -0.46780
 Alpha  occ. eigenvalues --   -0.45956  -0.45250  -0.45198  -0.43937  -0.43631
 Alpha  occ. eigenvalues --   -0.42883  -0.41958  -0.41330  -0.40002  -0.39547
 Alpha  occ. eigenvalues --   -0.39047  -0.37809  -0.37499  -0.36138  -0.35541
 Alpha  occ. eigenvalues --   -0.35264  -0.35087  -0.33868  -0.33568  -0.33125
 Alpha  occ. eigenvalues --   -0.32794  -0.31470  -0.30661  -0.30542  -0.30176
 Alpha  occ. eigenvalues --   -0.29424  -0.28720  -0.28044  -0.27946  -0.26382
 Alpha  occ. eigenvalues --   -0.26292
 Alpha virt. eigenvalues --   -0.02271  -0.02135  -0.01888  -0.00256   0.00362
 Alpha virt. eigenvalues --    0.01210   0.01854   0.02423   0.03085   0.03625
 Alpha virt. eigenvalues --    0.03695   0.04468   0.05165   0.05278   0.05535

 Mulliken atomic charges:
              1
     1  O   -0.533026
     2  C   -0.220621
     3  C    0.458685
     4  O   -0.557618
     5  H    0.340113
     6  C   -0.272873
     7  O   -0.588909
     8  H    0.446438
     9  C   -0.280820
    10  O   -0.539617
    11  H    0.346398
    12  C    0.316576
    13  O   -0.304930
    14  C    0.393300
    15  O   -0.242291
    16  C    0.195453
    17  C    0.124315
    18  O   -0.585440
    19  H    0.382948
    20  C    0.088575
    21  O   -0.534662
    22  H    0.335692
    23  C   -0.378242
    24  O   -0.568577
    25  H    0.363840
    26  C   -0.010364
    27  O   -0.284598
    28  C    0.194032
    29  O   -0.555017
    30  H    0.340089
    31  H    0.128689
    32  H    0.128489
    33  H    0.109199
    34  H    0.114944
    35  H    0.118550
    36  H    0.147067
    37  H    0.162436
    38  H    0.345763
    39  H    0.147859
    40  H    0.145031
    41  H    0.110639
    42  H    0.115247
    43  H    0.124251
    44  H    0.130643
    45  H    0.102344
 Sum of Mulliken atomic charges =   0.00000

 Dipole moment (field-independent basis, Debye):
    X=             -2.2468    Y=             -0.0912    Z=              2.3064  Tot=              3.2211
 Quadrupole moment (field-independent basis, Debye-Ang):
   XX=           -117.1966   YY=           -132.9627   ZZ=           -141.4684
   XY=            -15.0793   XZ=              2.0137   YZ=              3.5153

  Exact polarizability: 232.713  -0.124 200.502   0.752   0.566 143.331
 Approx polarizability: 273.508  -1.488 261.246   1.810   2.086 239.492

 ******    6 imaginary frequencies (negative Signs) ******

                     1                      2                      3
                     A                      A                      A
 Frequencies --  -330.5231              -303.7308              -235.7921
 Red. masses --     1.6971                 1.6751                 1.2135
 Frc consts  --     0.1092                 0.0910                 0.0398
 IR Inten    --     8.5113                 4.5523               113.2973
 Raman Activ --     0.1034                 0.0266                 0.9708

                     4                      5                      6
                     A                      A                      A
 Frequencies --  -224.9731               -70.3069               -62.8656
 Red. masses --     1.1557                 6.7533                 6.9929
 Frc consts  --     0.0345                 0.0197                 0.0163
 IR Inten    --   107.6674                 0.8371                 0.9054
 Raman Activ --     0.9228                 0.0487                 0.0174

                     7                      8                      9
                     A                      A                      A
 Frequencies --    49.0778                56.1614                68.9221
 Red. masses --     6.7778                 6.7337                 6.9482
 Frc consts  --     0.0096                 0.0125                 0.0194
 IR Inten    --     0.4601                 0.7225                 5.2885
 Raman Activ --     0.0379                 0.0434                 0.0736

                    10                     11                     12
                     A                      A                      A
 Frequencies --    91.4409                95.8782               130.9057
 Red. masses --     6.7458                 6.3512                 5.6798
 Frc consts  --     0.0332                 0.0344                 0.0573
 IR Inten    --     3.4549                 0.2805                 1.6722
 Raman Activ --     0.0984                 0.3081                 0.0656

                    13                     14                     15
                     A                      A                      A
 Frequencies --   164.2672               176.4891               188.6287
 Red. masses --     6.1238                 6.6463                 6.4089
 Frc consts  --     0.0974                 0.1220                 0.1344
 IR Inten    --     2.4639                 4.8854                 3.1739
 Raman Activ --     0.4662                 0.4463                 0.4461

                    16                     17                     18
                     A                      A                      A
 Frequencies --   215.0070               230.2021               257.6603
 Red. masses --     7.0134                 5.5374                 5.0390
 Frc consts  --     0.1910                 0.1729                 0.1971
 IR Inten    --     0.7168                 4.0228                15.7325
 Raman Activ --     2.3403                 0.2656                 0.5137

                    19                     20                     21
                     A                      A                      A
 Frequencies --   280.0336               283.5521               295.3221
 Red. masses --     4.4818                 4.6537                 5.0723
 Frc consts  --     0.2071                 0.2205                 0.2606
 IR Inten    --     5.6701                 4.9802                 1.1939
 Raman Activ --     0.3826                 0.2041                 0.1844

                    22                     23                     24
                     A                      A                      A
 Frequencies --   302.9439               309.7457               316.6403
 Red. masses --     5.2269                 6.1432                 6.5652
 Frc consts  --     0.2826                 0.3473                 0.3878
 IR Inten    --    13.9506                 2.4575                 3.9851
 Raman Activ --     0.2121                 4.2679                 5.5854

                    25                     26                     27
                     A                      A                      A
 Frequencies --   340.2549               365.4882               385.7979
 Red. masses --     5.8439                 4.9702                 6.3793
 Frc consts  --     0.3986                 0.3912                 0.5594
 IR Inten    --     8.5989                 2.7876                 0.9943
 Raman Activ --     2.4921                 0.1045                 0.6461

                    28                     29                     30
                     A                      A                      A
 Frequencies --   399.6406               413.8389               428.1442
 Red. masses --     5.4856                 5.5807                 5.0689
 Frc consts  --     0.5162                 0.5631                 0.5474
 IR Inten    --    18.2537                 0.0763                 5.8703
 Raman Activ --     3.1865                 2.8964                 1.8022

                    31                     32                     33
                     A                      A                      A
 Frequencies --   430.3449               467.2747               478.5653
 Red. masses --     5.3647                 3.7516                 4.5132
 Frc consts  --     0.5854                 0.4826                 0.6090
 IR Inten    --     5.4179                14.4498                 9.0350
 Raman Activ --     7.7384                 1.4748                 1.9559

                    34                     35                     36
                     A                      A                      A
 Frequencies --   497.1386               528.9710               554.6120
 Red. masses --     4.7730                 3.2768                 4.7648
 Frc consts  --     0.6950                 0.5402                 0.8635
 IR Inten    --     1.7447                 9.1620                 9.7828
 Raman Activ --     2.8367                 2.6275                 1.1790

                    37                     38                     39
                     A                      A                      A
 Frequencies --   568.6685               572.9619               593.3884
 Red. masses --     4.5658                 4.5704                 3.7651
 Frc consts  --     0.8699                 0.8840                 0.7811
 IR Inten    --    13.4249                14.5935                 9.2090
 Raman Activ --     0.8588                 1.4793                 0.2317

                    40                     41                     42
                     A                      A                      A
 Frequencies --   615.5182               654.2321               665.4599
 Red. masses --     4.0080                 1.0953                 5.1001
 Frc consts  --     0.8947                 0.2762                 1.3307
 IR Inten    --    45.9677               114.7150                12.2669
 Raman Activ --     0.8948                 1.8336                 0.9325

                    43                     44                     45
                     A                      A                      A
 Frequencies --   706.5254               735.2222               758.0201
 Red. masses --     1.0821                 1.0501                 1.0795
 Frc consts  --     0.3182                 0.3345                 0.3655
 IR Inten    --   106.6801                68.6163                77.4050
 Raman Activ --     1.8079                 0.6107                 1.6523

                    46                     47                     48
                     A                      A                      A
 Frequencies --   766.9304               844.5947               848.5460
 Red. masses --     1.0649                 1.6676                 1.7746
 Frc consts  --     0.3690                 0.7009                 0.7528
 IR Inten    --   100.0910                 9.2622                 8.8098
 Raman Activ --     1.6844                 0.9576                 0.3978

                    49                     50                     51
                     A                      A                      A
 Frequencies --   909.7069               943.0756               955.5343
 Red. masses --     1.1918                 5.1141                 5.5511
 Frc consts  --     0.5811                 2.6799                 2.9862
 IR Inten    --    58.8321               109.8721                70.9422
 Raman Activ --     0.4691                 2.2615                 0.4876

                    52                     53                     54
                     A                      A                      A
 Frequencies --   961.5127               977.9721               983.6299
 Red. masses --     5.8880                 5.7256                 5.2154
 Frc consts  --     3.2072                 3.2264                 2.9730
 IR Inten    --    52.2964                26.7039                55.0714
 Raman Activ --     1.4373                 1.3943                 0.9185

                    55                     56                     57
                     A                      A                      A
 Frequencies --   991.3914              1009.2638              1019.7850
 Red. masses --     6.3011                 6.8470                 6.5061
 Frc consts  --     3.6489                 4.1092                 3.9865
 IR Inten    --   466.5613               126.7446               281.3150
 Raman Activ --     0.7910                 3.5247                 1.7176

                    58                     59                     60
                     A                      A                      A
 Frequencies --  1024.0046              1043.5182              1055.7877
 Red. masses --     7.4694                 7.5714                 5.6396
 Frc consts  --     4.6147                 4.8577                 3.7038
 IR Inten    --   244.9210               143.4355                15.7345
 Raman Activ --     2.7888                 0.8900                 2.5451

                    61                     62                     63
                     A                      A                      A
 Frequencies --  1067.1795              1072.9221              1080.1633
 Red. masses --     3.0813                 4.7780                 4.3030
 Frc consts  --     2.0676                 3.2407                 2.9580
 IR Inten    --     0.7980                43.4393                 2.3454
 Raman Activ --     7.8542                 7.9741                 7.1284

                    64                     65                     66
                     A                      A                      A
 Frequencies --  1096.8561              1103.3338              1119.6448
 Red. masses --     2.6881                 3.0932                 3.3074
 Frc consts  --     1.9055                 2.2186                 2.4429
 IR Inten    --    54.4973                27.3324                10.6664
 Raman Activ --     2.6774                17.1899                 5.6236

                    67                     68                     69
                     A                      A                      A
 Frequencies --  1120.8384              1132.7821              1136.8028
 Red. masses --     2.8352                 2.9607                 2.6106
 Frc consts  --     2.0986                 2.2384                 1.9878
 IR Inten    --    60.4637                40.8178                26.8157
 Raman Activ --     0.2232                 9.4054                 5.8650

                    70                     71                     72
                     A                      A                      A
 Frequencies --  1152.2826              1159.4086              1177.4548
 Red. masses --     1.5144                 3.2032                 2.5591
 Frc consts  --     1.1847                 2.5369                 2.0904
 IR Inten    --     9.3957                24.8041                 2.9350
 Raman Activ --     3.0335                 3.2212                 1.0283

                    73                     74                     75
                     A                      A                      A
 Frequencies --  1182.1157              1193.0991              1201.5218
 Red. masses --     1.5561                 1.9950                 1.8082
 Frc consts  --     1.2812                 1.6732                 1.5380
 IR Inten    --     6.8102                12.1315                24.6477
 Raman Activ --     1.5283                 1.7908                 3.0223

                    76                     77                     78
                     A                      A                      A
 Frequencies --  1223.6904              1226.6319              1241.8668
 Red. masses --     1.3648                 1.4627                 1.3533
 Frc consts  --     1.2041                 1.2967                 1.2296
 IR Inten    --     5.9382                 7.0195                12.0219
 Raman Activ --     0.4312                 2.5222                 6.0512

                    79                     80                     81
                     A                      A                      A
 Frequencies --  1259.2968              1263.7773              1279.0844
 Red. masses --     1.3222                 1.2167                 1.2916
 Frc consts  --     1.2354                 1.1449                 1.2451
 IR Inten    --    19.4918                 9.7025                 9.2140
 Raman Activ --     1.9364                 1.0297                 0.9232

                    82                     83                     84
                     A                      A                      A
 Frequencies --  1281.8351              1296.4432              1305.4511
 Red. masses --     1.2240                 1.1848                 1.3114
 Frc consts  --     1.1850                 1.1732                 1.3168
 IR Inten    --    42.2693                 5.3683                55.5116
 Raman Activ --     0.4770                 3.3356                 1.3082

                    85                     86                     87
                     A                      A                      A
 Frequencies --  1310.1349              1312.4541              1315.7038
 Red. masses --     1.2158                 1.1881                 1.2238
 Frc consts  --     1.2296                 1.2058                 1.2482
 IR Inten    --    19.0822                10.7290                22.3467
 Raman Activ --     1.9014                 6.9582                 4.5177

                    88                     89                     90
                     A                      A                      A
 Frequencies --  1325.2650              1331.4170              1342.2216
 Red. masses --     1.2401                 1.2475                 1.2351
 Frc consts  --     1.2833                 1.3030                 1.3110
 IR Inten    --    22.5447                 2.9080                31.3087
 Raman Activ --     3.9338                13.3556                 6.0257

                    91                     92                     93
                     A                      A                      A
 Frequencies --  1343.9478              1364.2404              1368.9309
 Red. masses --     1.1999                 1.2501                 1.2703
 Frc consts  --     1.2769                 1.3708                 1.4026
 IR Inten    --    10.5339                 4.0020                20.7229
 Raman Activ --     4.7473                 3.9422                 3.5909

                    94                     95                     96
                     A                      A                      A
 Frequencies --  1373.4620              1375.7084              1390.8341
 Red. masses --     1.2148                 1.1751                 1.4324
 Frc consts  --     1.3502                 1.3103                 1.6326
 IR Inten    --    24.2605                25.1947                 2.4549
 Raman Activ --     2.3002                 1.4613                 4.1256

                    97                     98                     99
                     A                      A                      A
 Frequencies --  1400.1536              1409.8060              1413.3628
 Red. masses --     1.5072                 1.2274                 1.2877
 Frc consts  --     1.7409                 1.4373                 1.5156
 IR Inten    --     8.1557                 0.6186                 0.8419
 Raman Activ --     4.2729                 3.1010                10.2632

                   100                    101                    102
                     A                      A                      A
 Frequencies --  1424.1118              1435.0042              1452.1096
 Red. masses --     1.3475                 1.3237                 1.3949
 Frc consts  --     1.6101                 1.6060                 1.7329
 IR Inten    --    23.6880                47.2308                21.7118
 Raman Activ --     1.1353                 1.9621                 1.6838

                   103                    104                    105
                     A                      A                      A
 Frequencies --  1454.7708              1457.7286              1472.9543
 Red. masses --     1.4185                 1.4586                 1.1279
 Frc consts  --     1.7687                 1.8262                 1.4418
 IR Inten    --    41.2204                42.3770                 7.7583
 Raman Activ --     1.3226                 1.9732                 5.2775

                   106                    107                    108
                     A                      A                      A
 Frequencies --  1474.8676              1477.7750              3214.4047
 Red. masses --     1.1049                 1.2723                 1.0707
 Frc consts  --     1.4161                 1.6370                 6.5183
 IR Inten    --     1.2636                14.8478              1101.6829
 Raman Activ --     3.0406                 0.7351               159.0929

                   109                    110                    111
                     A                      A                      A
 Frequencies --  3248.4262              3252.5546              3254.6282
 Red. masses --     1.0793                 1.0754                 1.0636
 Frc consts  --     6.7100                 6.7027                 6.6380
 IR Inten    --    67.4802                 2.7142                36.1405
 Raman Activ --    40.8338               116.4633                29.0528

                   112                    113                    114
                     A                      A                      A
 Frequencies --  3258.7490              3261.8251              3264.9487
 Red. masses --     1.0769                 1.0743                 1.0708
 Frc consts  --     6.7382                 6.7346                 6.7255
 IR Inten    --     7.6940                21.2137                14.2855
 Raman Activ --    78.6978               189.3807                33.0071

                   115                    116                    117
                     A                      A                      A
 Frequencies --  3268.9408              3273.0644              3283.2546
 Red. masses --     1.0834                 1.0823                 1.0839
 Frc consts  --     6.8211                 6.8316                 6.8844
 IR Inten    --    22.0991                 1.4126                 3.3491
 Raman Activ --    58.9680                84.8503                70.3985

                   118                    119                    120
                     A                      A                      A
 Frequencies --  3283.6568              3292.0381              3298.5118
 Red. masses --     1.0853                 1.0863                 1.0865
 Frc consts  --     6.8947                 6.9363                 6.9647
 IR Inten    --     0.0463               119.2083                82.3771
 Raman Activ --    50.8462                 7.6466                34.3670

                   121                    122                    123
                     A                      A                      A
 Frequencies --  3302.9037              3304.5228              3312.2556
 Red. masses --     1.0728                 1.1020                 1.1042
 Frc consts  --     6.8951                 7.0899                 7.1376
 IR Inten    --   505.7096                98.9684                49.7208
 Raman Activ --   145.8695                41.1751                42.1182

                   124                    125                    126
                     A                      A                      A
 Frequencies --  3357.6694              3370.1954              3371.3046
 Red. masses --     1.0656                 1.0679                 1.0654
 Frc consts  --     7.0781                 7.1466                 7.1347
 IR Inten    --    32.6299                61.7775                43.2661
 Raman Activ --   109.9257               173.4032               114.2987

                   127                    128                    129
                     A                      A                      A
 Frequencies --  3372.4450              3888.6396              3892.4584
 Red. masses --     1.0675                 1.0677                 1.0674
 Frc consts  --     7.1531                 9.5127                 9.5287
 IR Inten    --    64.2107                89.0940                81.3941
 Raman Activ --   174.2833                72.3416               110.3100

 - Thermochemistry -
 -------------------
 Temperature   298.150 Kelvin.  Pressure   1.00000 Atm.
 Atom     1 has atomic number  8 and mass  15.99491

 Molecular mass:   342.11621 amu.
 Principal axes and moments of inertia in atomic units:
                           1         2         3
     Eigenvalues --  4595.94581********************
           X            0.99997  -0.00779  -0.00006
           Y            0.00779   0.99997  -0.00001
           Z            0.00006   0.00001   1.00000
 This molecule is an asymmetric top.
 Rotational symmetry number  1.
 Warning -- assumption of classical behavior for rotation
           may cause significant error
 Rotational temperatures (Kelvin)      0.01885     0.00715     0.00534
 Rotational constants (GHZ):           0.39268     0.14892     0.11117
    6 imaginary frequencies ignored.
 Zero-point vibrational energy     975178.1 (Joules/Mol)
                                  233.07315 (Kcal/Mol)
 Warning -- explicit consideration of  34 degrees of freedom as
           vibrations may cause significant error
 Vibrational temperatures:     70.61    80.80    99.16   131.56   137.95
          (Kelvin)            188.34   236.34   253.93   271.39   309.35
                              331.21   370.72   402.91   407.97   424.90
                              435.87   445.65   455.57   489.55   525.86
                              555.08   574.99   595.42   616.00   619.17
                              672.30   688.55   715.27   761.07   797.96
                              818.19   824.36   853.75   885.59   941.29
                              957.45  1016.53  1057.82  1090.62  1103.44
                             1215.18  1220.87  1308.86  1356.87  1374.80
                             1383.40  1407.08  1415.22  1426.39  1452.10
                             1467.24  1473.31  1501.39  1519.04  1535.43
                             1543.69  1554.11  1578.13  1587.45  1610.92
                             1612.63  1629.82  1635.60  1657.88  1668.13
                             1694.09  1700.80  1716.60  1728.72  1760.62
                             1764.85  1786.77  1811.84  1818.29  1840.31
                             1844.27  1865.29  1878.25  1884.99  1888.33
                             1893.00  1906.76  1915.61  1931.16  1933.64
                             1962.84  1969.58  1976.10  1979.34  2001.10
                             2014.51  2028.39  2033.51  2048.98  2064.65
                             2089.26  2093.09  2097.34  2119.25  2122.00
                             2126.19  4624.81  4673.75  4679.69  4682.68
                             4688.61  4693.03  4697.53  4703.27  4709.20
                             4723.87  4724.44  4736.50  4745.82  4752.14
                             4754.47  4765.59  4830.93  4848.95  4850.55
                             4852.19  5594.88  5600.37

 Zero-point correction=                           0.371426 (Hartree/Particle)
 Thermal correction to Energy=                    0.390608
 Thermal correction to Enthalpy=                  0.391552
 Thermal correction to Gibbs Free Energy=         0.324835
 Sum of electronic and zero-point Energies=          -1297.598354
 Sum of electronic and thermal Energies=             -1297.579172
 Sum of electronic and thermal Enthalpies=           -1297.578228
 Sum of electronic and thermal Free Energies=        -1297.644945

                     E (Thermal)             CV                S
                      KCal/Mol        Cal/Mol-Kelvin    Cal/Mol-Kelvin
 Total                  245.110             78.075            140.419
 Electronic               0.000              0.000              0.000
 Translational            0.889              2.981             43.384
 Rotational               0.889              2.981             35.157
 Vibrational            243.333             72.113             61.877
 Vibration     1          0.595              1.978              4.854
 Vibration     2          0.596              1.975              4.588
 Vibration     3          0.598              1.969              4.184
 Vibration     4          0.602              1.955              3.629
 Vibration     5          0.603              1.952              3.536
 Vibration     6          0.612              1.922              2.933
 Vibration     7          0.623              1.886              2.500
 Vibration     8          0.628              1.871              2.365
 Vibration     9          0.633              1.855              2.241
 Vibration    10          0.645              1.818              2.001
 Vibration    11          0.652              1.795              1.877
 Vibration    12          0.667              1.750              1.678
 Vibration    13          0.680              1.711              1.533
 Vibration    14          0.682              1.704              1.512
 Vibration    15          0.690              1.682              1.443
 Vibration    16          0.694              1.668              1.401
 Vibration    17          0.699              1.655              1.364
 Vibration    18          0.704              1.642              1.327
 Vibration    19          0.720              1.595              1.211
 Vibration    20          0.739              1.543              1.099
 Vibration    21          0.754              1.501              1.016
 Vibration    22          0.766              1.471              0.964
 Vibration    23          0.777              1.440              0.913
 Vibration    24          0.790              1.409              0.865
 Vibration    25          0.792              1.404              0.858
 Vibration    26          0.825              1.323              0.745
 Vibration    27          0.835              1.298              0.714
 Vibration    28          0.853              1.256              0.665
 Vibration    29          0.884              1.186              0.590
 Vibration    30          0.910              1.130              0.535
 Vibration    31          0.925              1.099              0.507
 Vibration    32          0.929              1.090              0.499
 Vibration    33          0.951              1.046              0.461
 Vibration    34          0.975              0.999              0.424

 Normal termination of Gaussian 09 at Thu Mar 31 00:52:52 2016.
