 Gaussian 09, Revision B.01,
 Gaussian 09:  EM64L-G09RevB.01 12-Aug-2010

 ------------------------------------------------
 # freq=raman b3lyp/6-31+g(d,p) geom=connectivity
 ------------------------------------------------

 -----------------------------
 450K 8000ps Cellobiose Unit 1
 -----------------------------
 Symbolic Z-matrix:
 Charge =  0 Multiplicity = 1

                         Standard orientation:
 ---------------------------------------------------------------------
 Center     Atomic      Atomic             Coordinates (Angstroms)
 Number     Number       Type             X           Y           Z
 ---------------------------------------------------------------------
      1          8           0        5.151835   -0.226035   -0.660592
      2          6           0        3.890360    0.011246   -0.018591
      3          6           0        3.301222    1.342902   -0.452051
      4          8           0        4.185598    2.388379   -0.021299
      5          1           0        5.090659    1.994604   -0.179829
      6          6           0        2.003506    1.586336    0.301478
      7          8           0        1.399145    2.886278    0.250084
      8          1           0        1.924770    3.513050   -0.325695
      9          6           0        3.518235   -2.330691    0.437110
     10          8           0        2.654833   -3.463582    0.260955
     11          1           0        3.132192   -4.228543    0.693396
     12          6           0        2.856475   -1.094313   -0.151132
     13          8           0        1.522151   -0.782583    0.275336
     14          6           0        0.993201    0.509371   -0.057715
     15          8           0       -0.232072    0.528229    0.689289
     16          6           0       -1.394818    0.277133   -0.112883
     17          6           0       -1.738441   -1.184763    0.122180
     18          8           0       -0.740242   -2.119197   -0.311194
     19          1           0        0.119724   -1.748345    0.041194
     20          6           0       -3.105214   -1.630099   -0.372835
     21          8           0       -3.258599   -3.038722   -0.142277
     22          1           0       -2.491908   -3.413954   -0.664163
     23          6           0       -2.394669    2.585931   -0.239614
     24          8           0       -3.445217    3.534998   -0.009490
     25          1           0       -3.561738    3.741388    0.962870
     26          6           0       -2.555013    1.170964    0.292748
     27          8           0       -3.793493    0.684338   -0.243847
     28          6           0       -4.116009   -0.645177    0.190970
     29          8           0       -5.478782   -0.930830   -0.156241
     30          1           0        5.848993    0.214031   -0.168746
     31          1           0       -6.064893   -0.519338    0.483094
     32          1           0        3.697162   -2.177259    1.480827
     33          1           0        4.447770   -2.509450   -0.061797
     34          1           0        2.774230   -1.286006   -1.200603
     35          1           0        4.100036    0.099926    1.026910
     36          1           0        3.148046    1.375493   -1.510529
     37          1           0        2.241853    1.427445    1.332421
     38          1           0        0.777764    0.551416   -1.104958
     39          1           0       -1.162125    0.432376   -1.145672
     40          1           0       -1.778290   -1.290382    1.186208
     41          1           0       -3.110138   -1.495545   -1.434330
     42          1           0       -4.037667   -0.670618    1.257795
     43          1           0       -2.620532    1.200951    1.360319
     44          1           0       -2.250991    2.516435   -1.297643
     45          1           0       -1.499165    2.989116    0.185138
 ---------------------------------------------------------------------

 SCF Done:  E(RB3LYP) =  -1297.93526857     A.U. after   14 cycles

 The electronic state is 1-A.
 Alpha  occ. eigenvalues --  -19.21795 -19.21007 -19.20243 -19.19419 -19.18900
 Alpha  occ. eigenvalues --  -19.17829 -19.16979 -19.16363 -19.15987 -19.14891
 Alpha  occ. eigenvalues --  -19.14615 -10.32476 -10.29425 -10.28782 -10.28016
 Alpha  occ. eigenvalues --  -10.27972 -10.27170 -10.25990 -10.25711 -10.25071
 Alpha  occ. eigenvalues --  -10.23601 -10.23360 -10.23213  -1.11329  -1.09358
 Alpha  occ. eigenvalues --   -1.07059  -1.06389  -1.05094  -1.03896  -1.03534
 Alpha  occ. eigenvalues --   -1.02327  -1.01672  -1.00559  -0.99567  -0.84138
 Alpha  occ. eigenvalues --   -0.82454  -0.79292  -0.78078  -0.72698  -0.69989
 Alpha  occ. eigenvalues --   -0.68084  -0.65440  -0.64406  -0.63544  -0.62264
 Alpha  occ. eigenvalues --   -0.59827  -0.58824  -0.56777  -0.55629  -0.54782
 Alpha  occ. eigenvalues --   -0.54238  -0.53646  -0.53253  -0.52509  -0.51753
 Alpha  occ. eigenvalues --   -0.50363  -0.49809  -0.49239  -0.48397  -0.47629
 Alpha  occ. eigenvalues --   -0.46525  -0.45771  -0.44961  -0.44287  -0.43783
 Alpha  occ. eigenvalues --   -0.42956  -0.42670  -0.40830  -0.40675  -0.40114
 Alpha  occ. eigenvalues --   -0.39940  -0.38359  -0.37546  -0.37097  -0.36712
 Alpha  occ. eigenvalues --   -0.36502  -0.35159  -0.34725  -0.34353  -0.33836
 Alpha  occ. eigenvalues --   -0.32808  -0.32074  -0.31373  -0.31036  -0.30424
 Alpha  occ. eigenvalues --   -0.29831  -0.29630  -0.28397  -0.27430  -0.26602
 Alpha  occ. eigenvalues --   -0.26123
 Alpha virt. eigenvalues --   -0.05053  -0.02097  -0.01274  -0.00647   0.00202
 Alpha virt. eigenvalues --    0.01031   0.01391   0.02087   0.02455   0.03404
 Alpha virt. eigenvalues --    0.03819   0.04033   0.04857   0.05186   0.05583

 Mulliken atomic charges:
              1
     1  O   -0.500221
     2  C   -0.363480
     3  C    0.170238
     4  O   -0.466804
     5  H    0.304171
     6  C   -0.335676
     7  O   -0.468440
     8  H    0.356540
     9  C   -0.152172
    10  O   -0.520884
    11  H    0.350672
    12  C    0.246508
    13  O   -0.413674
    14  C    0.529512
    15  O   -0.268953
    16  C    0.061833
    17  C    0.069489
    18  O   -0.600366
    19  H    0.447552
    20  C   -0.164706
    21  O   -0.456393
    22  H    0.371878
    23  C    0.006024
    24  O   -0.508404
    25  H    0.336809
    26  C   -0.234710
    27  O   -0.283963
    28  C    0.375316
    29  O   -0.502890
    30  H    0.352558
    31  H    0.348142
    32  H    0.131893
    33  H    0.165769
    34  H    0.144959
    35  H    0.148498
    36  H    0.150494
    37  H    0.147292
    38  H    0.106226
    39  H    0.115103
    40  H    0.136602
    41  H    0.139969
    42  H    0.101244
    43  H    0.126688
    44  H    0.139495
    45  H    0.160263
 Sum of Mulliken atomic charges =   0.00000

 Dipole moment (field-independent basis, Debye):
    X=              9.6265    Y=              1.4854    Z=              2.2810  Tot=             10.0039
 Quadrupole moment (field-independent basis, Debye-Ang):
   XX=           -122.5615   YY=           -151.1255   ZZ=           -134.4831
   XY=            -11.0489   XZ=             -9.1950   YZ=             -1.9959

  Exact polarizability: 223.111  -0.460 196.195  -2.070   0.367 142.394
 Approx polarizability: 263.697  -2.586 252.027  -1.712   1.986 233.306

 ******    7 imaginary frequencies (negative Signs) ******

                     1                      2                      3
                     A                      A                      A
 Frequencies --  -268.6819              -255.6422              -208.9445
 Red. masses --     1.3033                 1.0769                 1.9714
 Frc consts  --     0.0554                 0.0415                 0.0507
 IR Inten    --    98.5234               126.4171                 3.6713
 Raman Activ --     0.7607                 1.3891                 0.1330

                     4                      5                      6
                     A                      A                      A
 Frequencies --  -185.2767               -76.3360               -64.0501
 Red. masses --     1.7075                 6.3870                 6.2232
 Frc consts  --     0.0345                 0.0219                 0.0150
 IR Inten    --     5.3845                 0.7815                 1.1998
 Raman Activ --     0.0985                 0.0550                 0.0433

                     7                      8                      9
                     A                      A                      A
 Frequencies --   -52.8314                30.5618                48.0343
 Red. masses --     6.5181                 6.9675                 6.1463
 Frc consts  --     0.0107                 0.0038                 0.0084
 IR Inten    --     0.3777                 1.0666                 1.3526
 Raman Activ --     0.0114                 0.0767                 0.0652

                    10                     11                     12
                     A                      A                      A
 Frequencies --    61.4279                75.0512               103.9678
 Red. masses --     6.7691                 6.4624                 6.3286
 Frc consts  --     0.0150                 0.0214                 0.0403
 IR Inten    --     0.3359                 0.6850                 2.2084
 Raman Activ --     0.0934                 0.0188                 0.6063

                    13                     14                     15
                     A                      A                      A
 Frequencies --   140.0975               162.2361               184.3643
 Red. masses --     5.9794                 6.5707                 6.2944
 Frc consts  --     0.0691                 0.1019                 0.1261
 IR Inten    --     0.7026                 2.2651                 6.1687
 Raman Activ --     0.0835                 0.4832                 0.5783

                    16                     17                     18
                     A                      A                      A
 Frequencies --   191.3584               210.9222               256.4855
 Red. masses --     5.9132                 6.8760                 4.1591
 Frc consts  --     0.1276                 0.1802                 0.1612
 IR Inten    --     0.5430                 1.7475                14.3856
 Raman Activ --     0.8903                 1.9981                 0.1606

                    19                     20                     21
                     A                      A                      A
 Frequencies --   272.6802               281.2184               293.0832
 Red. masses --     4.9241                 6.5786                 4.6579
 Frc consts  --     0.2157                 0.3065                 0.2357
 IR Inten    --     5.3964                 1.4635                10.3073
 Raman Activ --     0.2128                 0.2829                 0.6482

                    22                     23                     24
                     A                      A                      A
 Frequencies --   318.9727               327.3558               343.1480
 Red. masses --     4.5070                 5.8605                 4.9011
 Frc consts  --     0.2702                 0.3700                 0.3400
 IR Inten    --     8.0878                 3.4478                 4.1089
 Raman Activ --     1.2761                 5.5536                 0.8602

                    25                     26                     27
                     A                      A                      A
 Frequencies --   364.0031               370.0828               380.0085
 Red. masses --     6.7153                 4.7505                 3.9734
 Frc consts  --     0.5242                 0.3833                 0.3381
 IR Inten    --     9.2679                 4.1009                 6.6649
 Raman Activ --     1.2359                 4.0421                 0.5914

                    28                     29                     30
                     A                      A                      A
 Frequencies --   409.5281               419.5108               427.2151
 Red. masses --     6.1518                 4.5973                 4.4695
 Frc consts  --     0.6079                 0.4767                 0.4806
 IR Inten    --     3.9687                 3.2034                 2.4505
 Raman Activ --     6.4145                 0.5807                 2.2813

                    31                     32                     33
                     A                      A                      A
 Frequencies --   437.9344               475.3450               485.4962
 Red. masses --     6.4685                 4.1472                 4.2777
 Frc consts  --     0.7309                 0.5521                 0.5941
 IR Inten    --     8.9419                12.2335                 7.2555
 Raman Activ --     2.5051                 1.0886                 0.3725

                    34                     35                     36
                     A                      A                      A
 Frequencies --   521.1631               530.2432               552.9035
 Red. masses --     3.9685                 3.7940                 4.9004
 Frc consts  --     0.6351                 0.6285                 0.8826
 IR Inten    --    18.6209                20.0528                 8.0863
 Raman Activ --     4.9992                 0.5432                 6.8118

                    37                     38                     39
                     A                      A                      A
 Frequencies --   586.8070               598.3398               603.8317
 Red. masses --     3.0236                 2.9317                 3.3765
 Frc consts  --     0.6134                 0.6184                 0.7253
 IR Inten    --    20.7972                 5.6326                 2.7005
 Raman Activ --     0.7047                 0.2804                 0.1535

                    40                     41                     42
                     A                      A                      A
 Frequencies --   621.7124               649.7330               659.5865
 Red. masses --     1.2256                 4.0620                 2.9825
 Frc consts  --     0.2791                 1.0103                 0.7645
 IR Inten    --    84.2249                16.9699                31.2047
 Raman Activ --     2.8069                 0.1428                 0.3893

                    43                     44                     45
                     A                      A                      A
 Frequencies --   682.8404               701.3204               712.3003
 Red. masses --     1.0866                 1.1331                 1.1118
 Frc consts  --     0.2985                 0.3283                 0.3324
 IR Inten    --   109.6208               131.5290                52.6968
 Raman Activ --     1.6767                 1.2081                 1.9495

                    46                     47                     48
                     A                      A                      A
 Frequencies --   715.0130               825.1992               845.3565
 Red. masses --     1.1247                 1.7912                 2.2208
 Frc consts  --     0.3388                 0.7187                 0.9351
 IR Inten    --   157.2098                75.4037                 1.5503
 Raman Activ --     2.0201                 8.3876                 1.9468

                    49                     50                     51
                     A                      A                      A
 Frequencies --   850.7782               947.7368               964.2075
 Red. masses --     1.4028                 6.5894                 6.2215
 Frc consts  --     0.5983                 3.4872                 3.4079
 IR Inten    --    40.7756               200.9032               199.4721
 Raman Activ --     2.2137                 2.3185                 1.0903

                    52                     53                     54
                     A                      A                      A
 Frequencies --   977.2721               983.3168              1005.1887
 Red. masses --     5.8184                 3.6423                 3.6576
 Frc consts  --     3.2741                 2.0750                 2.1774
 IR Inten    --    71.1953                59.6214                19.2360
 Raman Activ --     0.7104                 1.9644                 0.7923

                    55                     56                     57
                     A                      A                      A
 Frequencies --  1009.6818              1021.0557              1023.4958
 Red. masses --     6.1695                 3.1968                 3.8234
 Frc consts  --     3.7057                 1.9636                 2.3598
 IR Inten    --   102.4894                23.3153               241.4525
 Raman Activ --     0.7176                 4.8977                 0.5420

                    58                     59                     60
                     A                      A                      A
 Frequencies --  1028.2358              1054.1054              1069.3085
 Red. masses --     3.4638                 3.2025                 4.4840
 Frc consts  --     2.1577                 2.0965                 3.0208
 IR Inten    --   336.1364               253.2430                28.7516
 Raman Activ --     0.9377                 4.0019                 9.9988

                    61                     62                     63
                     A                      A                      A
 Frequencies --  1078.3515              1083.5120              1086.3663
 Red. masses --     6.5242                 5.0133                 5.6256
 Frc consts  --     4.4699                 3.4677                 3.9117
 IR Inten    --    63.4185               143.4604                 7.9035
 Raman Activ --     9.5572                12.0797                 0.9081

                    64                     65                     66
                     A                      A                      A
 Frequencies --  1100.6551              1115.9285              1117.6752
 Red. masses --     2.1580                 2.3803                 2.0164
 Frc consts  --     1.5403                 1.7464                 1.4841
 IR Inten    --    22.0662                 1.4874                74.7309
 Raman Activ --     6.6054                 2.6673                 2.5052

                    67                     68                     69
                     A                      A                      A
 Frequencies --  1122.6397              1133.9589              1143.1297
 Red. masses --     2.1829                 2.4031                 2.7068
 Frc consts  --     1.6209                 1.8206                 2.0840
 IR Inten    --     9.9411                27.6948                66.3017
 Raman Activ --     4.5338                 3.9109                 3.8706

                    70                     71                     72
                     A                      A                      A
 Frequencies --  1144.8870              1152.6233              1156.4609
 Red. masses --     2.5583                 2.7119                 2.3113
 Frc consts  --     1.9757                 2.1228                 1.8212
 IR Inten    --     2.9750                26.1252                 2.5173
 Raman Activ --     2.7015                 2.7434                 3.7433

                    73                     74                     75
                     A                      A                      A
 Frequencies --  1172.9090              1186.7429              1188.6421
 Red. masses --     1.9992                 2.5229                 2.0912
 Frc consts  --     1.6204                 2.0935                 1.7408
 IR Inten    --    27.1645                 9.0883                14.7726
 Raman Activ --     2.5882                 1.5096                 2.7038

                    76                     77                     78
                     A                      A                      A
 Frequencies --  1212.7342              1225.1607              1240.1778
 Red. masses --     1.6440                 1.4671                 1.3416
 Frc consts  --     1.4245                 1.2975                 1.2158
 IR Inten    --     3.6695                25.3043                 4.7695
 Raman Activ --     3.3883                 3.8311                 3.4946

                    79                     80                     81
                     A                      A                      A
 Frequencies --  1251.1976              1252.2365              1257.4149
 Red. masses --     1.2506                 1.3325                 1.2795
 Frc consts  --     1.1535                 1.2311                 1.1919
 IR Inten    --     1.3678                 9.8794                 4.4743
 Raman Activ --     3.9906                 3.7201                 1.6223

                    82                     83                     84
                     A                      A                      A
 Frequencies --  1264.9048              1285.9964              1291.6358
 Red. masses --     1.2916                 1.3202                 1.2800
 Frc consts  --     1.2176                 1.2864                 1.2582
 IR Inten    --     4.8111                25.5401                20.8483
 Raman Activ --     1.4673                 2.0362                 1.4070

                    85                     86                     87
                     A                      A                      A
 Frequencies --  1297.8486              1303.0377              1306.5781
 Red. masses --     1.2297                 1.2834                 1.2723
 Frc consts  --     1.2204                 1.2839                 1.2797
 IR Inten    --     0.9597                20.2722                12.3115
 Raman Activ --     2.9780                 2.6299                 3.1387

                    88                     89                     90
                     A                      A                      A
 Frequencies --  1326.1772              1333.1601              1334.2815
 Red. masses --     1.2381                 1.3984                 1.3306
 Frc consts  --     1.2829                 1.4643                 1.3957
 IR Inten    --    60.2008                 7.5617                12.9308
 Raman Activ --    10.0376                 5.7475                 1.1334

                    91                     92                     93
                     A                      A                      A
 Frequencies --  1355.7745              1357.5893              1359.7489
 Red. masses --     1.2837                 1.2399                 1.3735
 Frc consts  --     1.3902                 1.3464                 1.4962
 IR Inten    --    19.0545                15.7996                 0.2641
 Raman Activ --     2.6652                 5.1143                10.6830

                    94                     95                     96
                     A                      A                      A
 Frequencies --  1365.1132              1376.9423              1380.2325
 Red. masses --     1.2281                 1.2679                 1.3957
 Frc consts  --     1.3484                 1.4164                 1.5666
 IR Inten    --    20.0276                27.5273                 1.9901
 Raman Activ --     4.7431                 2.9421                 0.5296

                    97                     98                     99
                     A                      A                      A
 Frequencies --  1398.8908              1399.9573              1413.6660
 Red. masses --     1.3218                 1.2887                 1.1848
 Frc consts  --     1.5239                 1.4881                 1.3951
 IR Inten    --    20.1336                 3.6145                92.6275
 Raman Activ --     1.0873                 9.1406                 4.0868

                   100                    101                    102
                     A                      A                      A
 Frequencies --  1415.0979              1439.1876              1451.1887
 Red. masses --     1.3592                 1.5142                 1.3642
 Frc consts  --     1.6036                 1.8479                 1.6927
 IR Inten    --     1.4601                25.1316                51.3235
 Raman Activ --     5.3300                 4.9148                 2.4637

                   103                    104                    105
                     A                      A                      A
 Frequencies --  1463.5193              1464.4123              1471.7852
 Red. masses --     1.4139                 1.0936                 1.0744
 Frc consts  --     1.7843                 1.3818                 1.3712
 IR Inten    --    24.1141                 7.4338                 1.5700
 Raman Activ --     1.1265                 6.1402                 6.2426

                   106                    107                    108
                     A                      A                      A
 Frequencies --  1491.6736              1519.3059              3268.4477
 Red. masses --     1.4014                 1.2872                 1.0784
 Frc consts  --     1.8372                 1.7506                 6.7873
 IR Inten    --    23.7562                71.3968               112.3706
 Raman Activ --     2.1043                 1.6875                 8.5068

                   109                    110                    111
                     A                      A                      A
 Frequencies --  3269.9061              3274.3818              3276.0103
 Red. masses --     1.0614                 1.0811                 1.0808
 Frc consts  --     6.6868                 6.8292                 6.8342
 IR Inten    --    14.5995                33.4873                 7.6219
 Raman Activ --   110.5617                93.9009                90.0137

                   112                    113                    114
                     A                      A                      A
 Frequencies --  3282.6913              3285.4354              3288.9680
 Red. masses --     1.0593                 1.0817                 1.0830
 Frc consts  --     6.7256                 6.8793                 6.9024
 IR Inten    --     8.3177                86.3154                23.9334
 Raman Activ --   126.6411                19.6530                96.3553

                   115                    116                    117
                     A                      A                      A
 Frequencies --  3291.0975              3293.2579              3296.3740
 Red. masses --     1.0843                 1.0834                 1.0811
 Frc consts  --     6.9196                 6.9233                 6.9215
 IR Inten    --     7.6033                30.4199               197.1810
 Raman Activ --    50.1381               162.6415                34.8390

                   118                    119                    120
                     A                      A                      A
 Frequencies --  3298.5530              3306.5934              3314.6326
 Red. masses --     1.0777                 1.0847                 1.0857
 Frc consts  --     6.9086                 6.9876                 7.0277
 IR Inten    --   373.2563                68.5391               164.4972
 Raman Activ --    70.3623                37.6385                34.6200

                   121                    122                    123
                     A                      A                      A
 Frequencies --  3337.6633              3342.2884              3378.6401
 Red. masses --     1.1086                 1.1030                 1.0706
 Frc consts  --     7.2762                 7.2595                 7.2006
 IR Inten    --    25.8267                34.9896                17.5517
 Raman Activ --    55.6493                47.9872                73.5818

                   124                    125                    126
                     A                      A                      A
 Frequencies --  3387.6751              3389.5078              3391.5437
 Red. masses --     1.0647                 1.0651                 1.0664
 Frc consts  --     7.1989                 7.2096                 7.2274
 IR Inten    --    18.9929                51.5532                30.6595
 Raman Activ --   105.0624                52.2563               170.8027

                   127                    128                    129
                     A                      A                      A
 Frequencies --  3397.0607              3905.4019              3916.4339
 Red. masses --     1.0675                 1.0678                 1.0672
 Frc consts  --     7.2584                 9.5953                 9.6445
 IR Inten    --    46.9952                57.2507                59.6106
 Raman Activ --    85.3338                95.6239               125.4635

 - Thermochemistry -
 -------------------
 Temperature   298.150 Kelvin.  Pressure   1.00000 Atm.
 Atom     1 has atomic number  8 and mass  15.99491

 Molecular mass:   342.11621 amu.
 Principal axes and moments of inertia in atomic units:
                           1         2         3
     Eigenvalues --  4691.91706********************
           X            0.99997  -0.00731  -0.00116
           Y            0.00731   0.99997  -0.00239
           Z            0.00118   0.00238   1.00000
 This molecule is an asymmetric top.
 Rotational symmetry number  1.
 Warning -- assumption of classical behavior for rotation
           may cause significant error
 Rotational temperatures (Kelvin)      0.01846     0.00711     0.00525
 Rotational constants (GHZ):           0.38465     0.14807     0.10940
    7 imaginary frequencies ignored.
 Zero-point vibrational energy     976718.0 (Joules/Mol)
                                  233.44120 (Kcal/Mol)
 Warning -- explicit consideration of  32 degrees of freedom as
           vibrations may cause significant error
 Vibrational temperatures:     43.97    69.11    88.38   107.98   149.59
          (Kelvin)            201.57   233.42   265.26   275.32   303.47
                              369.02   392.33   404.61   421.68   458.93
                              470.99   493.71   523.72   532.47   546.75
                              589.22   603.58   614.67   630.09   683.91
                              698.52   749.84   762.90   795.50   844.28
                              860.88   868.78   894.50   934.82   949.00
                              982.45  1009.04  1024.84  1028.74  1187.28
                             1216.28  1224.08  1363.58  1387.28  1406.07
                             1414.77  1446.24  1452.71  1469.07  1472.58
                             1479.40  1516.62  1538.49  1551.51  1558.93
                             1563.04  1583.60  1605.57  1608.08  1615.23
                             1631.51  1644.71  1647.23  1658.37  1663.89
                             1687.55  1707.46  1710.19  1744.85  1762.73
                             1784.34  1800.19  1801.69  1809.14  1819.91
                             1850.26  1858.37  1867.31  1874.78  1879.87
                             1908.07  1918.12  1919.73  1950.65  1953.27
                             1956.37  1964.09  1981.11  1985.84  2012.69
                             2014.22  2033.95  2036.01  2070.67  2087.93
                             2105.68  2106.96  2117.57  2146.18  2185.94
                             4702.56  4704.66  4711.10  4713.44  4723.05
                             4727.00  4732.09  4735.15  4738.26  4742.74
                             4745.88  4757.44  4769.01  4802.15  4808.80
                             4861.10  4874.10  4876.74  4879.67  4887.61
                             5619.00  5634.87

 Zero-point correction=                           0.372012 (Hartree/Particle)
 Thermal correction to Energy=                    0.390651
 Thermal correction to Enthalpy=                  0.391595
 Thermal correction to Gibbs Free Energy=         0.325219
 Sum of electronic and zero-point Energies=          -1297.563256
 Sum of electronic and thermal Energies=             -1297.544618
 Sum of electronic and thermal Enthalpies=           -1297.543674
 Sum of electronic and thermal Free Energies=        -1297.610049

                     E (Thermal)             CV                S
                      KCal/Mol        Cal/Mol-Kelvin    Cal/Mol-Kelvin
 Total                  245.137             76.241            139.699
 Electronic               0.000              0.000              0.000
 Translational            0.889              2.981             43.384
 Rotational               0.889              2.981             35.199
 Vibrational            243.360             70.279             61.115
 Vibration     1          0.594              1.984              5.793
 Vibration     2          0.595              1.978              4.897
 Vibration     3          0.597              1.973              4.411
 Vibration     4          0.599              1.966              4.016
 Vibration     5          0.605              1.946              3.379
 Vibration     6          0.615              1.913              2.803
 Vibration     7          0.622              1.889              2.524
 Vibration     8          0.631              1.861              2.284
 Vibration     9          0.634              1.852              2.215
 Vibration    10          0.643              1.824              2.036
 Vibration    11          0.666              1.752              1.686
 Vibration    12          0.676              1.724              1.579
 Vibration    13          0.681              1.708              1.526
 Vibration    14          0.688              1.687              1.456
 Vibration    15          0.705              1.637              1.315
 Vibration    16          0.711              1.621              1.273
 Vibration    17          0.722              1.589              1.197
 Vibration    18          0.738              1.546              1.105
 Vibration    19          0.742              1.534              1.079
 Vibration    20          0.750              1.513              1.039
 Vibration    21          0.774              1.450              0.928
 Vibration    22          0.782              1.428              0.894
 Vibration    23          0.789              1.411              0.868
 Vibration    24          0.798              1.387              0.833
 Vibration    25          0.832              1.305              0.723
 Vibration    26          0.842              1.282              0.695
 Vibration    27          0.876              1.203              0.607
 Vibration    28          0.885              1.183              0.587
 Vibration    29          0.908              1.133              0.538
 Vibration    30          0.944              1.060              0.473
 Vibration    31          0.956              1.035              0.453
 Vibration    32          0.962              1.024              0.443

 Normal termination of Gaussian 09 at Thu Oct 22 15:17:58 2015.
