 Gaussian 09, Revision B.01,
 Gaussian 09:  EM64L-G09RevB.01 12-Aug-2010

 ------------------------------------------------
 # freq=raman b3lyp/6-31+g(d,p) geom=connectivity
 ------------------------------------------------

 ------------
 300 7000.com
 ------------
 Symbolic Z-matrix:
 Charge =  0 Multiplicity = 1

                         Standard orientation:
 ---------------------------------------------------------------------
 Center     Atomic      Atomic             Coordinates (Angstroms)
 Number     Number       Type             X           Y           Z
 ---------------------------------------------------------------------
      1          8           0       -5.099862   -0.333585    0.385889
      2          6           0       -3.828835   -0.144516   -0.251489
      3          6           0       -3.228311    1.189361    0.161852
      4          8           0       -4.089583    2.286674   -0.177519
      5          1           0       -4.930739    1.941521    0.237927
      6          6           0       -1.842607    1.507347   -0.374889
      7          8           0       -1.301211    2.808686   -0.106632
      8          1           0       -0.322422    2.858315   -0.306217
      9          6           0       -3.172822   -2.520364   -0.035348
     10          8           0       -4.218719   -3.238662    0.634194
     11          1           0       -4.129329   -4.213534    0.430262
     12          6           0       -2.762569   -1.089934    0.275311
     13          8           0       -1.422937   -0.890272   -0.198637
     14          6           0       -0.909568    0.412545    0.118027
     15          8           0        0.346911    0.503391   -0.569045
     16          6           0        1.591664    0.185586    0.070568
     17          6           0        2.073675   -1.122273   -0.536002
     18          8           0        1.081238   -2.149249   -0.399487
     19          1           0        0.159472   -1.822777   -0.609191
     20          6           0        3.406775   -1.544920    0.058144
     21          8           0        4.011878   -2.694570   -0.552824
     22          1           0        4.890687   -2.747109   -0.078714
     23          6           0        2.211313    2.607251    0.462368
     24          8           0        1.151576    3.307729   -0.206765
     25          1           0        1.273471    4.212551    0.201150
     26          6           0        2.630110    1.276805   -0.141399
     27          8           0        3.792736    0.799840    0.551498
     28          6           0        4.370292   -0.373523   -0.040898
     29          8           0        5.512332   -0.618468    0.793117
     30          1           0        6.280818   -0.785294    0.242482
     31          1           0        4.662237   -0.192703   -1.054295
     32          1           0        3.253132   -1.763141    1.094326
     33          1           0        2.224795   -0.956635   -1.582246
     34          1           0        1.427468    0.051085    1.119305
     35          1           0        2.841051    1.391263   -1.184138
     36          1           0        3.069353    3.246227    0.481775
     37          1           0        1.904670    2.430199    1.472083
     38          1           0       -5.779778   -0.444461   -0.282706
     39          1           0       -2.288725   -3.112187    0.078746
     40          1           0       -3.423265   -2.536117   -1.075507
     41          1           0       -2.742372   -0.984824    1.339945
     42          1           0       -3.913662   -0.214217   -1.315841
     43          1           0       -3.149909    1.173007    1.228850
     44          1           0       -1.897053    1.413561   -1.439379
     45          1           0       -0.759498    0.502971    1.173585
 ---------------------------------------------------------------------

 SCF Done:  E(RB3LYP) =  -1297.93368808     A.U. after   14 cycles

 The electronic state is 1-A.
 Alpha  occ. eigenvalues --  -19.20878 -19.20013 -19.19560 -19.19163 -19.18958
 Alpha  occ. eigenvalues --  -19.18779 -19.17389 -19.16805 -19.15437 -19.14569
 Alpha  occ. eigenvalues --  -19.13124 -10.31645 -10.31158 -10.27068 -10.26518
 Alpha  occ. eigenvalues --  -10.26243 -10.26158 -10.26016 -10.25121 -10.24853
 Alpha  occ. eigenvalues --  -10.24328 -10.24159 -10.24147  -1.10246  -1.09716
 Alpha  occ. eigenvalues --   -1.07293  -1.06071  -1.04590  -1.04077  -1.03092
 Alpha  occ. eigenvalues --   -1.02408  -1.01946  -1.00420  -0.99203  -0.82627
 Alpha  occ. eigenvalues --   -0.81186  -0.79969  -0.78474  -0.72330  -0.70107
 Alpha  occ. eigenvalues --   -0.67648  -0.64966  -0.63418  -0.62385  -0.61750
 Alpha  occ. eigenvalues --   -0.60600  -0.57471  -0.56462  -0.55393  -0.54833
 Alpha  occ. eigenvalues --   -0.54216  -0.53828  -0.53236  -0.51930  -0.51551
 Alpha  occ. eigenvalues --   -0.50703  -0.50431  -0.50012  -0.49006  -0.46951
 Alpha  occ. eigenvalues --   -0.46447  -0.45587  -0.44560  -0.43948  -0.43610
 Alpha  occ. eigenvalues --   -0.43060  -0.41810  -0.41175  -0.40666  -0.40036
 Alpha  occ. eigenvalues --   -0.39529  -0.38581  -0.38432  -0.37001  -0.35922
 Alpha  occ. eigenvalues --   -0.35457  -0.34961  -0.34383  -0.33836  -0.33533
 Alpha  occ. eigenvalues --   -0.33032  -0.32006  -0.31384  -0.30422  -0.30225
 Alpha  occ. eigenvalues --   -0.29630  -0.28395  -0.28318  -0.26867  -0.26503
 Alpha  occ. eigenvalues --   -0.26215
 Alpha virt. eigenvalues --   -0.02414  -0.02282  -0.02025  -0.00258   0.00103
 Alpha virt. eigenvalues --    0.00736   0.01701   0.01979   0.03146   0.03630
 Alpha virt. eigenvalues --    0.03796   0.04332   0.04700   0.05148   0.05518

 Mulliken atomic charges:
              1
     1  O   -0.532764
     2  C   -0.120505
     3  C    0.039371
     4  O   -0.482300
     5  H    0.349722
     6  C   -0.119272
     7  O   -0.579517
     8  H    0.488677
     9  C   -0.088069
    10  O   -0.526461
    11  H    0.354873
    12  C    0.183132
    13  O   -0.421293
    14  C    0.247888
    15  O   -0.365638
    16  C   -0.043845
    17  C    0.039342
    18  O   -0.537045
    19  H    0.422200
    20  C    0.116141
    21  O   -0.476340
    22  H    0.336876
    23  C   -0.011179
    24  O   -0.556632
    25  H    0.372804
    26  C   -0.063602
    27  O   -0.309394
    28  C    0.180556
    29  O   -0.555832
    30  H    0.364148
    31  H    0.135281
    32  H    0.153183
    33  H    0.136092
    34  H    0.132605
    35  H    0.143586
    36  H    0.145427
    37  H    0.150489
    38  H    0.371680
    39  H    0.135821
    40  H    0.121154
    41  H    0.141876
    42  H    0.140718
    43  H    0.129672
    44  H    0.136369
    45  H    0.120006
 Sum of Mulliken atomic charges =   0.00000

 Dipole moment (field-independent basis, Debye):
    X=              2.8036    Y=              0.2763    Z=             -0.9194  Tot=              2.9634
 Quadrupole moment (field-independent basis, Debye-Ang):
   XX=           -115.1014   YY=           -140.9377   ZZ=           -141.0530
   XY=             19.4854   XZ=              2.5615   YZ=              4.6048

  Exact polarizability: 229.875   0.114 191.243   1.089   1.318 141.997
 Approx polarizability: 267.260   1.308 247.280   1.050   0.856 231.643

 ******    7 imaginary frequencies (negative Signs) ******

                     1                      2                      3
                     A                      A                      A
 Frequencies --  -336.3440              -286.6291              -268.5565
 Red. masses --     1.7076                 1.2067                 1.1748
 Frc consts  --     0.1138                 0.0584                 0.0499
 IR Inten    --     8.7878               122.5470               113.4650
 Raman Activ --     0.0621                 1.0729                 0.7540

                     4                      5                      6
                     A                      A                      A
 Frequencies --  -253.9609               -88.7587               -53.9331
 Red. masses --     1.8332                 6.7710                 6.5374
 Frc consts  --     0.0697                 0.0314                 0.0112
 IR Inten    --     1.8959                 2.0077                 0.9370
 Raman Activ --     0.0265                 0.0710                 0.0385

                     7                      8                      9
                     A                      A                      A
 Frequencies --   -47.1917                47.6299                70.9149
 Red. masses --     6.1481                 6.5630                 6.8091
 Frc consts  --     0.0081                 0.0088                 0.0202
 IR Inten    --     0.4666                 0.4735                 0.7868
 Raman Activ --     0.0317                 0.0527                 0.1076

                    10                     11                     12
                     A                      A                      A
 Frequencies --    78.9355               104.1778               124.5444
 Red. masses --     6.8776                 5.5878                 5.4265
 Frc consts  --     0.0252                 0.0357                 0.0496
 IR Inten    --     0.3993                 4.3428                 1.9106
 Raman Activ --     0.2014                 0.0775                 0.0685

                    13                     14                     15
                     A                      A                      A
 Frequencies --   154.5911               175.9781               184.9926
 Red. masses --     6.3360                 5.9233                 7.7903
 Frc consts  --     0.0892                 0.1081                 0.1571
 IR Inten    --     5.9193                 1.3762                 0.7840
 Raman Activ --     0.1257                 0.3406                 1.2494

                    16                     17                     18
                     A                      A                      A
 Frequencies --   220.9505               237.5884               261.6669
 Red. masses --     7.1096                 5.9615                 4.1200
 Frc consts  --     0.2045                 0.1983                 0.1662
 IR Inten    --     1.2309                 3.0451                 8.0115
 Raman Activ --     3.4409                 0.2985                 0.1888

                    19                     20                     21
                     A                      A                      A
 Frequencies --   269.5884               282.9394               303.3731
 Red. masses --     4.7286                 5.0056                 5.6047
 Frc consts  --     0.2025                 0.2361                 0.3039
 IR Inten    --    12.1833                 2.4844                 1.9133
 Raman Activ --     0.3793                 0.1120                 1.5323

                    22                     23                     24
                     A                      A                      A
 Frequencies --   311.7643               313.6822               318.9720
 Red. masses --     4.5601                 6.7914                 4.9972
 Frc consts  --     0.2611                 0.3937                 0.2996
 IR Inten    --     2.5491                 3.5189                 9.5482
 Raman Activ --     1.5542                 4.3337                 1.2403

                    25                     26                     27
                     A                      A                      A
 Frequencies --   356.1112               366.5555               373.5148
 Red. masses --     5.9250                 5.8155                 6.1368
 Frc consts  --     0.4427                 0.4604                 0.5044
 IR Inten    --    11.8392                 0.9966                 3.1391
 Raman Activ --     0.8106                 0.6145                 1.0941

                    28                     29                     30
                     A                      A                      A
 Frequencies --   404.3695               431.7194               433.6335
 Red. masses --     4.0007                 5.7001                 4.7173
 Frc consts  --     0.3854                 0.6259                 0.5226
 IR Inten    --    16.0752                 2.1648                 0.5595
 Raman Activ --     2.8401                 6.9658                 3.5306

                    31                     32                     33
                     A                      A                      A
 Frequencies --   436.8925               485.5545               489.1623
 Red. masses --     5.5228                 3.8883                 5.4590
 Frc consts  --     0.6211                 0.5401                 0.7696
 IR Inten    --     2.1022                 6.7857                 5.1813
 Raman Activ --     0.4550                 3.2664                 0.4020

                    34                     35                     36
                     A                      A                      A
 Frequencies --   510.4014               521.9181               571.3616
 Red. masses --     3.3874                 3.3779                 4.3233
 Frc consts  --     0.5199                 0.5421                 0.8316
 IR Inten    --    21.6859                 8.6002                18.5796
 Raman Activ --     0.7219                 6.0459                 2.0972

                    37                     38                     39
                     A                      A                      A
 Frequencies --   582.6852               588.8476               610.7562
 Red. masses --     2.9305                 5.0298                 5.4139
 Frc consts  --     0.5862                 1.0276                 1.1899
 IR Inten    --    45.0336                20.5664                16.6678
 Raman Activ --     0.4050                 0.6999                 0.8430

                    40                     41                     42
                     A                      A                      A
 Frequencies --   620.4080               663.8030               683.7018
 Red. masses --     3.4183                 1.0658                 4.9964
 Frc consts  --     0.7752                 0.2767                 1.3761
 IR Inten    --    14.6779               125.8766                 7.7842
 Raman Activ --     1.4322                 2.1100                 0.7566

                    43                     44                     45
                     A                      A                      A
 Frequencies --   732.8461               738.5353               757.2552
 Red. masses --     1.1142                 1.0697                 1.0906
 Frc consts  --     0.3526                 0.3438                 0.3685
 IR Inten    --    66.8121               170.5090                96.1549
 Raman Activ --     1.8452                 2.8628                 1.6276

                    46                     47                     48
                     A                      A                      A
 Frequencies --   781.5510               785.3554               852.6087
 Red. masses --     1.0991                 1.1038                 1.7999
 Frc consts  --     0.3955                 0.4011                 0.7709
 IR Inten    --   164.9788                54.5442                 2.9749
 Raman Activ --     1.8415                 1.6421                 0.6539

                    49                     50                     51
                     A                      A                      A
 Frequencies --   867.4988               935.4358               964.5715
 Red. masses --     1.6716                 5.3318                 4.4679
 Frc consts  --     0.7412                 2.7489                 2.4492
 IR Inten    --    10.7077               131.0056                62.7454
 Raman Activ --     0.7765                 2.8120                 0.8709

                    52                     53                     54
                     A                      A                      A
 Frequencies --   982.2355               991.2316               994.3080
 Red. masses --     4.9497                 5.3611                 4.7915
 Frc consts  --     2.8136                 3.1035                 2.7910
 IR Inten    --    33.5015               137.7792                30.1040
 Raman Activ --     3.2534                 0.9415                 1.8066

                    55                     56                     57
                     A                      A                      A
 Frequencies --  1017.3803              1024.1999              1036.0498
 Red. masses --     5.7014                 5.7641                 6.5402
 Frc consts  --     3.4769                 3.5625                 4.1362
 IR Inten    --   418.4098                 6.8387               108.8706
 Raman Activ --     2.4862                 1.3709                 2.2736

                    58                     59                     60
                     A                      A                      A
 Frequencies --  1038.0654              1066.0929              1072.1730
 Red. masses --     3.6712                 4.2071                 3.5683
 Frc consts  --     2.3308                 2.8172                 2.4168
 IR Inten    --   208.0733               306.7558                 1.6394
 Raman Activ --     1.9949                 7.6805                 5.2388

                    61                     62                     63
                     A                      A                      A
 Frequencies --  1078.5557              1080.5382              1091.2813
 Red. masses --     4.0972                 4.0068                 3.5068
 Frc consts  --     2.8082                 2.7563                 2.4605
 IR Inten    --    97.5692                37.6099                65.5693
 Raman Activ --     2.4081                 2.7483                10.9948

                    64                     65                     66
                     A                      A                      A
 Frequencies --  1103.9599              1108.5261              1121.5756
 Red. masses --     2.3801                 2.4423                 2.6747
 Frc consts  --     1.7090                 1.7682                 1.9824
 IR Inten    --    11.2638                79.2635                18.8349
 Raman Activ --     4.4457                 1.8812                14.1894

                    67                     68                     69
                     A                      A                      A
 Frequencies --  1124.9238              1134.0015              1135.1857
 Red. masses --     2.5159                 2.6974                 2.4181
 Frc consts  --     1.8758                 2.0437                 1.8359
 IR Inten    --    31.4566                37.3905                83.5295
 Raman Activ --     7.9729                 1.6036                 5.0843

                    70                     71                     72
                     A                      A                      A
 Frequencies --  1148.1512              1149.8271              1152.8480
 Red. masses --     2.4239                 2.0392                 2.3536
 Frc consts  --     1.8826                 1.5885                 1.8430
 IR Inten    --    28.4804                16.2351                11.6794
 Raman Activ --     2.3376                 6.3176                 5.9766

                    73                     74                     75
                     A                      A                      A
 Frequencies --  1156.3289              1164.1585              1174.9132
 Red. masses --     1.9369                 2.3782                 1.8487
 Frc consts  --     1.5259                 1.8990                 1.5036
 IR Inten    --     4.9726                34.9589                12.8373
 Raman Activ --     2.2398                 4.0888                 2.5109

                    76                     77                     78
                     A                      A                      A
 Frequencies --  1195.9461              1208.8757              1228.5551
 Red. masses --     1.4677                 1.6032                 1.3905
 Frc consts  --     1.2368                 1.3804                 1.2365
 IR Inten    --    17.4548                19.7785                 1.4604
 Raman Activ --     4.9572                 0.6575                 1.0105

                    79                     80                     81
                     A                      A                      A
 Frequencies --  1232.4843              1246.3209              1259.7079
 Red. masses --     1.3123                 1.2734                 1.2157
 Frc consts  --     1.1745                 1.1654                 1.1366
 IR Inten    --    11.0223                13.7583                15.3304
 Raman Activ --     0.9547                 1.4239                 2.3447

                    82                     83                     84
                     A                      A                      A
 Frequencies --  1279.0945              1281.4046              1283.2268
 Red. masses --     1.2616                 1.3328                 1.1828
 Frc consts  --     1.2161                 1.2894                 1.1476
 IR Inten    --     4.2039                22.8813                 3.8410
 Raman Activ --     2.3644                 3.2818                 3.3300

                    85                     86                     87
                     A                      A                      A
 Frequencies --  1292.5457              1301.2782              1302.8829
 Red. masses --     1.2767                 1.2873                 1.2985
 Frc consts  --     1.2567                 1.2843                 1.2987
 IR Inten    --     1.2270                43.8332                15.1214
 Raman Activ --     1.0838                 1.9481                 6.5668

                    88                     89                     90
                     A                      A                      A
 Frequencies --  1326.4176              1331.6549              1336.5758
 Red. masses --     1.2859                 1.3302                 1.1700
 Frc consts  --     1.3330                 1.3898                 1.2315
 IR Inten    --     8.2571                14.9587                 6.2600
 Raman Activ --     5.5772                 4.8322                16.2545

                    91                     92                     93
                     A                      A                      A
 Frequencies --  1341.2890              1348.0456              1354.4185
 Red. masses --     1.2000                 1.1978                 1.3244
 Frc consts  --     1.2720                 1.2825                 1.4314
 IR Inten    --    64.0575                35.2822                 1.0748
 Raman Activ --     6.0405                 1.2967                 5.1767

                    94                     95                     96
                     A                      A                      A
 Frequencies --  1358.7175              1359.3540              1365.8179
 Red. masses --     1.3691                 1.3085                 1.5377
 Frc consts  --     1.4892                 1.4246                 1.6901
 IR Inten    --     6.3101                10.5660                14.1291
 Raman Activ --     8.8500                 3.3727                 8.9099

                    97                     98                     99
                     A                      A                      A
 Frequencies --  1368.1306              1378.3527              1403.4870
 Red. masses --     1.2506                 1.7229                 1.6287
 Frc consts  --     1.3792                 1.9285                 1.8903
 IR Inten    --    61.0405                 4.2357                 3.8520
 Raman Activ --     1.6162                 5.5370                 4.3402

                   100                    101                    102
                     A                      A                      A
 Frequencies --  1432.3621              1453.0323              1463.2242
 Red. masses --     1.3484                 1.2870                 1.3335
 Frc consts  --     1.6300                 1.6010                 1.6821
 IR Inten    --    39.7893                53.8089                 0.7888
 Raman Activ --     2.1039                 1.2237                 2.3676

                   103                    104                    105
                     A                      A                      A
 Frequencies --  1467.2303              1481.5074              1484.2953
 Red. masses --     1.4872                 1.0750                 1.1037
 Frc consts  --     1.8864                 1.3902                 1.4326
 IR Inten    --    43.1643                10.5156                 2.8112
 Raman Activ --     1.4754                 6.0445                 3.8595

                   106                    107                    108
                     A                      A                      A
 Frequencies --  1497.2030              1510.0074              3235.5487
 Red. masses --     1.3868                 1.3072                 1.0696
 Frc consts  --     1.8316                 1.7561                 6.5971
 IR Inten    --    35.1263                43.0054              1268.7672
 Raman Activ --     1.4057                 0.5752               163.3017

                   109                    110                    111
                     A                      A                      A
 Frequencies --  3258.7051              3271.9168              3275.0348
 Red. masses --     1.0599                 1.0802                 1.0605
 Frc consts  --     6.6313                 6.8130                 6.7019
 IR Inten    --    35.8795                30.8850                38.9977
 Raman Activ --    80.5410                72.5722               128.1325

                   112                    113                    114
                     A                      A                      A
 Frequencies --  3282.4886              3287.8384              3289.4195
 Red. masses --     1.0824                 1.0829                 1.0835
 Frc consts  --     6.8711                 6.8968                 6.9073
 IR Inten    --    22.3504                 8.5125                20.3425
 Raman Activ --    64.4275               110.6707                36.7843

                   115                    116                    117
                     A                      A                      A
 Frequencies --  3296.4671              3299.9704              3304.4335
 Red. masses --     1.0845                 1.0847                 1.0867
 Frc consts  --     6.9438                 6.9598                 6.9914
 IR Inten    --     1.7536                 6.4695                21.8097
 Raman Activ --     4.7294               175.5904                55.9479

                   118                    119                    120
                     A                      A                      A
 Frequencies --  3306.5943              3307.0838              3315.3302
 Red. masses --     1.0902                 1.0966                 1.0876
 Frc consts  --     7.0228                 7.0664                 7.0431
 IR Inten    --    14.8271                14.0548                56.6974
 Raman Activ --    32.6224                22.3607                 9.7175

                   121                    122                    123
                     A                      A                      A
 Frequencies --  3316.6571              3331.6785              3351.9909
 Red. masses --     1.0901                 1.1069                 1.0677
 Frc consts  --     7.0650                 7.2394                 7.0679
 IR Inten    --   111.8249                51.6145               514.5416
 Raman Activ --    16.5364                44.5542               164.6210

                   124                    125                    126
                     A                      A                      A
 Frequencies --  3385.9456              3386.6401              3387.9367
 Red. masses --     1.0649                 1.0644                 1.0677
 Frc consts  --     7.1931                 7.1924                 7.2208
 IR Inten    --    28.3310                21.5628                54.1768
 Raman Activ --   105.9430                75.6762               173.1186

                   127                    128                    129
                     A                      A                      A
 Frequencies --  3401.6000              3921.5055              3922.6027
 Red. masses --     1.0656                 1.0675                 1.0677
 Frc consts  --     7.2647                 9.6724                 9.6797
 IR Inten    --    67.4326                77.3026                81.0478
 Raman Activ --   116.6228               107.1130               110.6508

 - Thermochemistry -
 -------------------
 Temperature   298.150 Kelvin.  Pressure   1.00000 Atm.
 Atom     1 has atomic number  8 and mass  15.99491

 Molecular mass:   342.11621 amu.
 Principal axes and moments of inertia in atomic units:
                           1         2         3
     Eigenvalues --  4405.23499********************
           X            0.99997   0.00805   0.00022
           Y           -0.00805   0.99996   0.00422
           Z           -0.00018  -0.00422   0.99999
 This molecule is an asymmetric top.
 Rotational symmetry number  1.
 Warning -- assumption of classical behavior for rotation
           may cause significant error
 Rotational temperatures (Kelvin)      0.01966     0.00688     0.00525
 Rotational constants (GHZ):           0.40968     0.14338     0.10939
    7 imaginary frequencies ignored.
 Zero-point vibrational energy     977747.9 (Joules/Mol)
                                  233.68736 (Kcal/Mol)
 Warning -- explicit consideration of  33 degrees of freedom as
           vibrations may cause significant error
 Vibrational temperatures:     68.53   102.03   113.57   149.89   179.19
          (Kelvin)            222.42   253.19   266.16   317.90   341.84
                              376.48   387.88   407.09   436.49   448.56
                              451.32   458.93   512.36   527.39   537.40
                              581.80   621.15   623.90   628.59   698.60
                              703.79   734.35   750.92   822.06   838.35
                              847.22   878.74   892.63   955.06   983.69
                             1054.40  1062.59  1089.52  1124.48  1129.95
                             1226.71  1248.14  1345.88  1387.80  1413.22
                             1426.16  1430.59  1463.78  1473.59  1490.64
                             1493.54  1533.87  1542.62  1551.80  1554.65
                             1570.11  1588.35  1594.92  1613.70  1618.51
                             1631.57  1633.28  1651.93  1654.34  1658.69
                             1663.70  1674.96  1690.44  1720.70  1739.30
                             1767.61  1773.27  1793.18  1812.44  1840.33
                             1843.65  1846.27  1859.68  1872.25  1874.56
                             1908.42  1915.95  1923.03  1929.81  1939.53
                             1948.70  1954.89  1955.80  1965.10  1968.43
                             1983.14  2019.30  2060.85  2090.59  2105.25
                             2111.01  2131.56  2135.57  2154.14  2172.56
                             4655.23  4688.54  4707.55  4712.04  4722.76
                             4730.46  4732.74  4742.87  4747.92  4754.34
                             4757.45  4758.15  4770.01  4771.92  4793.54
                             4822.76  4871.61  4872.61  4874.48  4894.14
                             5642.16  5643.74

 Zero-point correction=                           0.372405 (Hartree/Particle)
 Thermal correction to Energy=                    0.390656
 Thermal correction to Enthalpy=                  0.391600
 Thermal correction to Gibbs Free Energy=         0.327151
 Sum of electronic and zero-point Energies=          -1297.561284
 Sum of electronic and thermal Energies=             -1297.543032
 Sum of electronic and thermal Enthalpies=           -1297.542088
 Sum of electronic and thermal Free Energies=        -1297.606537

                     E (Thermal)             CV                S
                      KCal/Mol        Cal/Mol-Kelvin    Cal/Mol-Kelvin
 Total                  245.140             75.790            135.644
 Electronic               0.000              0.000              0.000
 Translational            0.889              2.981             43.384
 Rotational               0.889              2.981             35.169
 Vibrational            243.363             69.828             57.091
 Vibration     1          0.595              1.978              4.913
 Vibration     2          0.598              1.968              4.128
 Vibration     3          0.600              1.963              3.917
 Vibration     4          0.605              1.946              3.375
 Vibration     5          0.610              1.928              3.029
 Vibration     6          0.620              1.898              2.615
 Vibration     7          0.628              1.872              2.371
 Vibration     8          0.631              1.860              2.277
 Vibration     9          0.648              1.809              1.951
 Vibration    10          0.656              1.783              1.821
 Vibration    11          0.669              1.743              1.651
 Vibration    12          0.674              1.729              1.599
 Vibration    13          0.682              1.705              1.516
 Vibration    14          0.695              1.667              1.398
 Vibration    15          0.700              1.651              1.353
 Vibration    16          0.702              1.648              1.343
 Vibration    17          0.705              1.637              1.315
 Vibration    18          0.732              1.563              1.139
 Vibration    19          0.739              1.541              1.094
 Vibration    20          0.745              1.526              1.065
 Vibration    21          0.770              1.461              0.947
 Vibration    22          0.793              1.401              0.853
 Vibration    23          0.794              1.397              0.847
 Vibration    24          0.797              1.390              0.836
 Vibration    25          0.842              1.282              0.695
 Vibration    26          0.845              1.274              0.686
 Vibration    27          0.866              1.227              0.633
 Vibration    28          0.877              1.201              0.606
 Vibration    29          0.928              1.093              0.502
 Vibration    30          0.940              1.069              0.480
 Vibration    31          0.946              1.056              0.469
 Vibration    32          0.970              1.009              0.432
 Vibration    33          0.980              0.989              0.416

 Normal termination of Gaussian 09 at Tue Mar  1 03:49:31 2016.
