 Gaussian 09, Revision B.01,
 Gaussian 09:  EM64L-G09RevB.01 12-Aug-2010

 -------------------------------------------------
 # freq=raman b3lyp/6-31+g(2d,p) geom=connectivity
 -------------------------------------------------

 -----------------
 300 5043/5043.com
 -----------------
 Symbolic Z-matrix:
 Charge =  0 Multiplicity = 1

                         Standard orientation:
 ---------------------------------------------------------------------
 Center     Atomic      Atomic             Coordinates (Angstroms)
 Number     Number       Type             X           Y           Z
 ---------------------------------------------------------------------
      1          8           0        4.956690   -0.429404   -0.387080
      2          6           0        3.673234   -0.069517    0.144497
      3          6           0        3.228453    1.268209   -0.424454
      4          8           0        4.119033    2.345547   -0.099037
      5          1           0        5.051732    1.986781   -0.078152
      6          6           0        1.815208    1.607191    0.020040
      7          8           0        1.293471    2.781428   -0.616780
      8          1           0        0.422730    3.009665   -0.181974
      9          6           0        3.055801   -2.526352    0.431653
     10          8           0        4.029817   -3.223376   -0.359229
     11          1           0        3.815266   -4.198935   -0.319679
     12          6           0        2.623022   -1.150584   -0.048717
     13          8           0        1.449760   -0.744941    0.669860
     14          6           0        0.928974    0.373836   -0.063340
     15          8           0       -0.291607    0.607249    0.653294
     16          6           0       -1.538538    0.291645    0.016616
     17          6           0       -1.851785   -1.158590    0.348904
     18          8           0       -0.886869   -2.169433    0.024738
     19          1           0       -0.014484   -1.693180    0.135991
     20          6           0       -3.180309   -1.559866   -0.270689
     21          8           0       -3.689170   -2.866609    0.033489
     22          1           0       -4.564046   -3.033898   -0.421082
     23          6           0       -2.536366    2.688887    0.102317
     24          8           0       -1.254777    3.300378    0.313489
     25          1           0       -1.316626    4.287327    0.165870
     26          6           0       -2.663025    1.215356    0.454708
     27          8           0       -3.918139    0.847780   -0.135399
     28          6           0       -4.251553   -0.533937    0.063718
     29          8           0       -5.361156   -0.708631   -0.828799
     30          1           0        5.550020   -0.653754    0.333493
     31          1           0        2.182431   -3.141552    0.492088
     32          1           0        3.452999   -2.418121    1.419286
     33          1           0        2.383225   -1.212090   -1.089685
     34          1           0        3.796075    0.062536    1.199188
     35          1           0        3.215931    1.174071   -1.490231
     36          1           0        1.884027    1.847673    1.060392
     37          1           0        0.730630    0.107752   -1.080571
     38          1           0       -3.257139    3.228236    0.680666
     39          1           0       -2.758585    1.136002    1.517474
     40          1           0       -1.414997    0.381749   -1.042402
     41          1           0       -1.984184   -1.199907    1.409877
     42          1           0       -6.159893   -0.864712   -0.319625
     43          1           0       -4.579850   -0.678659    1.071774
     44          1           0       -3.042038   -1.526988   -1.331208
     45          1           0       -2.788349    2.802426   -0.931372
 ---------------------------------------------------------------------

 SCF Done:  E(RB3LYP) =  -1297.99482532     A.U. after   13 cycles

 The electronic state is 1-A.
 Alpha  occ. eigenvalues --  -19.19419 -19.18611 -19.18046 -19.17675 -19.17482
 Alpha  occ. eigenvalues --  -19.16919 -19.16425 -19.15990 -19.15186 -19.14670
 Alpha  occ. eigenvalues --  -19.13951 -10.30762 -10.30242 -10.26472 -10.26098
 Alpha  occ. eigenvalues --  -10.25640 -10.25454 -10.25185 -10.24584 -10.24456
 Alpha  occ. eigenvalues --  -10.24385 -10.24236 -10.24182  -1.10804  -1.09174
 Alpha  occ. eigenvalues --   -1.05447  -1.05133  -1.04144  -1.03380  -1.02845
 Alpha  occ. eigenvalues --   -1.02444  -1.01986  -1.01018  -1.00229  -0.82343
 Alpha  occ. eigenvalues --   -0.80560  -0.79516  -0.78323  -0.72124  -0.70030
 Alpha  occ. eigenvalues --   -0.67337  -0.65287  -0.63568  -0.62619  -0.61498
 Alpha  occ. eigenvalues --   -0.60463  -0.56234  -0.55861  -0.55263  -0.54423
 Alpha  occ. eigenvalues --   -0.54277  -0.53611  -0.52845  -0.51900  -0.51648
 Alpha  occ. eigenvalues --   -0.50622  -0.49906  -0.49603  -0.49211  -0.46615
 Alpha  occ. eigenvalues --   -0.45704  -0.45335  -0.44497  -0.43713  -0.43063
 Alpha  occ. eigenvalues --   -0.42517  -0.41514  -0.41238  -0.40407  -0.39841
 Alpha  occ. eigenvalues --   -0.38987  -0.38041  -0.37529  -0.36687  -0.36021
 Alpha  occ. eigenvalues --   -0.35437  -0.34609  -0.34348  -0.34334  -0.34090
 Alpha  occ. eigenvalues --   -0.32830  -0.31795  -0.30803  -0.30423  -0.30143
 Alpha  occ. eigenvalues --   -0.29203  -0.28878  -0.28221  -0.27797  -0.27367
 Alpha  occ. eigenvalues --   -0.26553
 Alpha virt. eigenvalues --   -0.02066  -0.01919  -0.01648  -0.00344   0.00299
 Alpha virt. eigenvalues --    0.01262   0.01910   0.02336   0.03081   0.03260
 Alpha virt. eigenvalues --    0.03749   0.04243   0.04726   0.05238   0.05656

 Mulliken atomic charges:
              1
     1  O   -0.535194
     2  C   -0.159574
     3  C    0.359651
     4  O   -0.552604
     5  H    0.338042
     6  C   -0.187584
     7  O   -0.581381
     8  H    0.407500
     9  C   -0.260651
    10  O   -0.509250
    11  H    0.340011
    12  C    0.211284
    13  O   -0.239044
    14  C    0.071759
    15  O   -0.247823
    16  C    0.248547
    17  C    0.234419
    18  O   -0.566169
    19  H    0.401896
    20  C    0.042190
    21  O   -0.551991
    22  H    0.342384
    23  C   -0.258523
    24  O   -0.561677
    25  H    0.360577
    26  C   -0.038852
    27  O   -0.222124
    28  C    0.140316
    29  O   -0.534148
    30  H    0.341092
    31  H    0.150445
    32  H    0.138965
    33  H    0.119434
    34  H    0.121890
    35  H    0.121902
    36  H    0.129158
    37  H    0.139534
    38  H    0.150301
    39  H    0.119683
    40  H    0.116483
    41  H    0.114132
    42  H    0.333163
    43  H    0.126476
    44  H    0.126667
    45  H    0.158687
 Sum of Mulliken atomic charges =   0.00000

 Dipole moment (field-independent basis, Debye):
    X=             -2.5014    Y=              0.0114    Z=              2.4277  Tot=              3.4858
 Quadrupole moment (field-independent basis, Debye-Ang):
   XX=           -117.8682   YY=           -135.3614   ZZ=           -140.9727
   XY=            -14.8256   XZ=              4.3862   YZ=              1.8925

  Exact polarizability: 231.344   1.550 199.335   1.089   0.336 143.920
 Approx polarizability: 272.341   1.150 260.467   1.605   0.701 239.901

 ******    6 imaginary frequencies (negative Signs) ******

                     1                      2                      3
                     A                      A                      A
 Frequencies --  -265.4727              -255.3744              -186.4984
 Red. masses --     1.6956                 1.8789                 1.2248
 Frc consts  --     0.0704                 0.0722                 0.0251
 IR Inten    --    13.4420                 2.8622                84.6756
 Raman Activ --     0.2173                 0.0913                 0.8929

                     4                      5                      6
                     A                      A                      A
 Frequencies --  -168.8733               -60.1867               -48.2102
 Red. masses --     1.2058                 6.0527                 6.5732
 Frc consts  --     0.0203                 0.0129                 0.0090
 IR Inten    --   104.4340                 0.5883                 1.3881
 Raman Activ --     0.9134                 0.0185                 0.0576

                     7                      8                      9
                     A                      A                      A
 Frequencies --    19.0401                49.9733                72.8713
 Red. masses --     6.6916                 6.3920                 6.1234
 Frc consts  --     0.0014                 0.0094                 0.0192
 IR Inten    --     1.3980                 1.0150                 4.9756
 Raman Activ --     0.0264                 0.0644                 0.2050

                    10                     11                     12
                     A                      A                      A
 Frequencies --    84.5102                96.3884               110.2342
 Red. masses --     6.2133                 6.1460                 6.9139
 Frc consts  --     0.0261                 0.0336                 0.0495
 IR Inten    --     1.5189                 3.2533                 0.9103
 Raman Activ --     0.2155                 0.1317                 0.0735

                    13                     14                     15
                     A                      A                      A
 Frequencies --   160.3726               176.7179               188.2841
 Red. masses --     6.2169                 6.2898                 6.3020
 Frc consts  --     0.0942                 0.1157                 0.1316
 IR Inten    --     0.8475                 3.7790                 0.8731
 Raman Activ --     0.5741                 0.2922                 0.4689

                    16                     17                     18
                     A                      A                      A
 Frequencies --   199.7424               238.7960               268.1529
 Red. masses --     6.7019                 6.0124                 4.4287
 Frc consts  --     0.1575                 0.2020                 0.1876
 IR Inten    --     0.3846                 0.2909                 8.9724
 Raman Activ --     1.7540                 0.3605                 0.3249

                    19                     20                     21
                     A                      A                      A
 Frequencies --   286.9477               294.3785               297.9618
 Red. masses --     4.1773                 5.0610                 5.3785
 Frc consts  --     0.2027                 0.2584                 0.2813
 IR Inten    --     1.3896                 4.3170                 2.6037
 Raman Activ --     0.0387                 0.3343                 0.5728

                    22                     23                     24
                     A                      A                      A
 Frequencies --   307.8943               317.4638               324.8223
 Red. masses --     6.1759                 4.9593                 6.0511
 Frc consts  --     0.3449                 0.2945                 0.3762
 IR Inten    --    11.1091                 2.3687                 0.9338
 Raman Activ --     0.4195                 3.2023                 1.5163

                    25                     26                     27
                     A                      A                      A
 Frequencies --   337.0315               366.5298               373.8763
 Red. masses --     6.6890                 4.6109                 7.9033
 Frc consts  --     0.4477                 0.3650                 0.6509
 IR Inten    --    12.6708                 6.6826                 0.9683
 Raman Activ --     3.4086                 2.6493                 2.6467

                    28                     29                     30
                     A                      A                      A
 Frequencies --   412.5382               429.6922               431.5277
 Red. masses --     5.7300                 5.2836                 4.3244
 Frc consts  --     0.5746                 0.5748                 0.4745
 IR Inten    --    11.5909                 6.0704                12.5931
 Raman Activ --     2.8495                 0.2235                 6.1938

                    31                     32                     33
                     A                      A                      A
 Frequencies --   434.6134               457.9949               489.1940
 Red. masses --     6.0365                 4.0083                 3.4458
 Frc consts  --     0.6718                 0.4954                 0.4859
 IR Inten    --     3.9289                 2.5794                 9.5399
 Raman Activ --     2.2108                 3.4514                 3.9509

                    34                     35                     36
                     A                      A                      A
 Frequencies --   499.9119               520.5552               553.0859
 Red. masses --     5.1322                 2.9907                 3.6106
 Frc consts  --     0.7557                 0.4775                 0.6508
 IR Inten    --     4.6593                12.9707                 8.7937
 Raman Activ --     1.2824                 3.0127                 1.4743

                    37                     38                     39
                     A                      A                      A
 Frequencies --   585.1774               589.1800               609.0142
 Red. masses --     3.5824                 3.9345                 4.4437
 Frc consts  --     0.7228                 0.8047                 0.9711
 IR Inten    --    28.8880                17.6028                 9.2736
 Raman Activ --     0.6115                 0.1421                 0.7549

                    40                     41                     42
                     A                      A                      A
 Frequencies --   623.8266               688.1697               698.6281
 Red. masses --     6.3598                 1.9142                 1.7057
 Frc consts  --     1.4582                 0.5341                 0.4905
 IR Inten    --    36.6104                79.4917                24.8465
 Raman Activ --     1.6830                 0.7410                 1.9853

                    43                     44                     45
                     A                      A                      A
 Frequencies --   713.4702               717.3129               721.5920
 Red. masses --     1.0799                 1.0568                 1.0707
 Frc consts  --     0.3239                 0.3204                 0.3285
 IR Inten    --    74.4629               105.4571               106.6217
 Raman Activ --     1.7158                 1.9598                 1.3667

                    46                     47                     48
                     A                      A                      A
 Frequencies --   794.0405               816.1238               847.8556
 Red. masses --     1.0966                 1.0786                 1.7861
 Frc consts  --     0.4074                 0.4233                 0.7565
 IR Inten    --    46.4454               101.1710                 2.3528
 Raman Activ --     0.4757                 1.6331                 0.7716

                    49                     50                     51
                     A                      A                      A
 Frequencies --   875.0401               933.2905               956.4776
 Red. masses --     1.7339                 6.1519                 5.7047
 Frc consts  --     0.7822                 3.1571                 3.0749
 IR Inten    --     4.4363                85.3380                37.3389
 Raman Activ --     0.5983                 3.3066                 0.9434

                    52                     53                     54
                     A                      A                      A
 Frequencies --   974.8498               980.4480               992.0996
 Red. masses --     6.3378                 6.8053                 5.0928
 Frc consts  --     3.5487                 3.8543                 2.9534
 IR Inten    --    54.6041               242.1680               144.2767
 Raman Activ --     2.0409                 0.7710                 0.9353

                    55                     56                     57
                     A                      A                      A
 Frequencies --  1003.2761              1010.9394              1019.8751
 Red. masses --     5.0605                 6.1121                 5.7876
 Frc consts  --     3.0012                 3.6804                 3.5468
 IR Inten    --   212.2280                24.6424               178.2396
 Raman Activ --     3.1687                 1.1446                 2.7090

                    58                     59                     60
                     A                      A                      A
 Frequencies --  1033.3712              1052.5769              1061.8735
 Red. masses --     6.2351                 5.4001                 6.0737
 Frc consts  --     3.9229                 3.5250                 4.0351
 IR Inten    --   262.1741               103.9106               116.4423
 Raman Activ --     2.9663                 5.2452                 2.6369

                    61                     62                     63
                     A                      A                      A
 Frequencies --  1068.4049              1076.6512              1078.2824
 Red. masses --     3.8928                 5.9376                 3.2600
 Frc consts  --     2.6181                 4.0552                 2.2332
 IR Inten    --    27.5980                29.2559                 7.2643
 Raman Activ --     4.9668                 2.7975                16.1966

                    64                     65                     66
                     A                      A                      A
 Frequencies --  1106.8594              1111.9048              1115.7073
 Red. masses --     3.3892                 2.4546                 2.5478
 Frc consts  --     2.4464                 1.7880                 1.8686
 IR Inten    --    20.3121                39.0913                38.2743
 Raman Activ --    21.5653                 4.6722                 1.5677

                    67                     68                     69
                     A                      A                      A
 Frequencies --  1122.5060              1136.7946              1139.9224
 Red. masses --     2.4256                 3.3280                 3.5302
 Frc consts  --     1.8007                 2.5339                 2.7027
 IR Inten    --    84.3579                15.8649                46.7089
 Raman Activ --     2.0033                 3.4578                 3.5029

                    70                     71                     72
                     A                      A                      A
 Frequencies --  1145.9746              1153.7574              1161.3662
 Red. masses --     2.6801                 2.2853                 1.6277
 Frc consts  --     2.0737                 1.7923                 1.2935
 IR Inten    --    26.4725                 1.3097                11.1399
 Raman Activ --     3.3462                 3.8950                 1.9797

                    73                     74                     75
                     A                      A                      A
 Frequencies --  1173.2967              1176.7979              1187.6325
 Red. masses --     1.7130                 1.8355                 1.8932
 Frc consts  --     1.3894                 1.4977                 1.5733
 IR Inten    --    12.2490                 5.8126                31.1673
 Raman Activ --     3.9441                 2.5527                 2.3959

                    76                     77                     78
                     A                      A                      A
 Frequencies --  1210.3709              1225.4125              1242.0889
 Red. masses --     1.2716                 1.4331                 1.2526
 Frc consts  --     1.0976                 1.2679                 1.1386
 IR Inten    --    12.8122                11.9408                 0.6640
 Raman Activ --     3.1112                 2.4986                 1.6680

                    79                     80                     81
                     A                      A                      A
 Frequencies --  1243.8262              1254.5180              1267.1229
 Red. masses --     1.1983                 1.2255                 1.2429
 Frc consts  --     1.0923                 1.1364                 1.1758
 IR Inten    --     5.2346                16.8661                12.2776
 Raman Activ --     0.9807                 1.5040                 1.2688

                    82                     83                     84
                     A                      A                      A
 Frequencies --  1282.0110              1283.8990              1292.2265
 Red. masses --     1.2227                 1.2999                 1.2367
 Frc consts  --     1.1840                 1.2625                 1.2168
 IR Inten    --    16.7880                32.9084                 1.2059
 Raman Activ --     1.4388                 2.5282                 2.8477

                    85                     86                     87
                     A                      A                      A
 Frequencies --  1294.8617              1299.0141              1301.9001
 Red. masses --     1.3068                 1.2323                 1.2500
 Frc consts  --     1.2909                 1.2251                 1.2483
 IR Inten    --    33.4085                 7.9447                19.4399
 Raman Activ --     2.6893                 2.3584                 4.4872

                    88                     89                     90
                     A                      A                      A
 Frequencies --  1319.8834              1331.2722              1332.0721
 Red. masses --     1.1484                 1.2086                 1.2394
 Frc consts  --     1.1787                 1.2621                 1.2957
 IR Inten    --     2.5852                37.5386                16.2568
 Raman Activ --     8.4181                 2.2370                13.5137

                    91                     92                     93
                     A                      A                      A
 Frequencies --  1342.0118              1343.7400              1354.0200
 Red. masses --     1.2348                 1.2481                 1.2267
 Frc consts  --     1.3103                 1.3278                 1.3250
 IR Inten    --    16.1752                56.7689                20.4462
 Raman Activ --     1.6121                 3.6446                 3.9927

                    94                     95                     96
                     A                      A                      A
 Frequencies --  1361.5391              1362.6157              1377.4510
 Red. masses --     1.3528                 1.2487                 1.7223
 Frc consts  --     1.4776                 1.3660                 1.9254
 IR Inten    --    10.9108                25.6913                 8.2824
 Raman Activ --     4.7325                 2.7654                 5.7528

                    97                     98                     99
                     A                      A                      A
 Frequencies --  1380.3117              1392.7197              1394.2135
 Red. masses --     1.4187                 1.3413                 1.5226
 Frc consts  --     1.5925                 1.5328                 1.7438
 IR Inten    --     2.8967                 6.1288                 5.7094
 Raman Activ --     3.4462                 5.3660                 9.3014

                   100                    101                    102
                     A                      A                      A
 Frequencies --  1419.5963              1428.7647              1462.0466
 Red. masses --     1.5475                 1.4848                 1.2038
 Frc consts  --     1.8374                 1.7858                 1.5161
 IR Inten    --    29.7396                41.8757                17.6475
 Raman Activ --     0.8916                 1.1543                 4.0721

                   103                    104                    105
                     A                      A                      A
 Frequencies --  1463.3999              1470.6135              1479.9380
 Red. masses --     1.4148                 1.2069                 1.0802
 Frc consts  --     1.7852                 1.5378                 1.3939
 IR Inten    --    22.9689                15.8860                 2.0470
 Raman Activ --     1.6632                 1.0181                 5.1190

                   106                    107                    108
                     A                      A                      A
 Frequencies --  1516.2730              1538.3498              3255.5026
 Red. masses --     1.2476                 1.2266                 1.0582
 Frc consts  --     1.6900                 1.7103                 6.6078
 IR Inten    --    29.9921                38.0607                24.3349
 Raman Activ --     0.5424                 0.9069                79.5458

                   109                    110                    111
                     A                      A                      A
 Frequencies --  3261.1634              3263.3806              3268.0122
 Red. masses --     1.0790                 1.0590                 1.0819
 Frc consts  --     6.7609                 6.6447                 6.8076
 IR Inten    --    11.6651               131.0974                 8.1920
 Raman Activ --    76.2924                67.3035                37.0208

                   112                    113                    114
                     A                      A                      A
 Frequencies --  3268.8793              3270.0594              3274.6337
 Red. masses --     1.0806                 1.0810                 1.0830
 Frc consts  --     6.8033                 6.8108                 6.8422
 IR Inten    --     3.3934                 5.8329                 4.0687
 Raman Activ --   160.6112                77.9579               134.1104

                   115                    116                    117
                     A                      A                      A
 Frequencies --  3278.7842              3282.1403              3285.3243
 Red. masses --     1.0827                 1.0863                 1.0852
 Frc consts  --     6.8580                 6.8946                 6.9009
 IR Inten    --    41.9582                 6.7067                12.4028
 Raman Activ --    57.1109                12.4474                20.0420

                   118                    119                    120
                     A                      A                      A
 Frequencies --  3289.0371              3294.4217              3297.5310
 Red. masses --     1.0710                 1.0855                 1.0807
 Frc consts  --     6.8260                 6.9414                 6.9238
 IR Inten    --   122.5237               156.8917               386.0214
 Raman Activ --   259.1972                 8.2357                50.3719

                   121                    122                    123
                     A                      A                      A
 Frequencies --  3303.4900              3313.5029              3320.6757
 Red. masses --     1.0733                 1.1049                 1.1073
 Frc consts  --     6.9013                 7.1475                 7.1943
 IR Inten    --   620.0786                73.9729                39.7978
 Raman Activ --    52.9059                36.3864                56.9509

                   124                    125                    126
                     A                      A                      A
 Frequencies --  3370.4040              3371.6772              3373.2008
 Red. masses --     1.0662                 1.0665                 1.0657
 Frc consts  --     7.1359                 7.1431                 7.1445
 IR Inten    --    54.6754                54.7007                30.0897
 Raman Activ --   123.3397               154.0228               100.7161

                   127                    128                    129
                     A                      A                      A
 Frequencies --  3375.2255              3886.7845              3889.0963
 Red. masses --     1.0686                 1.0677                 1.0675
 Frc consts  --     7.1724                 9.5031                 9.5127
 IR Inten    --    45.5569                73.0338                68.6046
 Raman Activ --   152.8586                80.2422               122.1517

 - Thermochemistry -
 -------------------
 Temperature   298.150 Kelvin.  Pressure   1.00000 Atm.
 Atom     1 has atomic number  8 and mass  15.99491

 Molecular mass:   342.11621 amu.
 Principal axes and moments of inertia in atomic units:
                           1         2         3
     Eigenvalues --  4538.23760********************
           X            0.99997  -0.00814   0.00068
           Y            0.00814   0.99997  -0.00045
           Z           -0.00067   0.00046   1.00000
 This molecule is an asymmetric top.
 Rotational symmetry number  1.
 Warning -- assumption of classical behavior for rotation
           may cause significant error
 Rotational temperatures (Kelvin)      0.01909     0.00721     0.00539
 Rotational constants (GHZ):           0.39767     0.15031     0.11233
    6 imaginary frequencies ignored.
 Zero-point vibrational energy     975653.2 (Joules/Mol)
                                  233.18671 (Kcal/Mol)
 Warning -- explicit consideration of  33 degrees of freedom as
           vibrations may cause significant error
 Vibrational temperatures:     27.39    71.90   104.85   121.59   138.68
          (Kelvin)            158.60   230.74   254.26   270.90   287.38
                              343.57   385.81   412.85   423.54   428.70
                              442.99   456.76   467.35   484.91   527.35
                              537.92   593.55   618.23   620.87   625.31
                              658.95   703.84   719.26   748.96   795.77
                              841.94   847.70   876.23   897.55   990.12
                             1005.17  1026.52  1032.05  1038.21  1142.45
                             1174.22  1219.87  1258.99  1342.80  1376.16
                             1402.59  1410.64  1427.41  1443.49  1454.51
                             1467.37  1486.79  1514.42  1527.80  1537.19
                             1549.06  1551.41  1592.52  1599.78  1605.25
                             1615.03  1635.59  1640.09  1648.80  1660.00
                             1670.94  1688.11  1693.15  1708.74  1741.45
                             1763.09  1787.09  1789.59  1804.97  1823.11
                             1844.53  1847.24  1859.22  1863.01  1868.99
                             1873.14  1899.02  1915.40  1916.55  1930.85
                             1933.34  1948.13  1958.95  1960.50  1981.84
                             1985.96  2003.81  2005.96  2042.48  2055.67
                             2103.56  2105.50  2115.88  2129.30  2181.58
                             2213.34  4683.94  4692.08  4695.27  4701.93
                             4703.18  4704.88  4711.46  4717.43  4722.26
                             4726.84  4732.18  4739.93  4744.41  4752.98
                             4767.39  4777.71  4849.25  4851.09  4853.28
                             4856.19  5592.21  5595.54

 Zero-point correction=                           0.371607 (Hartree/Particle)
 Thermal correction to Energy=                    0.390812
 Thermal correction to Enthalpy=                  0.391756
 Thermal correction to Gibbs Free Energy=         0.324044
 Sum of electronic and zero-point Energies=          -1297.623219
 Sum of electronic and thermal Energies=             -1297.604013
 Sum of electronic and thermal Enthalpies=           -1297.603069
 Sum of electronic and thermal Free Energies=        -1297.670781

                     E (Thermal)             CV                S
                      KCal/Mol        Cal/Mol-Kelvin    Cal/Mol-Kelvin
 Total                  245.238             77.921            142.512
 Electronic               0.000              0.000              0.000
 Translational            0.889              2.981             43.384
 Rotational               0.889              2.981             35.125
 Vibrational            243.461             71.959             64.002
 Vibration     1          0.593              1.986              6.732
 Vibration     2          0.595              1.978              4.818
 Vibration     3          0.599              1.967              4.074
 Vibration     4          0.601              1.960              3.783
 Vibration     5          0.603              1.952              3.526
 Vibration     6          0.606              1.941              3.265
 Vibration     7          0.622              1.891              2.545
 Vibration     8          0.628              1.871              2.363
 Vibration     9          0.633              1.856              2.245
 Vibration    10          0.638              1.840              2.135
 Vibration    11          0.657              1.781              1.812
 Vibration    12          0.673              1.732              1.608
 Vibration    13          0.684              1.698              1.492
 Vibration    14          0.689              1.684              1.449
 Vibration    15          0.691              1.678              1.428
 Vibration    16          0.698              1.659              1.374
 Vibration    17          0.704              1.640              1.323
 Vibration    18          0.709              1.626              1.286
 Vibration    19          0.718              1.602              1.226
 Vibration    20          0.739              1.541              1.094
 Vibration    21          0.745              1.526              1.064
 Vibration    22          0.776              1.443              0.918
 Vibration    23          0.791              1.406              0.860
 Vibration    24          0.793              1.402              0.854
 Vibration    25          0.795              1.395              0.844
 Vibration    26          0.816              1.343              0.772
 Vibration    27          0.845              1.274              0.686
 Vibration    28          0.855              1.250              0.658
 Vibration    29          0.876              1.204              0.609
 Vibration    30          0.908              1.133              0.538
 Vibration    31          0.942              1.063              0.476
 Vibration    32          0.946              1.055              0.469
 Vibration    33          0.968              1.013              0.434

 Normal termination of Gaussian 09 at Wed Mar 23 05:02:56 2016.
