 Gaussian 09, Revision B.01,
 Gaussian 09:  EM64L-G09RevB.01 12-Aug-2010

 ------------------------------------------------
 # freq=raman b3lyp/6-31+g(d,p) geom=connectivity
 ------------------------------------------------

 ------------
 400 9000.com
 ------------
 Symbolic Z-matrix:
 Charge =  0 Multiplicity = 1

                         Standard orientation:
 ---------------------------------------------------------------------
 Center     Atomic      Atomic             Coordinates (Angstroms)
 Number     Number       Type             X           Y           Z
 ---------------------------------------------------------------------
      1          8           0       -5.088017   -0.293359    0.248669
      2          6           0       -3.743780   -0.059263   -0.195824
      3          6           0       -3.222931    1.308998    0.214352
      4          8           0       -3.857996    2.363973   -0.522022
      5          1           0       -4.796447    2.056675   -0.680208
      6          6           0       -1.741180    1.535087   -0.038287
      7          8           0       -1.238678    2.747509    0.540467
      8          1           0       -0.283671    2.699858    0.246455
      9          6           0       -3.118021   -2.506362   -0.009664
     10          8           0       -4.435077   -3.060379    0.121447
     11          1           0       -4.353644   -4.049906    0.235926
     12          6           0       -2.766006   -1.076872    0.368635
     13          8           0       -1.398017   -0.883741   -0.019967
     14          6           0       -0.889473    0.374534    0.447495
     15          8           0        0.272724    0.452921   -0.391818
     16          6           0        1.609127    0.215997    0.072360
     17          6           0        1.935158   -1.190666   -0.403487
     18          8           0        0.949500   -2.231704   -0.346701
     19          1           0        0.024275   -1.859924   -0.421957
     20          6           0        3.257079   -1.599593    0.226872
     21          8           0        3.721341   -2.846517   -0.310213
     22          1           0        4.535571   -3.177194    0.166886
     23          6           0        2.394732    2.629080    0.017056
     24          8           0        1.177710    3.366602   -0.165889
     25          1           0        1.290243    4.360159   -0.154979
     26          6           0        2.644023    1.202356   -0.443511
     27          8           0        3.915393    0.821685    0.103366
     28          6           0        4.317193   -0.547676   -0.053886
     29          8           0        5.551104   -0.595999    0.676820
     30          1           0        6.288058   -0.531399    0.064998
     31          1           0        4.576970   -0.667292   -1.084957
     32          1           0        3.128224   -1.697171    1.284593
     33          1           0        2.146078   -1.080764   -1.446720
     34          1           0        1.614872    0.232873    1.142211
     35          1           0        2.681827    1.165643   -1.512213
     36          1           0        3.164408    3.219871   -0.434013
     37          1           0        2.582289    2.632484    1.070484
     38          1           0       -5.676899   -0.312611   -0.509254
     39          1           0       -2.468091   -3.137184    0.560033
     40          1           0       -2.843882   -2.621880   -1.037479
     41          1           0       -2.810727   -1.004935    1.435277
     42          1           0       -3.723822   -0.124510   -1.263646
     43          1           0       -3.418892    1.451063    1.256618
     44          1           0       -1.607459    1.608058   -1.097388
     45          1           0       -0.664693    0.396439    1.493389
 ---------------------------------------------------------------------

 SCF Done:  E(RB3LYP) =  -1297.91786594     A.U. after   14 cycles

 The electronic state is 1-A.
 Alpha  occ. eigenvalues --  -19.20005 -19.19635 -19.18768 -19.18705 -19.18294
 Alpha  occ. eigenvalues --  -19.17912 -19.16941 -19.16863 -19.15975 -19.14490
 Alpha  occ. eigenvalues --  -19.13835 -10.31243 -10.31044 -10.27222 -10.26264
 Alpha  occ. eigenvalues --  -10.26173 -10.25887 -10.25762 -10.25642 -10.24621
 Alpha  occ. eigenvalues --  -10.24290 -10.24101 -10.23835  -1.10567  -1.09120
 Alpha  occ. eigenvalues --   -1.05502  -1.05257  -1.03987  -1.03247  -1.02767
 Alpha  occ. eigenvalues --   -1.02447  -1.02217  -1.00347  -0.99828  -0.82832
 Alpha  occ. eigenvalues --   -0.80501  -0.80033  -0.78106  -0.72336  -0.69990
 Alpha  occ. eigenvalues --   -0.67615  -0.64974  -0.63666  -0.62658  -0.61426
 Alpha  occ. eigenvalues --   -0.60199  -0.56381  -0.56137  -0.55844  -0.54735
 Alpha  occ. eigenvalues --   -0.53974  -0.53630  -0.52994  -0.51827  -0.51533
 Alpha  occ. eigenvalues --   -0.51062  -0.49967  -0.49422  -0.48773  -0.47036
 Alpha  occ. eigenvalues --   -0.46247  -0.45167  -0.44316  -0.43660  -0.43202
 Alpha  occ. eigenvalues --   -0.42535  -0.41786  -0.40949  -0.40733  -0.39405
 Alpha  occ. eigenvalues --   -0.38350  -0.37247  -0.36931  -0.36064  -0.35937
 Alpha  occ. eigenvalues --   -0.35083  -0.34610  -0.34329  -0.33655  -0.33585
 Alpha  occ. eigenvalues --   -0.33029  -0.31585  -0.30946  -0.30352  -0.29785
 Alpha  occ. eigenvalues --   -0.29109  -0.28443  -0.28150  -0.27473  -0.26608
 Alpha  occ. eigenvalues --   -0.26202
 Alpha virt. eigenvalues --   -0.02235  -0.02103  -0.01674  -0.00640   0.00183
 Alpha virt. eigenvalues --    0.01034   0.01788   0.02521   0.02764   0.03138
 Alpha virt. eigenvalues --    0.03855   0.04500   0.04638   0.05070   0.05762

 Mulliken atomic charges:
              1
     1  O   -0.505928
     2  C   -0.318961
     3  C    0.165682
     4  O   -0.506363
     5  H    0.331870
     6  C    0.095265
     7  O   -0.541439
     8  H    0.455365
     9  C   -0.128073
    10  O   -0.543527
    11  H    0.363980
    12  C    0.336494
    13  O   -0.404536
    14  C    0.077660
    15  O   -0.378451
    16  C   -0.302640
    17  C    0.039384
    18  O   -0.546442
    19  H    0.445972
    20  C    0.203677
    21  O   -0.497742
    22  H    0.352170
    23  C   -0.151954
    24  O   -0.641878
    25  H    0.404752
    26  C    0.219844
    27  O   -0.306942
    28  C    0.134608
    29  O   -0.524955
    30  H    0.363695
    31  H    0.120418
    32  H    0.142141
    33  H    0.123964
    34  H    0.126068
    35  H    0.141313
    36  H    0.136363
    37  H    0.153907
    38  H    0.365862
    39  H    0.133656
    40  H    0.140240
    41  H    0.134251
    42  H    0.141742
    43  H    0.145863
    44  H    0.157579
    45  H    0.146047
 Sum of Mulliken atomic charges =   0.00000

 Dipole moment (field-independent basis, Debye):
    X=              2.4630    Y=              0.0502    Z=             -1.2262  Tot=              2.7518
 Quadrupole moment (field-independent basis, Debye-Ang):
   XX=           -120.9653   YY=           -136.7531   ZZ=           -138.1127
   XY=             15.5982   XZ=              1.7322   YZ=             -5.8138

  Exact polarizability: 229.872  -0.192 193.750   2.281  -0.301 141.626
 Approx polarizability: 267.629   1.105 249.485   3.045   0.552 229.953

 ******    8 imaginary frequencies (negative Signs) ******

                     1                      2                      3
                     A                      A                      A
 Frequencies --  -347.5296              -320.6298              -312.3080
 Red. masses --     1.1984                 1.7122                 1.6089
 Frc consts  --     0.0853                 0.1037                 0.0925
 IR Inten    --   103.2950                 2.7907                13.6216
 Raman Activ --     0.9261                 0.0272                 0.1722

                     4                      5                      6
                     A                      A                      A
 Frequencies --  -268.2489               -78.9996               -52.4729
 Red. masses --     1.1443                 6.5392                 6.8550
 Frc consts  --     0.0485                 0.0240                 0.0111
 IR Inten    --   101.8752                 0.0130                 0.8173
 Raman Activ --     1.4821                 0.0467                 0.0923

                     7                      8                      9
                     A                      A                      A
 Frequencies --   -39.7334               -35.0499                19.3145
 Red. masses --     6.7473                 5.9381                 6.8246
 Frc consts  --     0.0063                 0.0043                 0.0015
 IR Inten    --     0.4148                 1.5724                 0.7061
 Raman Activ --     0.0079                 0.0340                 0.0536

                    10                     11                     12
                     A                      A                      A
 Frequencies --    52.7429                84.0276                88.3899
 Red. masses --     6.7199                 6.6744                 6.4748
 Frc consts  --     0.0110                 0.0278                 0.0298
 IR Inten    --     1.1480                 0.3305                 3.0587
 Raman Activ --     0.0758                 0.2780                 0.1011

                    13                     14                     15
                     A                      A                      A
 Frequencies --   147.0272               171.1389               184.9792
 Red. masses --     6.2047                 6.3979                 7.0659
 Frc consts  --     0.0790                 0.1104                 0.1425
 IR Inten    --     5.8144                 1.4850                 0.0938
 Raman Activ --     0.1779                 0.5546                 0.4061

                    16                     17                     18
                     A                      A                      A
 Frequencies --   217.1331               235.9282               264.3943
 Red. masses --     7.5110                 5.9764                 4.5477
 Frc consts  --     0.2086                 0.1960                 0.1873
 IR Inten    --     0.8145                 2.5399                13.6233
 Raman Activ --     3.1965                 0.3063                 0.7019

                    19                     20                     21
                     A                      A                      A
 Frequencies --   266.7603               278.6553               304.0509
 Red. masses --     5.0059                 4.7797                 4.9829
 Frc consts  --     0.2099                 0.2187                 0.2714
 IR Inten    --     3.2557                 0.3397                 5.6209
 Raman Activ --     0.1975                 0.5394                 0.9226

                    22                     23                     24
                     A                      A                      A
 Frequencies --   305.7711               314.6589               319.2151
 Red. masses --     6.3982                 5.3058                 5.9892
 Frc consts  --     0.3525                 0.3095                 0.3596
 IR Inten    --     5.4868                 3.7132                12.7884
 Raman Activ --     2.7827                 1.4628                 3.1152

                    25                     26                     27
                     A                      A                      A
 Frequencies --   347.8675               363.2094               376.0745
 Red. masses --     6.5323                 5.8431                 5.2364
 Frc consts  --     0.4657                 0.4542                 0.4363
 IR Inten    --     6.8574                 0.8719                 1.3839
 Raman Activ --     0.2485                 2.9510                 0.8909

                    28                     29                     30
                     A                      A                      A
 Frequencies --   398.5392               413.6565               428.2246
 Red. masses --     4.1906                 6.6055                 5.5514
 Frc consts  --     0.3922                 0.6659                 0.5998
 IR Inten    --    13.2911                 1.1390                 0.7446
 Raman Activ --     2.7903                 5.4943                 3.2315

                    31                     32                     33
                     A                      A                      A
 Frequencies --   433.2222               467.6125               476.6926
 Red. masses --     5.0453                 3.9129                 4.3724
 Frc consts  --     0.5579                 0.5041                 0.5854
 IR Inten    --     8.3282                19.3499                 8.8840
 Raman Activ --     0.2305                 2.4210                 2.0517

                    34                     35                     36
                     A                      A                      A
 Frequencies --   491.1775               525.6046               565.4392
 Red. masses --     4.1294                 3.2051                 3.9061
 Frc consts  --     0.5870                 0.5217                 0.7358
 IR Inten    --     4.2226                12.0254                19.2792
 Raman Activ --     3.1089                 3.4873                 3.3320

                    37                     38                     39
                     A                      A                      A
 Frequencies --   583.0882               598.8828               611.1194
 Red. masses --     2.7133                 6.0120                 2.7242
 Frc consts  --     0.5435                 1.2704                 0.5994
 IR Inten    --    33.6037                 6.0564                45.9402
 Raman Activ --     0.8926                 0.5023                 1.7191

                    40                     41                     42
                     A                      A                      A
 Frequencies --   618.5601               638.3830               652.8519
 Red. masses --     1.4326                 3.6453                 1.0862
 Frc consts  --     0.3230                 0.8753                 0.2728
 IR Inten    --    76.3693                27.3066               119.0733
 Raman Activ --     1.7504                 0.8942                 1.8939

                    43                     44                     45
                     A                      A                      A
 Frequencies --   691.4200               694.8389               707.4938
 Red. masses --     2.0531                 1.3567                 1.2117
 Frc consts  --     0.5783                 0.3859                 0.3573
 IR Inten    --    38.4229                84.5157                86.4360
 Raman Activ --     0.6802                 3.9466                 1.0538

                    46                     47                     48
                     A                      A                      A
 Frequencies --   731.1928               843.6922               848.4620
 Red. masses --     1.0685                 1.7553                 1.6123
 Frc consts  --     0.3366                 0.7361                 0.6838
 IR Inten    --   106.2413                 9.1237                15.0848
 Raman Activ --     1.7399                 1.3053                 0.3019

                    49                     50                     51
                     A                      A                      A
 Frequencies --   884.6405               921.1649               946.2670
 Red. masses --     1.1882                 5.1852                 6.0280
 Frc consts  --     0.5479                 2.5923                 3.1802
 IR Inten    --    92.6102                65.3553                91.4567
 Raman Activ --     0.4536                 2.1243                 0.8931

                    52                     53                     54
                     A                      A                      A
 Frequencies --   968.5509               988.2879               998.9068
 Red. masses --     5.2454                 5.4917                 5.6530
 Frc consts  --     2.8992                 3.1602                 3.3234
 IR Inten    --    69.6018                15.6138               218.0556
 Raman Activ --     3.9213                 2.1971                 1.0030

                    55                     56                     57
                     A                      A                      A
 Frequencies --  1013.8472              1025.9578              1027.8224
 Red. masses --     4.6678                 4.8571                 5.7043
 Frc consts  --     2.8269                 3.0122                 3.5505
 IR Inten    --   193.4662                37.1636                80.3628
 Raman Activ --     1.5580                 5.3359                 2.5880

                    58                     59                     60
                     A                      A                      A
 Frequencies --  1044.7548              1054.3197              1072.6955
 Red. masses --     3.6572                 2.9890                 3.7378
 Frc consts  --     2.3520                 1.9576                 2.5341
 IR Inten    --   420.8018               114.1571                34.7671
 Raman Activ --     1.9568                 4.7291                 3.9859

                    61                     62                     63
                     A                      A                      A
 Frequencies --  1078.8702              1083.3336              1087.1801
 Red. masses --     4.6027                 4.5959                 4.7889
 Frc consts  --     3.1565                 3.1779                 3.3350
 IR Inten    --    83.5797                51.5463                13.4173
 Raman Activ --     0.4631                10.3435                 8.9445

                    64                     65                     66
                     A                      A                      A
 Frequencies --  1103.3134              1109.5204              1117.0910
 Red. masses --     2.3940                 2.4347                 2.1927
 Frc consts  --     1.7170                 1.7659                 1.6121
 IR Inten    --    46.5762               145.8664                16.7128
 Raman Activ --     9.2857                 4.8124                 3.6031

                    67                     68                     69
                     A                      A                      A
 Frequencies --  1125.0052              1131.3679              1139.3301
 Red. masses --     3.2073                 2.5084                 2.9197
 Frc consts  --     2.3917                 1.8917                 2.2330
 IR Inten    --    50.5760                20.4800                27.6426
 Raman Activ --    13.2956                 9.2610                 5.4533

                    70                     71                     72
                     A                      A                      A
 Frequencies --  1149.1855              1156.6082              1166.8627
 Red. masses --     2.4664                 2.3514                 2.2637
 Frc consts  --     1.9191                 1.8533                 1.8160
 IR Inten    --    34.6409                12.2764                24.2107
 Raman Activ --     4.2837                 1.2128                 7.3653

                    73                     74                     75
                     A                      A                      A
 Frequencies --  1173.4764              1177.8335              1192.6781
 Red. masses --     2.0778                 2.3671                 1.6417
 Frc consts  --     1.6858                 1.9348                 1.3759
 IR Inten    --    31.7819                24.9452                13.0281
 Raman Activ --     2.2068                 1.9541                 1.8309

                    76                     77                     78
                     A                      A                      A
 Frequencies --  1207.8124              1214.8196              1227.2596
 Red. masses --     1.2835                 1.2543                 1.3109
 Frc consts  --     1.1032                 1.0907                 1.1633
 IR Inten    --    32.4405                 1.5378                16.2696
 Raman Activ --     2.6725                 1.0826                 0.5999

                    79                     80                     81
                     A                      A                      A
 Frequencies --  1241.9818              1253.8907              1259.0956
 Red. masses --     1.5004                 1.2635                 1.2789
 Frc consts  --     1.3636                 1.1705                 1.1946
 IR Inten    --    11.0031                10.8069                13.3388
 Raman Activ --     2.2798                 2.0405                 1.0912

                    82                     83                     84
                     A                      A                      A
 Frequencies --  1264.5187              1286.1408              1292.8226
 Red. masses --     1.3144                 1.4058                 1.1777
 Frc consts  --     1.2383                 1.3701                 1.1597
 IR Inten    --    20.2504                44.6803                28.7456
 Raman Activ --     3.0221                 1.3883                 7.7941

                    85                     86                     87
                     A                      A                      A
 Frequencies --  1296.0538              1303.1959              1310.2444
 Red. masses --     1.2965                 1.3426                 1.3995
 Frc consts  --     1.2831                 1.3434                 1.4156
 IR Inten    --     4.7548                 7.3063                60.6606
 Raman Activ --     2.0777                 1.3924                 1.0869

                    88                     89                     90
                     A                      A                      A
 Frequencies --  1325.2340              1326.1907              1328.3609
 Red. masses --     1.2065                 1.2648                 1.1949
 Frc consts  --     1.2484                 1.3106                 1.2423
 IR Inten    --    13.2220                14.7966                 8.3164
 Raman Activ --     4.4380                 7.8526                13.1470

                    91                     92                     93
                     A                      A                      A
 Frequencies --  1338.3389              1348.3323              1351.8799
 Red. masses --     1.2745                 1.2511                 1.1151
 Frc consts  --     1.3450                 1.3401                 1.2007
 IR Inten    --    27.8195                39.4620                23.0428
 Raman Activ --     2.2177                 4.3486                 3.6805

                    94                     95                     96
                     A                      A                      A
 Frequencies --  1356.6125              1369.1141              1386.1358
 Red. masses --     1.3820                 1.4267                 1.1733
 Frc consts  --     1.4986                 1.5756                 1.3282
 IR Inten    --     2.2562                 8.1352                 4.1710
 Raman Activ --    16.0598                 5.6777                 5.2591

                    97                     98                     99
                     A                      A                      A
 Frequencies --  1387.9674              1400.0718              1407.6531
 Red. masses --     1.7300                 1.2536                 1.5715
 Frc consts  --     1.9637                 1.4478                 1.8346
 IR Inten    --    13.3097                 9.6230                 8.4848
 Raman Activ --     4.8720                 1.1014                 4.6699

                   100                    101                    102
                     A                      A                      A
 Frequencies --  1422.8466              1440.4320              1445.4085
 Red. masses --     1.4613                 1.3863                 1.3783
 Frc consts  --     1.7431                 1.6946                 1.6966
 IR Inten    --    17.7168                45.7784                14.4315
 Raman Activ --     5.4961                 0.9167                 1.4803

                   103                    104                    105
                     A                      A                      A
 Frequencies --  1458.4136              1463.2582              1480.0303
 Red. masses --     1.3736                 1.3731                 1.0905
 Frc consts  --     1.7214                 1.7322                 1.4074
 IR Inten    --    22.1969                19.4102                 3.9461
 Raman Activ --     4.3320                 1.0498                 5.0058

                   106                    107                    108
                     A                      A                      A
 Frequencies --  1480.4568              1518.9695              3264.9438
 Red. masses --     1.1096                 1.3031                 1.0601
 Frc consts  --     1.4329                 1.7715                 6.6579
 IR Inten    --     4.4451                93.5593                31.2518
 Raman Activ --     3.4471                 1.9154               105.2537

                   109                    110                    111
                     A                      A                      A
 Frequencies --  3266.1097              3270.0016              3279.5223
 Red. masses --     1.0781                 1.0620                 1.0838
 Frc consts  --     6.7763                 6.6909                 6.8680
 IR Inten    --     3.2539               281.7326                32.8161
 Raman Activ --    14.1695                47.1228                86.6136

                   112                    113                    114
                     A                      A                      A
 Frequencies --  3281.0232              3284.9109              3289.5309
 Red. masses --     1.0834                 1.0684                 1.0833
 Frc consts  --     6.8718                 6.7927                 6.9066
 IR Inten    --     4.8520               423.0063                 3.9425
 Raman Activ --    60.5199               319.6602               147.3363

                   115                    116                    117
                     A                      A                      A
 Frequencies --  3291.9704              3297.7042              3299.4329
 Red. masses --     1.0827                 1.0863                 1.0845
 Frc consts  --     6.9129                 6.9602                 6.9563
 IR Inten    --    45.8645                 3.3597                29.0521
 Raman Activ --    62.8335                39.6532                25.9657

                   118                    119                    120
                     A                      A                      A
 Frequencies --  3307.6306              3309.0313              3317.8916
 Red. masses --     1.0871                 1.0878                 1.1023
 Frc consts  --     7.0074                 7.0176                 7.1493
 IR Inten    --    90.0693                17.3071                65.9895
 Raman Activ --     8.6977                19.7585                22.0594

                   121                    122                    123
                     A                      A                      A
 Frequencies --  3323.8065              3325.1435              3334.2480
 Red. masses --     1.0846                 1.1030                 1.0714
 Frc consts  --     7.0595                 7.1855                 7.0176
 IR Inten    --   157.9854                76.1729               663.8166
 Raman Activ --    28.8934                55.3934               150.0927

                   124                    125                    126
                     A                      A                      A
 Frequencies --  3381.5238              3392.1958              3395.5054
 Red. masses --     1.0657                 1.0670                 1.0681
 Frc consts  --     7.1800                 7.2341                 7.2559
 IR Inten    --    12.0824                39.1595                43.3093
 Raman Activ --   117.7235               167.4356               164.7648

                   127                    128                    129
                     A                      A                      A
 Frequencies --  3400.8408              3917.5868              3918.8273
 Red. masses --     1.0685                 1.0679                 1.0678
 Frc consts  --     7.2809                 9.6567                 9.6614
 IR Inten    --    99.0078                77.3563                80.3929
 Raman Activ --   166.6828                86.6509               119.1809

 - Thermochemistry -
 -------------------
 Temperature   298.150 Kelvin.  Pressure   1.00000 Atm.
 Atom     1 has atomic number  8 and mass  15.99491

 Molecular mass:   342.11621 amu.
 Principal axes and moments of inertia in atomic units:
                           1         2         3
     Eigenvalues --  4424.08147********************
           X            0.99997   0.00765  -0.00005
           Y           -0.00765   0.99997  -0.00143
           Z            0.00004   0.00143   1.00000
 This molecule is an asymmetric top.
 Rotational symmetry number  1.
 Warning -- assumption of classical behavior for rotation
           may cause significant error
 Rotational temperatures (Kelvin)      0.01958     0.00702     0.00529
 Rotational constants (GHZ):           0.40794     0.14637     0.11032
    8 imaginary frequencies ignored.
 Zero-point vibrational energy     975215.4 (Joules/Mol)
                                  233.08208 (Kcal/Mol)
 Warning -- explicit consideration of  32 degrees of freedom as
           vibrations may cause significant error
 Vibrational temperatures:     27.79    75.89   120.90   127.17   211.54
          (Kelvin)            246.23   266.14   312.41   339.45   380.40
                              383.81   400.92   437.46   439.94   452.72
                              459.28   500.50   522.58   541.09   573.41
                              595.16   616.12   623.31   672.79   685.85
                              706.69   756.23   813.54   838.93   861.66
                              879.26   889.97   918.49   939.31   994.80
                              999.72  1017.92  1052.02  1213.88  1220.75
                             1272.80  1325.35  1361.47  1393.53  1421.92
                             1437.20  1458.70  1476.12  1478.81  1503.17
                             1516.93  1543.37  1552.25  1558.67  1564.21
                             1587.42  1596.35  1607.24  1618.63  1627.78
                             1639.24  1653.42  1664.10  1678.85  1688.37
                             1694.64  1716.00  1737.77  1747.85  1765.75
                             1786.93  1804.07  1811.56  1819.36  1850.47
                             1860.08  1864.73  1875.01  1885.15  1906.71
                             1908.09  1911.21  1925.57  1939.95  1945.05
                             1951.86  1969.85  1994.34  1996.97  2014.39
                             2025.30  2047.16  2072.46  2079.62  2098.33
                             2105.30  2129.43  2130.04  2185.46  4697.52
                             4699.20  4704.80  4718.50  4720.65  4726.25
                             4732.90  4736.41  4744.65  4747.14  4758.94
                             4760.95  4773.70  4782.21  4784.13  4797.23
                             4865.25  4880.61  4885.37  4893.05  5636.53
                             5638.31

 Zero-point correction=                           0.371440 (Hartree/Particle)
 Thermal correction to Energy=                    0.389312
 Thermal correction to Enthalpy=                  0.390256
 Thermal correction to Gibbs Free Energy=         0.325686
 Sum of electronic and zero-point Energies=          -1297.546426
 Sum of electronic and thermal Energies=             -1297.528554
 Sum of electronic and thermal Enthalpies=           -1297.527610
 Sum of electronic and thermal Free Energies=        -1297.592180

                     E (Thermal)             CV                S
                      KCal/Mol        Cal/Mol-Kelvin    Cal/Mol-Kelvin
 Total                  244.297             74.452            135.899
 Electronic               0.000              0.000              0.000
 Translational            0.889              2.981             43.384
 Rotational               0.889              2.981             35.144
 Vibrational            242.519             68.490             57.371
 Vibration     1          0.593              1.986              6.703
 Vibration     2          0.596              1.977              4.712
 Vibration     3          0.601              1.960              3.795
 Vibration     4          0.601              1.957              3.695
 Vibration     5          0.617              1.906              2.710
 Vibration     6          0.626              1.878              2.423
 Vibration     7          0.631              1.860              2.278
 Vibration     8          0.646              1.815              1.983
 Vibration     9          0.655              1.786              1.833
 Vibration    10          0.671              1.738              1.633
 Vibration    11          0.672              1.734              1.617
 Vibration    12          0.679              1.713              1.542
 Vibration    13          0.695              1.666              1.395
 Vibration    14          0.696              1.663              1.385
 Vibration    15          0.702              1.646              1.338
 Vibration    16          0.705              1.637              1.314
 Vibration    17          0.725              1.580              1.176
 Vibration    18          0.737              1.548              1.108
 Vibration    19          0.747              1.521              1.055
 Vibration    20          0.765              1.473              0.968
 Vibration    21          0.777              1.441              0.914
 Vibration    22          0.790              1.409              0.864
 Vibration    23          0.794              1.398              0.848
 Vibration    24          0.825              1.322              0.744
 Vibration    25          0.833              1.302              0.719
 Vibration    26          0.847              1.270              0.681
 Vibration    27          0.881              1.193              0.597
 Vibration    28          0.921              1.106              0.513
 Vibration    29          0.940              1.068              0.480
 Vibration    30          0.957              1.034              0.452
 Vibration    31          0.970              1.008              0.431
 Vibration    32          0.978              0.993              0.419

 Normal termination of Gaussian 09 at Thu Jan 21 17:58:26 2016.
