 Gaussian 09, Revision B.01,
 Gaussian 09:  EM64L-G09RevB.01 12-Aug-2010

 ---------------------------------------------------------
 # freq=raman b3lyp/6-31+g(2df,p) scrf=(smd,solvent=water)
 ---------------------------------------------------------

 -----------------------------
 450K 5000ps Cellobiose Unit 1
 -----------------------------
 Symbolic Z-matrix:
 Charge =  0 Multiplicity = 2

                         Standard orientation:
 ---------------------------------------------------------------------
 Center     Atomic      Atomic             Coordinates (Angstroms)
 Number     Number       Type             X           Y           Z
 ---------------------------------------------------------------------
      1          6           0       -4.195983    0.277653   -0.165131
      2          6           0       -3.696640   -1.115236   -0.511986
      3          8           0       -4.631813   -2.034750    0.070701
      4          1           0       -5.507935   -1.953470   -0.404588
      5          6           0       -2.393905   -1.529611    0.152427
      6          8           0       -1.897017   -2.808524   -0.268403
      7          1           0       -2.707968   -3.361579   -0.460182
      8          6           0       -3.515148    2.713277    0.136321
      9          8           0       -2.547335    3.765598    0.013162
     10          1           0       -2.903937    4.637205    0.348509
     11          6           0       -3.108117    1.326019   -0.334177
     12          8           0       -1.961991    0.804644    0.354422
     13          6           0       -1.364188   -0.432059   -0.060108
     14          8           0       -0.196957   -0.528326    0.768720
     15          6           0        1.027230   -0.324089    0.048751
     16          6           0        1.528855    1.083860    0.327281
     17          8           0        0.678224    2.130862   -0.160420
     18          1           0       -0.272513    1.916866    0.064225
     19          6           0        2.859041    1.457262   -0.304001
     20          8           0        3.344997    2.796151   -0.123190
     21          1           0        2.478539    3.288954   -0.202115
     22          6           0        1.719532   -2.718427   -0.092175
     23          8           0        2.641221   -3.817028   -0.086117
     24          1           0        2.763440   -4.133345    0.854228
     25          6           0        2.108940   -1.333078    0.399692
     26          8           0        3.373196   -0.882917   -0.108216
     27          6           0        3.843623    0.429597    0.229133
     28          8           0        5.130487    0.620856   -0.377081
     29          1           0        5.806835    0.221830    0.175125
 ---------------------------------------------------------------------

 SCF Done:  E(UB3LYP) =  -1213.11178250     A.U. after   58 cycles

 The electronic state is 2-A.
 Alpha  occ. eigenvalues --  -19.24948 -19.23257 -19.22503 -19.22490 -19.21014
 Alpha  occ. eigenvalues --  -19.20695 -19.20223 -19.20036 -19.19714 -19.19349
 Alpha  occ. eigenvalues --  -10.35388 -10.33601 -10.32193 -10.31028 -10.30660
 Alpha  occ. eigenvalues --  -10.30569 -10.29865 -10.29834 -10.29660 -10.29630
 Alpha  occ. eigenvalues --  -10.27759 -10.22960  -1.12987  -1.10607  -1.07670
 Alpha  occ. eigenvalues --   -1.07206  -1.06993  -1.06554  -1.05155  -1.04811
 Alpha  occ. eigenvalues --   -1.04595  -1.04101  -0.82029  -0.79298  -0.78936
 Alpha  occ. eigenvalues --   -0.78050  -0.70155  -0.68055  -0.66477  -0.63356
 Alpha  occ. eigenvalues --   -0.62920  -0.61315  -0.56704  -0.56143  -0.55758
 Alpha  occ. eigenvalues --   -0.54686  -0.53177  -0.52179  -0.50815  -0.50259
 Alpha  occ. eigenvalues --   -0.48978  -0.48329  -0.47910  -0.46992  -0.46558
 Alpha  occ. eigenvalues --   -0.45919  -0.44601  -0.43387  -0.42941  -0.42540
 Alpha  occ. eigenvalues --   -0.41928  -0.41635  -0.40542  -0.40207  -0.39159
 Alpha  occ. eigenvalues --   -0.38048  -0.37660  -0.37553  -0.36630  -0.34859
 Alpha  occ. eigenvalues --   -0.34517  -0.32921  -0.30830  -0.29846  -0.27774
 Alpha  occ. eigenvalues --   -0.27691  -0.25053  -0.24292  -0.22693  -0.20262
 Alpha virt. eigenvalues --   -0.16313  -0.12481  -0.11628  -0.08748  -0.07701
 Alpha virt. eigenvalues --   -0.06810  -0.05423   0.00424   0.01024   0.01500
 Alpha virt. eigenvalues --    0.01985   0.02796   0.03491   0.03659   0.04924

  Beta  occ. eigenvalues --  -19.25038 -19.23243 -19.22442 -19.22353 -19.21038
  Beta  occ. eigenvalues --  -19.20613 -19.20195 -19.19738 -19.19658 -19.19297
  Beta  occ. eigenvalues --  -10.35318 -10.33774 -10.32296 -10.30989 -10.30588
  Beta  occ. eigenvalues --  -10.30466 -10.29660 -10.29659 -10.29555 -10.29340
  Beta  occ. eigenvalues --  -10.26913 -10.23186  -1.13014  -1.10420  -1.07619
  Beta  occ. eigenvalues --   -1.07156  -1.06922  -1.06507  -1.04935  -1.04519
  Beta  occ. eigenvalues --   -1.04316  -1.03726  -0.81828  -0.79368  -0.78733
  Beta  occ. eigenvalues --   -0.77497  -0.69825  -0.67431  -0.66529  -0.63287
  Beta  occ. eigenvalues --   -0.62865  -0.60618  -0.56490  -0.56073  -0.55639
  Beta  occ. eigenvalues --   -0.54716  -0.53096  -0.51948  -0.50650  -0.49943
  Beta  occ. eigenvalues --   -0.48876  -0.48279  -0.47822  -0.46879  -0.46538
  Beta  occ. eigenvalues --   -0.45718  -0.43736  -0.43227  -0.42734  -0.42072
  Beta  occ. eigenvalues --   -0.41665  -0.41028  -0.40497  -0.40123  -0.38935
  Beta  occ. eigenvalues --   -0.37743  -0.37244  -0.36711  -0.36152  -0.34722
  Beta  occ. eigenvalues --   -0.34410  -0.32576  -0.30868  -0.29311  -0.27793
  Beta  occ. eigenvalues --   -0.27123  -0.24232  -0.23326  -0.21154
  Beta virt. eigenvalues --   -0.15677  -0.13025  -0.12217  -0.11047  -0.07821
  Beta virt. eigenvalues --   -0.07652  -0.05515  -0.04902   0.00475   0.01174
  Beta virt. eigenvalues --    0.01562   0.02028   0.02881   0.03482   0.03706

 Mulliken atomic charges:
              1
     1  C   -0.562661
     2  C    0.173625
     3  O   -0.441947
     4  H    0.417015
     5  C   -0.038092
     6  O   -0.418859
     7  H    0.423585
     8  C   -0.357198
     9  O   -0.351987
    10  H    0.448713
    11  C    0.388321
    12  O    0.096227
    13  C    0.301362
    14  O    0.002073
    15  C    0.327916
    16  C    0.201425
    17  O   -0.443070
    18  H    0.431414
    19  C   -0.043417
    20  O   -0.414983
    21  H    0.411794
    22  C   -0.369967
    23  O   -0.408822
    24  H    0.420289
    25  C   -0.253204
    26  O    0.017123
    27  C    0.098067
    28  O   -0.461657
    29  H    0.406914
 Sum of Mulliken atomic charges =   0.00000

 Dipole moment (field-independent basis, Debye):
    X=             -0.7820    Y=              1.9934    Z=              2.5354  Tot=              3.3187
 Quadrupole moment (field-independent basis, Debye-Ang):
   XX=           -127.5325   YY=           -104.4126   ZZ=           -126.6501
   XY=              1.4013   XZ=             21.8010   YZ=             -2.8408

  Exact polarizability: 598.287 -52.396 768.788   0.795  29.075 197.395
 Approx polarizability: 528.492  18.150 771.961  32.989  31.171 246.662

 ******    3 imaginary frequencies (negative Signs) ******

                     1                      2                      3
                     A                      A                      A
 Frequencies --  -947.5029              -376.1613               -69.5578
 Red. masses --     9.5804                 1.1324                 5.7902
 Frc consts  --     5.0675                 0.0944                 0.0165
 IR Inten    -- 10301.8830               248.7505               612.0978
 Raman Activ --627041.9417               831.2464               321.6903

                     4                      5                      6
                     A                      A                      A
 Frequencies --    89.9326                93.1838                94.0184
 Red. masses --     9.1028                 9.1326                 9.6757
 Frc consts  --     0.0434                 0.0467                 0.0504
 IR Inten    --    11.9455                 6.2327                10.9095
 Raman Activ --   111.9640               358.4848                86.4512

                     7                      8                      9
                     A                      A                      A
 Frequencies --   126.6637               133.0972               142.3435
 Red. masses --     8.6375                 9.0084                 9.0342
 Frc consts  --     0.0816                 0.0940                 0.1078
 IR Inten    --    20.9172                 6.4819                30.8539
 Raman Activ --  1210.4857              1164.4383               536.8484

                    10                     11                     12
                     A                      A                      A
 Frequencies --   171.8529               173.4065               193.8639
 Red. masses --     8.8060                 8.2715                 8.0970
 Frc consts  --     0.1532                 0.1465                 0.1793
 IR Inten    --    43.7243                 3.4264               105.3757
 Raman Activ --   157.7292                96.0316               887.3260

                    13                     14                     15
                     A                      A                      A
 Frequencies --   201.8621               213.5796               246.9924
 Red. masses --     7.8225                 9.0256                 8.7301
 Frc consts  --     0.1878                 0.2426                 0.3138
 IR Inten    --    70.5515                41.5026                 9.0008
 Raman Activ --   791.7616               302.3359               113.8326

                    16                     17                     18
                     A                      A                      A
 Frequencies --   249.1444               273.2760               300.0149
 Red. masses --    11.3636                 8.0032                 6.3784
 Frc consts  --     0.4156                 0.3521                 0.3383
 IR Inten    --   227.5873               140.7800               329.7152
 Raman Activ --  8486.1851               553.5098               757.1972

                    19                     20                     21
                     A                      A                      A
 Frequencies --   303.7007               319.3840               324.3869
 Red. masses --     7.3138                 6.6318                 6.0775
 Frc consts  --     0.3975                 0.3986                 0.3768
 IR Inten    --    79.1219                21.8720               103.4194
 Raman Activ --   302.1119               562.7609              1059.4473

                    22                     23                     24
                     A                      A                      A
 Frequencies --   334.3936               337.3365               357.6813
 Red. masses --     9.0628                 9.6648                 8.5865
 Frc consts  --     0.5971                 0.6480                 0.6472
 IR Inten    --    94.3830                 5.3578                20.4375
 Raman Activ --   291.2479               651.1404               618.6122

                    25                     26                     27
                     A                      A                      A
 Frequencies --   394.0645               411.5524               437.7640
 Red. masses --     7.7986                 7.6920                10.3351
 Frc consts  --     0.7135                 0.7676                 1.1669
 IR Inten    --   100.8363               301.3795               148.7077
 Raman Activ --  1462.2488               469.2433              2230.2629

                    28                     29                     30
                     A                      A                      A
 Frequencies --   461.9873               482.4977               495.8035
 Red. masses --     1.8161                 7.1575                10.9800
 Frc consts  --     0.2284                 0.9818                 1.5903
 IR Inten    --   133.7845               269.0994                38.5685
 Raman Activ --  2322.3958              2517.2732              8487.5968

                    31                     32                     33
                     A                      A                      A
 Frequencies --   511.3434               528.3300               542.7660
 Red. masses --     8.2695                 9.4931                 9.5788
 Frc consts  --     1.2740                 1.5612                 1.6626
 IR Inten    --   570.3195               102.6202               153.7091
 Raman Activ --  3208.9352             51875.3827              3195.9204

                    34                     35                     36
                     A                      A                      A
 Frequencies --   559.4807               590.5510               595.7458
 Red. masses --     8.1102                 6.2851                 7.9900
 Frc consts  --     1.4957                 1.2914                 1.6708
 IR Inten    --   336.4106               272.6137               286.6021
 Raman Activ -- 40133.9490              3868.2800              7241.4726

                    37                     38                     39
                     A                      A                      A
 Frequencies --   599.0329               634.3377               650.3284
 Red. masses --     6.2655                 3.0777                 9.8177
 Frc consts  --     1.3247                 0.7296                 2.4464
 IR Inten    --   295.4071               172.9026               378.6050
 Raman Activ --  3020.3407             38189.7421               895.9545

                    40                     41                     42
                     A                      A                      A
 Frequencies --   660.4990               681.3427               686.8969
 Red. masses --     4.4284                 4.5669                 3.0949
 Frc consts  --     1.1383                 1.2491                 0.8604
 IR Inten    --   315.4465               196.4548               254.2771
 Raman Activ --  2573.7866             12291.1463             23594.9756

                    43                     44                     45
                     A                      A                      A
 Frequencies --   707.4892               720.0994               726.4160
 Red. masses --     4.7305                 1.8245                 2.1188
 Frc consts  --     1.3951                 0.5574                 0.6587
 IR Inten    --   845.0392               162.2126               375.6256
 Raman Activ --  6522.8372             15196.2850             39984.7504

                    46                     47                     48
                     A                      A                      A
 Frequencies --   752.1895               778.7963               786.0752
 Red. masses --     1.6624                10.0918                 4.9781
 Frc consts  --     0.5542                 3.6064                 1.8123
 IR Inten    --   209.3368               573.8174                64.5394
 Raman Activ --   895.8064             75624.0357             28908.4207

                    49                     50                     51
                     A                      A                      A
 Frequencies --   807.9067               813.9087               836.0038
 Red. masses --     2.8417                 5.7167                 3.2466
 Frc consts  --     1.0928                 2.2313                 1.3369
 IR Inten    --   337.9937               517.0763               459.6107
 Raman Activ --  6466.4001              2399.3169              9588.9339

                    52                     53                     54
                     A                      A                      A
 Frequencies --   839.0016               857.2963               860.8570
 Red. masses --     1.8235                 5.4197                 2.5593
 Frc consts  --     0.7563                 2.3469                 1.1175
 IR Inten    --   205.4979               770.4910               136.9455
 Raman Activ --   951.2990              1962.9309               770.8730

                    55                     56                     57
                     A                      A                      A
 Frequencies --   873.2944               901.2114               918.5623
 Red. masses --     4.4750                 3.9168                 8.5233
 Frc consts  --     2.0108                 1.8743                 4.2372
 IR Inten    --   282.0669               480.2709              1150.7174
 Raman Activ --  2581.5082             18054.9037              2063.0166

                    58                     59                     60
                     A                      A                      A
 Frequencies --   943.7759               963.1103               975.9584
 Red. masses --    11.0755                 7.6135                 9.2467
 Frc consts  --     5.8123                 4.1609                 5.1892
 IR Inten    --   538.9682               257.8931               404.0080
 Raman Activ --  1048.0245              6729.4905              5923.6195

                    61                     62                     63
                     A                      A                      A
 Frequencies --  1010.9004              1014.6189              1039.5139
 Red. masses --     5.4658                 7.0713                 5.4606
 Frc consts  --     3.2909                 4.2890                 3.4766
 IR Inten    --   885.2316                76.8580               623.6773
 Raman Activ -- 25166.8237            106036.1243               500.1122

                    64                     65                     66
                     A                      A                      A
 Frequencies --  1057.0227              1070.0406              1092.7175
 Red. masses --     9.4733                 7.0161                 5.0362
 Frc consts  --     6.2362                 4.7331                 3.5430
 IR Inten    --   384.2890                61.5996               322.0682
 Raman Activ -- 26877.0969             27604.3724             20820.2534

                    67                     68                     69
                     A                      A                      A
 Frequencies --  1130.6476              1200.5692              1227.2401
 Red. masses --     5.7008                 1.2137                 1.6615
 Frc consts  --     4.2938                 1.0307                 1.4744
 IR Inten    --    46.6203                33.9032                36.2071
 Raman Activ --  3013.3845               213.6723               534.2279

                    70                     71                     72
                     A                      A                      A
 Frequencies --  1282.1319              1337.1624              1388.8684
 Red. masses --     1.1592                 1.1880                 1.3243
 Frc consts  --     1.1227                 1.2516                 1.5051
 IR Inten    --   175.9924               102.2353               122.2608
 Raman Activ -- 73074.4182             18990.6249               207.2620

                    73                     74                     75
                     A                      A                      A
 Frequencies --  1400.3753              1453.3764              3313.0404
 Red. masses --     1.2540                 1.2561                 1.0672
 Frc consts  --     1.4489                 1.5632                 6.9016
 IR Inten    --    75.1094               117.6871               669.5007
 Raman Activ -- 23525.1637               891.8931             12868.7695

                    76                     77                     78
                     A                      A                      A
 Frequencies --  3361.3143              3362.3753              3363.8169
 Red. masses --     1.0651                 1.0655                 1.0662
 Frc consts  --     7.0900                 7.0970                 7.1082
 IR Inten    --   527.3890               133.9869               415.3090
 Raman Activ --   199.0202              2463.4393               174.8129

                    79                     80                     81
                     A                      A                      A
 Frequencies --  3368.4944              3374.3766              3877.8518
 Red. masses --     1.0663                 1.0680                 1.0668
 Frc consts  --     7.1283                 7.1650                 9.4518
 IR Inten    --   462.5935               587.7776               450.2679
 Raman Activ --  5297.7379              2322.1753              1371.7903

 - Thermochemistry -
 -------------------
 Temperature   298.150 Kelvin.  Pressure   1.00000 Atm.
 Atom     1 has atomic number  6 and mass  12.00000

 Molecular mass:   311.00392 amu.
 Principal axes and moments of inertia in atomic units:
                           1         2         3
     Eigenvalues --  4601.194879731.85479**********
           X            0.99999   0.00270   0.00197
           Y           -0.00270   1.00000  -0.00006
           Z           -0.00197   0.00005   1.00000
 This molecule is an asymmetric top.
 Rotational symmetry number  1.
 Warning -- assumption of classical behavior for rotation
           may cause significant error
 Rotational temperatures (Kelvin)      0.01882     0.00890     0.00613
 Rotational constants (GHZ):           0.39223     0.18545     0.12767
    3 imaginary frequencies ignored.
 Zero-point vibrational energy     421042.7 (Joules/Mol)
                                  100.63162 (Kcal/Mol)
 Warning -- explicit consideration of  34 degrees of freedom as
           vibrations may cause significant error
 Vibrational temperatures:    129.39   134.07   135.27   182.24   191.50
          (Kelvin)            204.80   247.26   249.49   278.93   290.43
                              307.29   355.37   358.46   393.18   431.65
                              436.96   459.52   466.72   481.12   485.35
                              514.62   566.97   592.13   629.84   664.70
                              694.21   713.35   735.71   760.15   780.92
                              804.97   849.67   857.14   861.87   912.67
                              935.68   950.31   980.30   988.29  1017.92
                             1036.06  1045.15  1082.23  1120.51  1130.99
                             1162.40  1171.03  1202.82  1207.13  1233.46
                             1238.58  1256.47  1296.64  1321.60  1357.88
                             1385.70  1404.18  1454.46  1459.81  1495.63
                             1520.82  1539.55  1572.17  1626.75  1727.35
                             1765.72  1844.70  1923.88  1998.27  2014.83
                             2091.08  4766.72  4836.18  4837.70  4839.78
                             4846.51  4854.97  5579.36

 Zero-point correction=                           0.160367 (Hartree/Particle)
 Thermal correction to Energy=                    0.179604
 Thermal correction to Enthalpy=                  0.180548
 Thermal correction to Gibbs Free Energy=         0.114790
 Sum of electronic and zero-point Energies=          -1212.951416
 Sum of electronic and thermal Energies=             -1212.932178
 Sum of electronic and thermal Enthalpies=           -1212.931234
 Sum of electronic and thermal Free Energies=        -1212.996992

                     E (Thermal)             CV                S
                      KCal/Mol        Cal/Mol-Kelvin    Cal/Mol-Kelvin
 Total                  112.703             78.026            138.400
 Electronic               0.000              0.000              1.377
 Translational            0.889              2.981             43.100
 Rotational               0.889              2.981             34.803
 Vibrational            110.926             72.065             59.119
 Vibration     1          0.602              1.956              3.662
 Vibration     2          0.602              1.954              3.592
 Vibration     3          0.603              1.953              3.575
 Vibration     4          0.611              1.926              2.996
 Vibration     5          0.613              1.920              2.901
 Vibration     6          0.616              1.911              2.772
 Vibration     7          0.626              1.877              2.415
 Vibration     8          0.627              1.875              2.398
 Vibration     9          0.635              1.848              2.191
 Vibration    10          0.639              1.837              2.116
 Vibration    11          0.644              1.820              2.013
 Vibration    12          0.661              1.768              1.752
 Vibration    13          0.662              1.764              1.737
 Vibration    14          0.676              1.723              1.575
 Vibration    15          0.693              1.674              1.417
 Vibration    16          0.695              1.667              1.396
 Vibration    17          0.705              1.636              1.313
 Vibration    18          0.709              1.627              1.288
 Vibration    19          0.716              1.607              1.239
 Vibration    20          0.718              1.601              1.225
 Vibration    21          0.733              1.559              1.132
 Vibration    22          0.761              1.483              0.985
 Vibration    23          0.776              1.445              0.921
 Vibration    24          0.798              1.388              0.834
 Vibration    25          0.820              1.334              0.760
 Vibration    26          0.839              1.289              0.703
 Vibration    27          0.851              1.259              0.669
 Vibration    28          0.866              1.225              0.630
 Vibration    29          0.883              1.187              0.591
 Vibration    30          0.898              1.156              0.559
 Vibration    31          0.915              1.119              0.525
 Vibration    32          0.948              1.052              0.466
 Vibration    33          0.954              1.041              0.457
 Vibration    34          0.957              1.034              0.451

 Normal termination of Gaussian 09 at Mon Sep 21 11:22:34 2015.
