 Gaussian 09, Revision B.01,
 Gaussian 09:  EM64L-G09RevB.01 12-Aug-2010

 -------------------------------------------------
 # freq=raman b3lyp/6-31+g(2d,p) geom=connectivity
 -------------------------------------------------

 -----------------
 550 9775/9775.com
 -----------------
 Symbolic Z-matrix:
 Charge =  0 Multiplicity = 1

                         Standard orientation:
 ---------------------------------------------------------------------
 Center     Atomic      Atomic             Coordinates (Angstroms)
 Number     Number       Type             X           Y           Z
 ---------------------------------------------------------------------
      1          8           0       -4.828239   -0.874606    0.811587
      2          6           0       -3.860353   -0.264033   -0.054356
      3          6           0       -3.363904    1.105480    0.379709
      4          8           0       -4.425480    1.984843   -0.015933
      5          1           0       -5.215117    1.581112    0.446039
      6          6           0       -2.055058    1.638205   -0.180178
      7          8           0       -1.528789    2.626700    0.716690
      8          1           0       -2.149698    3.406149    0.800555
      9          6           0       -2.956644   -2.542386   -0.533437
     10          8           0       -1.879378   -3.483605   -0.413942
     11          1           0       -2.130036   -4.399781   -0.726610
     12          6           0       -2.641899   -1.168060    0.033574
     13          8           0       -1.474550   -0.670226   -0.635794
     14          6           0       -0.993022    0.556062   -0.067800
     15          8           0        0.188041    0.634206   -0.879194
     16          6           0        1.402241    0.377290   -0.159319
     17          6           0        1.827294   -1.081193   -0.199107
     18          8           0        0.878215   -2.088392    0.180241
     19          1           0        0.043904   -2.112844   -0.371177
     20          6           0        3.110190   -1.172148    0.611554
     21          8           0        3.580138   -2.454130    1.052437
     22          1           0        2.903368   -2.968276    1.580467
     23          6           0        2.379800    2.584336    0.113223
     24          8           0        1.368177    3.586123   -0.065875
     25          1           0        0.537314    3.031706   -0.020162
     26          6           0        2.485746    1.300083   -0.693609
     27          8           0        3.807909    0.884581   -0.322639
     28          6           0        4.184447   -0.497003   -0.225812
     29          8           0        5.540143   -0.617413    0.226918
     30          1           0        6.133311   -0.269555   -0.442967
     31          1           0        4.136801   -0.916273   -1.209093
     32          1           0        2.968482   -0.575060    1.488084
     33          1           0        2.092154   -1.289586   -1.214647
     34          1           0        1.232197    0.635769    0.864973
     35          1           0        2.393802    1.476693   -1.744920
     36          1           0        3.316871    3.086581   -0.007388
     37          1           0        2.319584    2.284372    1.138550
     38          1           0       -5.690850   -0.856266    0.390677
     39          1           0       -3.201165   -2.435019   -1.569574
     40          1           0       -3.809683   -2.934813   -0.020382
     41          1           0       -2.398896   -1.287724    1.068721
     42          1           0       -4.226016   -0.228921   -1.059323
     43          1           0       -3.298049    1.114523    1.447643
     44          1           0       -2.154713    2.007726   -1.179390
     45          1           0       -0.726085    0.405035    0.957303
 ---------------------------------------------------------------------

 SCF Done:  E(RB3LYP) =  -1297.97090818     A.U. after   13 cycles

 The electronic state is 1-A.
 Alpha  occ. eigenvalues --  -19.20023 -19.18878 -19.18396 -19.17922 -19.17908
 Alpha  occ. eigenvalues --  -19.16852 -19.15873 -19.15808 -19.14541 -19.14297
 Alpha  occ. eigenvalues --  -19.14180 -10.31104 -10.29056 -10.27487 -10.27197
 Alpha  occ. eigenvalues --  -10.26746 -10.25697 -10.24803 -10.24688 -10.24615
 Alpha  occ. eigenvalues --  -10.23946 -10.23759 -10.21545  -1.10462  -1.08128
 Alpha  occ. eigenvalues --   -1.06880  -1.06299  -1.04649  -1.03926  -1.02720
 Alpha  occ. eigenvalues --   -1.01729  -1.01242  -1.00502  -0.99693  -0.82482
 Alpha  occ. eigenvalues --   -0.81748  -0.79359  -0.78591  -0.72373  -0.69230
 Alpha  occ. eigenvalues --   -0.67666  -0.65200  -0.63450  -0.62511  -0.61668
 Alpha  occ. eigenvalues --   -0.60142  -0.57837  -0.57075  -0.54830  -0.54564
 Alpha  occ. eigenvalues --   -0.53900  -0.53768  -0.52902  -0.52078  -0.50503
 Alpha  occ. eigenvalues --   -0.50265  -0.49840  -0.48732  -0.48266  -0.46807
 Alpha  occ. eigenvalues --   -0.46067  -0.45035  -0.44274  -0.43845  -0.43632
 Alpha  occ. eigenvalues --   -0.43135  -0.41429  -0.41020  -0.40271  -0.39739
 Alpha  occ. eigenvalues --   -0.39186  -0.38007  -0.37206  -0.36882  -0.36525
 Alpha  occ. eigenvalues --   -0.35746  -0.35209  -0.34155  -0.34005  -0.33652
 Alpha  occ. eigenvalues --   -0.32857  -0.32339  -0.30995  -0.30756  -0.29836
 Alpha  occ. eigenvalues --   -0.29580  -0.28468  -0.27502  -0.27231  -0.26380
 Alpha  occ. eigenvalues --   -0.26337
 Alpha virt. eigenvalues --   -0.03860  -0.01886  -0.01111   0.00105   0.00486
 Alpha virt. eigenvalues --    0.01038   0.01420   0.01979   0.02732   0.03298
 Alpha virt. eigenvalues --    0.03548   0.04452   0.04621   0.05108   0.05818

 Mulliken atomic charges:
              1
     1  O   -0.535160
     2  C   -0.156426
     3  C    0.271030
     4  O   -0.551588
     5  H    0.329130
     6  C    0.017920
     7  O   -0.571875
     8  H    0.361719
     9  C   -0.389384
    10  O   -0.540030
    11  H    0.348514
    12  C    0.347134
    13  O   -0.286299
    14  C    0.092795
    15  O   -0.275777
    16  C    0.139111
    17  C    0.306883
    18  O   -0.569396
    19  H    0.391469
    20  C   -0.026103
    21  O   -0.550136
    22  H    0.345373
    23  C   -0.255468
    24  O   -0.499280
    25  H    0.361588
    26  C   -0.079810
    27  O   -0.270878
    28  C    0.272004
    29  O   -0.496250
    30  H    0.324122
    31  H    0.107312
    32  H    0.114594
    33  H    0.096949
    34  H    0.093854
    35  H    0.125019
    36  H    0.146279
    37  H    0.134524
    38  H    0.336179
    39  H    0.137259
    40  H    0.157669
    41  H    0.123474
    42  H    0.137341
    43  H    0.145340
    44  H    0.152570
    45  H    0.136705
 Sum of Mulliken atomic charges =   0.00000

 Dipole moment (field-independent basis, Debye):
    X=             -8.5576    Y=             -1.7049    Z=             -1.4622  Tot=              8.8474
 Quadrupole moment (field-independent basis, Debye-Ang):
   XX=           -118.2763   YY=           -146.2543   ZZ=           -136.5285
   XY=              9.4195   XZ=             -7.7503   YZ=              6.9373

  Exact polarizability: 229.163  -2.303 197.581  -0.436  -0.151 144.940
 Approx polarizability: 274.125  -1.870 260.066   0.587  -2.336 239.658

 ******    7 imaginary frequencies (negative Signs) ******

                     1                      2                      3
                     A                      A                      A
 Frequencies --  -234.4830              -228.0677              -197.4539
 Red. masses --     1.8660                 1.1252                 1.9909
 Frc consts  --     0.0604                 0.0345                 0.0457
 IR Inten    --     5.7036               113.2330                 1.6796
 Raman Activ --     0.1037                 1.3514                 0.1671

                     4                      5                      6
                     A                      A                      A
 Frequencies --   -87.1607               -82.9843               -71.4031
 Red. masses --     1.5338                 5.2050                 5.9730
 Frc consts  --     0.0069                 0.0211                 0.0179
 IR Inten    --    86.2891                 3.8652                 4.5297
 Raman Activ --     0.5336                 0.0307                 0.0484

                     7                      8                      9
                     A                      A                      A
 Frequencies --   -27.1806                25.4707                50.3134
 Red. masses --     4.5037                 6.6296                 6.5725
 Frc consts  --     0.0020                 0.0025                 0.0098
 IR Inten    --    10.0506                 0.3336                 0.4015
 Raman Activ --     0.2160                 0.0759                 0.1280

                    10                     11                     12
                     A                      A                      A
 Frequencies --    67.4646                74.1345               124.9913
 Red. masses --     6.6691                 6.3781                 6.2872
 Frc consts  --     0.0179                 0.0207                 0.0579
 IR Inten    --     0.4916                 4.8516                 5.3493
 Raman Activ --     0.0683                 0.0857                 0.2395

                    13                     14                     15
                     A                      A                      A
 Frequencies --   148.4883               153.5335               188.3086
 Red. masses --     6.0226                 6.2199                 6.1904
 Frc consts  --     0.0782                 0.0864                 0.1293
 IR Inten    --     2.0196                 1.5753                 3.0167
 Raman Activ --     0.0612                 0.4017                 1.9310

                    16                     17                     18
                     A                      A                      A
 Frequencies --   192.2256               233.1436               252.5298
 Red. masses --     6.2828                 5.4651                 5.3343
 Frc consts  --     0.1368                 0.1750                 0.2004
 IR Inten    --     1.7103                 0.4205                 6.1088
 Raman Activ --     0.6085                 0.8272                 0.8471

                    19                     20                     21
                     A                      A                      A
 Frequencies --   270.4784               288.6058               291.7539
 Red. masses --     3.8924                 5.2399                 5.8785
 Frc consts  --     0.1678                 0.2571                 0.2948
 IR Inten    --    15.3995                 6.9669                 1.2354
 Raman Activ --     0.2107                 0.5765                 0.0839

                    22                     23                     24
                     A                      A                      A
 Frequencies --   309.1863               314.2819               330.3438
 Red. masses --     5.6299                 5.4158                 5.6221
 Frc consts  --     0.3171                 0.3152                 0.3615
 IR Inten    --     1.2448                 8.2313                 2.2837
 Raman Activ --     0.7142                 1.0391                 1.7954

                    25                     26                     27
                     A                      A                      A
 Frequencies --   355.7241               377.8167               382.3128
 Red. masses --     5.3985                 6.9640                 3.7764
 Frc consts  --     0.4025                 0.5857                 0.3252
 IR Inten    --     4.1980                 2.8026                 5.9373
 Raman Activ --     6.4341                 3.1578                 0.4386

                    28                     29                     30
                     A                      A                      A
 Frequencies --   412.3033               428.2046               433.0809
 Red. masses --     6.0859                 4.3192                 6.0170
 Frc consts  --     0.6096                 0.4666                 0.6649
 IR Inten    --     0.3993                 0.5506                 2.9298
 Raman Activ --     2.8644                 5.6626                 2.1843

                    31                     32                     33
                     A                      A                      A
 Frequencies --   440.5608               485.5321               505.3568
 Red. masses --     5.7228                 4.2638                 3.7015
 Frc consts  --     0.6544                 0.5922                 0.5570
 IR Inten    --     9.9682                 4.0700                 5.7446
 Raman Activ --     4.2451                 1.1748                 0.6970

                    34                     35                     36
                     A                      A                      A
 Frequencies --   516.0694               555.6833               577.8467
 Red. masses --     3.1901                 4.7439                 4.6597
 Frc consts  --     0.5006                 0.8631                 0.9167
 IR Inten    --    16.0269                 6.6043                10.9979
 Raman Activ --     2.6028                 1.4773                 3.1027

                    37                     38                     39
                     A                      A                      A
 Frequencies --   592.9503               613.8940               622.3196
 Red. masses --     3.7909                 3.3189                 3.3548
 Frc consts  --     0.7853                 0.7369                 0.7655
 IR Inten    --    19.2476                57.2146                10.0664
 Raman Activ --     0.3171                 0.9848                 0.4872

                    40                     41                     42
                     A                      A                      A
 Frequencies --   649.2046               677.2926               681.3767
 Red. masses --     3.4985                 1.1979                 2.8938
 Frc consts  --     0.8688                 0.3238                 0.7916
 IR Inten    --    34.0052                80.9749                27.0118
 Raman Activ --     0.4786                 1.6096                 1.0839

                    43                     44                     45
                     A                      A                      A
 Frequencies --   687.1778               730.8531               755.7599
 Red. masses --     1.1163                 1.0932                 1.0789
 Frc consts  --     0.3106                 0.3440                 0.3631
 IR Inten    --   105.5653               151.7790                93.4476
 Raman Activ --     1.4014                 3.2243                 1.1475

                    46                     47                     48
                     A                      A                      A
 Frequencies --   776.2814               789.4055               856.6497
 Red. masses --     1.1341                 1.0974                 2.3975
 Frc consts  --     0.4027                 0.4029                 1.0366
 IR Inten    --    52.8792               106.9333                 0.7292
 Raman Activ --     0.8615                 1.5566                 4.6225

                    49                     50                     51
                     A                      A                      A
 Frequencies --   877.7602               918.1516               936.5383
 Red. masses --     1.8650                 5.6208                 5.9997
 Frc consts  --     0.8466                 2.7917                 3.1005
 IR Inten    --    13.1239               122.8414                74.6823
 Raman Activ --     2.4486                 1.3081                 2.3958

                    52                     53                     54
                     A                      A                      A
 Frequencies --   955.1785               981.9438               987.4260
 Red. masses --     6.6151                 4.1786                 6.1371
 Frc consts  --     3.5559                 2.3739                 3.5255
 IR Inten    --    83.3113               105.6870                20.2004
 Raman Activ --     1.4893                 4.4800                 2.1139

                    55                     56                     57
                     A                      A                      A
 Frequencies --   993.9836              1017.7297              1023.7064
 Red. masses --     4.8283                 5.4208                 5.6493
 Frc consts  --     2.8106                 3.3081                 3.4881
 IR Inten    --   114.7810               154.4055               242.8185
 Raman Activ --     1.6178                 3.1085                 1.9456

                    58                     59                     60
                     A                      A                      A
 Frequencies --  1041.9928              1051.4271              1053.5332
 Red. masses --     3.6381                 3.0864                 4.7450
 Frc consts  --     2.3273                 2.0103                 3.1030
 IR Inten    --   295.4554                96.2620                22.6945
 Raman Activ --     0.9706                 5.6057                 2.6476

                    61                     62                     63
                     A                      A                      A
 Frequencies --  1054.6909              1066.4624              1085.2267
 Red. masses --     2.4828                 5.2075                 3.3153
 Frc consts  --     1.6272                 3.4896                 2.3005
 IR Inten    --   107.6234                22.6613                38.7487
 Raman Activ --     6.3645                24.3318                 3.1071

                    64                     65                     66
                     A                      A                      A
 Frequencies --  1088.1506              1092.8638              1111.4258
 Red. masses --     3.9838                 3.8232                 2.3474
 Frc consts  --     2.7793                 2.6904                 1.7084
 IR Inten    --    82.9638                24.7672                 5.9527
 Raman Activ --     1.2096                 6.4488                 4.0748

                    67                     68                     69
                     A                      A                      A
 Frequencies --  1115.4852              1120.9288              1124.0553
 Red. masses --     2.2463                 2.8184                 2.6200
 Frc consts  --     1.6468                 2.0865                 1.9504
 IR Inten    --    28.4415                55.6400                83.8635
 Raman Activ --     4.7068                 3.8812                 5.4090

                    70                     71                     72
                     A                      A                      A
 Frequencies --  1129.4525              1145.8045              1151.9358
 Red. masses --     2.5045                 2.9379                 2.3695
 Frc consts  --     1.8824                 2.2725                 1.8525
 IR Inten    --    30.6099                 2.7890                 3.9456
 Raman Activ --     3.3264                 4.3966                 1.8723

                    73                     74                     75
                     A                      A                      A
 Frequencies --  1172.4105              1177.3084              1184.1533
 Red. masses --     1.6432                 2.1474                 2.0346
 Frc consts  --     1.3308                 1.7536                 1.6809
 IR Inten    --     4.6772                49.0747                33.4564
 Raman Activ --     1.0556                 0.7405                 3.2829

                    76                     77                     78
                     A                      A                      A
 Frequencies --  1203.5023              1203.8650              1220.5198
 Red. masses --     1.2101                 1.4774                 1.4689
 Frc consts  --     1.0326                 1.2616                 1.2893
 IR Inten    --    19.6956                 3.7874                 4.1768
 Raman Activ --     1.2163                 1.3790                 1.1129

                    79                     80                     81
                     A                      A                      A
 Frequencies --  1233.7880              1238.0835              1248.9043
 Red. masses --     1.1958                 1.2515                 1.2423
 Frc consts  --     1.0725                 1.1303                 1.1417
 IR Inten    --     4.6241                25.1370                 4.1706
 Raman Activ --     2.1990                 1.9904                 0.5367

                    82                     83                     84
                     A                      A                      A
 Frequencies --  1260.3218              1265.6039              1273.4612
 Red. masses --     1.1920                 1.1582                 1.3338
 Frc consts  --     1.1155                 1.0930                 1.2745
 IR Inten    --    10.5583                12.2731                18.8421
 Raman Activ --     4.2049                 5.4976                 1.8850

                    85                     86                     87
                     A                      A                      A
 Frequencies --  1298.0466              1300.9940              1313.9193
 Red. masses --     1.2577                 1.1748                 1.4028
 Frc consts  --     1.2486                 1.1715                 1.4269
 IR Inten    --    12.3417                 8.1380                25.9714
 Raman Activ --     1.3358                 2.8059                 1.8877

                    88                     89                     90
                     A                      A                      A
 Frequencies --  1317.2820              1321.8206              1327.3290
 Red. masses --     1.3174                 1.2479                 1.3080
 Frc consts  --     1.3469                 1.2846                 1.3577
 IR Inten    --     2.9005                53.7982                35.1455
 Raman Activ --     3.3050                 1.6229                 8.1762

                    91                     92                     93
                     A                      A                      A
 Frequencies --  1339.9603              1341.9410              1350.1013
 Red. masses --     1.2599                 1.6285                 1.4221
 Frc consts  --     1.3328                 1.7279                 1.5272
 IR Inten    --    17.5879                 3.4417                 5.1627
 Raman Activ --     3.2472                 3.5346                 2.2480

                    94                     95                     96
                     A                      A                      A
 Frequencies --  1363.2524              1365.0637              1383.0104
 Red. masses --     1.2701                 1.3042                 1.1886
 Frc consts  --     1.3907                 1.4318                 1.3394
 IR Inten    --    27.7755                57.5071                 1.2111
 Raman Activ --     2.0399                 1.7885                 0.6584

                    97                     98                     99
                     A                      A                      A
 Frequencies --  1386.8947              1397.6107              1410.5186
 Red. masses --     1.4462                 1.2216                 1.2088
 Frc consts  --     1.6390                 1.4058                 1.4169
 IR Inten    --     3.9564                13.3387                15.0357
 Raman Activ --     6.7113                 5.7692                 4.7274

                   100                    101                    102
                     A                      A                      A
 Frequencies --  1417.9396              1434.9368              1437.7708
 Red. masses --     1.3990                 1.4686                 1.4482
 Frc consts  --     1.6572                 1.7816                 1.7638
 IR Inten    --     7.8831                13.4277                 9.6645
 Raman Activ --     7.2889                 2.5963                 1.6002

                   103                    104                    105
                     A                      A                      A
 Frequencies --  1447.2934              1468.7894              1478.2320
 Red. masses --     1.5980                 1.0729                 1.0790
 Frc consts  --     1.9721                 1.3637                 1.3892
 IR Inten    --    32.3615                 7.2196                 4.1661
 Raman Activ --     2.5332                 5.3280                 4.4833

                   106                    107                    108
                     A                      A                      A
 Frequencies --  1481.4757              1516.8022              3249.4152
 Red. masses --     1.3560                 1.1523                 1.0785
 Frc consts  --     1.7534                 1.5620                 6.7092
 IR Inten    --    63.9213                56.7992                 7.1877
 Raman Activ --     2.5850                 3.7236                 4.8999

                   109                    110                    111
                     A                      A                      A
 Frequencies --  3255.4438              3260.6756              3261.0262
 Red. masses --     1.0706                 1.0628                 1.0753
 Frc consts  --     6.6848                 6.6576                 6.7371
 IR Inten    --    34.6455                26.0880                25.1641
 Raman Activ --    60.7672                45.6317               124.6219

                   112                    113                    114
                     A                      A                      A
 Frequencies --  3266.6502              3278.0761              3281.4153
 Red. masses --     1.0799                 1.0824                 1.0863
 Frc consts  --     6.7893                 6.8530                 6.8914
 IR Inten    --     8.9617                 3.7782                65.5560
 Raman Activ --   168.5774                34.5697                 5.9429

                   115                    116                    117
                     A                      A                      A
 Frequencies --  3283.5009              3291.3714              3296.3001
 Red. masses --     1.0842                 1.0855                 1.0856
 Frc consts  --     6.8872                 6.9282                 6.9497
 IR Inten    --     8.4355                10.1487                39.1037
 Raman Activ --    60.8028               124.8372                55.6054

                   118                    119                    120
                     A                      A                      A
 Frequencies --  3298.9805              3312.6264              3318.4402
 Red. masses --     1.0871                 1.0872                 1.1028
 Frc consts  --     6.9710                 7.0292                 7.1551
 IR Inten    --    19.2571                14.2975                23.9747
 Raman Activ --     5.4879                23.4911               130.4720

                   121                    122                    123
                     A                      A                      A
 Frequencies --  3318.6699              3354.1185              3359.3819
 Red. masses --     1.1041                 1.0675                 1.0652
 Frc consts  --     7.1647                 7.0755                 7.0828
 IR Inten    --    79.5750               262.3387                35.7003
 Raman Activ --    22.0088               130.6720               111.0799

                   124                    125                    126
                     A                      A                      A
 Frequencies --  3362.9619              3369.5838              3371.3059
 Red. masses --     1.0669                 1.0669                 1.0675
 Frc consts  --     7.1090                 7.1372                 7.1486
 IR Inten    --   173.6051                51.1542                53.1582
 Raman Activ --   114.6994               102.3628               175.0893

                   127                    128                    129
                     A                      A                      A
 Frequencies --  3376.2973              3885.8198              3889.9432
 Red. masses --     1.0666                 1.0675                 1.0668
 Frc consts  --     7.1635                 9.4971                 9.5112
 IR Inten    --    54.3183                67.2986                70.7625
 Raman Activ --   106.6620               113.5840               132.1518

 - Thermochemistry -
 -------------------
 Temperature   298.150 Kelvin.  Pressure   1.00000 Atm.
 Atom     1 has atomic number  8 and mass  15.99491

 Molecular mass:   342.11621 amu.
 Principal axes and moments of inertia in atomic units:
                           1         2         3
     Eigenvalues --  4522.38369********************
           X            0.99997   0.00830  -0.00076
           Y           -0.00829   0.99994   0.00671
           Z            0.00082  -0.00670   0.99998
 This molecule is an asymmetric top.
 Rotational symmetry number  1.
 Warning -- assumption of classical behavior for rotation
           may cause significant error
 Rotational temperatures (Kelvin)      0.01915     0.00753     0.00566
 Rotational constants (GHZ):           0.39907     0.15690     0.11801
    7 imaginary frequencies ignored.
 Zero-point vibrational energy     974177.0 (Joules/Mol)
                                  232.83389 (Kcal/Mol)
 Warning -- explicit consideration of  31 degrees of freedom as
           vibrations may cause significant error
 Vibrational temperatures:     36.65    72.39    97.07   106.66   179.83
          (Kelvin)            213.64   220.90   270.93   276.57   335.44
                              363.33   389.16   415.24   419.77   444.85
                              452.18   475.29   511.81   543.59   550.06
                              593.21   616.09   623.11   633.87   698.57
                              727.09   742.51   799.50   831.39   853.12
                              883.26   895.38   934.06   974.47   980.35
                              988.69  1051.53  1087.37  1116.89  1135.78
                             1232.53  1262.90  1321.01  1347.47  1374.29
                             1412.80  1420.68  1430.12  1464.28  1472.88
                             1499.19  1512.77  1515.80  1517.46  1534.40
                             1561.40  1565.60  1572.39  1599.09  1604.93
                             1612.76  1617.26  1625.03  1648.56  1657.38
                             1686.84  1693.88  1703.73  1731.57  1732.09
                             1756.05  1775.14  1781.32  1796.89  1813.32
                             1820.92  1832.22  1867.60  1871.84  1890.43
                             1895.27  1901.80  1909.73  1927.90  1930.75
                             1942.49  1961.41  1964.02  1989.84  1995.43
                             2010.85  2029.42  2040.10  2064.55  2068.63
                             2082.33  2113.26  2126.84  2131.51  2182.34
                             4675.18  4683.85  4691.38  4691.88  4699.98
                             4716.41  4721.22  4724.22  4735.54  4742.63
                             4746.49  4766.12  4774.49  4774.82  4825.82
                             4833.40  4838.55  4848.07  4850.55  4857.73
                             5590.82  5596.75

 Zero-point correction=                           0.371044 (Hartree/Particle)
 Thermal correction to Energy=                    0.389511
 Thermal correction to Enthalpy=                  0.390455
 Thermal correction to Gibbs Free Energy=         0.324509
 Sum of electronic and zero-point Energies=          -1297.599864
 Sum of electronic and thermal Energies=             -1297.581397
 Sum of electronic and thermal Enthalpies=           -1297.580453
 Sum of electronic and thermal Free Energies=        -1297.646399

                     E (Thermal)             CV                S
                      KCal/Mol        Cal/Mol-Kelvin    Cal/Mol-Kelvin
 Total                  244.422             75.949            138.795
 Electronic               0.000              0.000              0.000
 Translational            0.889              2.981             43.384
 Rotational               0.889              2.981             35.030
 Vibrational            242.644             69.988             60.380
 Vibration     1          0.593              1.985              6.154
 Vibration     2          0.595              1.977              4.805
 Vibration     3          0.598              1.970              4.226
 Vibration     4          0.599              1.966              4.040
 Vibration     5          0.610              1.928              3.022
 Vibration     6          0.618              1.904              2.692
 Vibration     7          0.619              1.899              2.628
 Vibration     8          0.633              1.856              2.244
 Vibration     9          0.634              1.851              2.206
 Vibration    10          0.654              1.790              1.855
 Vibration    11          0.664              1.759              1.713
 Vibration    12          0.674              1.728              1.593
 Vibration    13          0.685              1.695              1.482
 Vibration    14          0.687              1.689              1.464
 Vibration    15          0.699              1.656              1.367
 Vibration    16          0.702              1.646              1.340
 Vibration    17          0.713              1.615              1.258
 Vibration    18          0.731              1.564              1.141
 Vibration    19          0.748              1.517              1.048
 Vibration    20          0.752              1.508              1.030
 Vibration    21          0.776              1.444              0.919
 Vibration    22          0.790              1.409              0.865
 Vibration    23          0.794              1.398              0.849
 Vibration    24          0.800              1.382              0.825
 Vibration    25          0.842              1.282              0.695
 Vibration    26          0.861              1.238              0.645
 Vibration    27          0.871              1.214              0.619
 Vibration    28          0.911              1.127              0.533
 Vibration    29          0.934              1.079              0.489
 Vibration    30          0.951              1.047              0.462
 Vibration    31          0.973              1.002              0.426

 Normal termination of Gaussian 09 at Mon Apr  4 20:47:21 2016.
