 Gaussian 09, Revision B.01,
 Gaussian 09:  EM64L-G09RevB.01 12-Aug-2010

 --------------------------------------------------
 # freq=raman b3lyp/6-31+g(2df,p) geom=connectivity
 --------------------------------------------------

 ------------
 290 9000.com
 ------------
 Symbolic Z-matrix:
 Charge =  0 Multiplicity = 1

                         Standard orientation:
 ---------------------------------------------------------------------
 Center     Atomic      Atomic             Coordinates (Angstroms)
 Number     Number       Type             X           Y           Z
 ---------------------------------------------------------------------
      1          8           0        5.016031   -0.496233   -0.225145
      2          6           0        3.679839   -0.141005    0.161573
      3          6           0        3.293427    1.244739   -0.326462
      4          8           0        4.257516    2.290345   -0.134513
      5          1           0        5.132829    1.919394   -0.445995
      6          6           0        1.901858    1.616109    0.160450
      7          8           0        1.290211    2.860743   -0.208340
      8          1           0        0.322036    2.992050    0.003550
      9          6           0        2.980296   -2.590153    0.330122
     10          8           0        4.216809   -3.209995   -0.050117
     11          1           0        4.136272   -4.198557    0.077709
     12          6           0        2.705135   -1.222910   -0.276040
     13          8           0        1.382940   -0.804911    0.091265
     14          6           0        0.947356    0.514220   -0.268078
     15          8           0       -0.241042    0.643798    0.525121
     16          6           0       -1.509462    0.266810   -0.029799
     17          6           0       -1.954003   -1.149631    0.298705
     18          8           0       -0.976640   -2.154878   -0.004187
     19          1           0       -0.101492   -1.759181    0.274333
     20          6           0       -3.311811   -1.515518   -0.277607
     21          8           0       -3.829750   -2.774512    0.176165
     22          1           0       -4.667041   -2.903711   -0.353560
     23          6           0       -2.370943    2.651424   -0.075253
     24          8           0       -1.249335    3.376624    0.447673
     25          1           0       -1.449416    4.356010    0.411610
     26          6           0       -2.646344    1.211083    0.324288
     27          8           0       -3.878336    0.820316   -0.299452
     28          6           0       -4.346995   -0.472277    0.108972
     29          8           0       -5.585949   -0.761356   -0.543964
     30          1           0        5.545939   -0.651240    0.560201
     31          1           0        3.658765   -0.113340    1.231008
     32          1           0        3.201685    1.148080   -1.388131
     33          1           0        2.750747   -1.309371   -1.341565
     34          1           0        2.181003   -3.244384    0.050815
     35          1           0        2.973159   -2.488891    1.395296
     36          1           0        0.722126    0.577473   -1.312190
     37          1           0        1.939271    1.599923    1.229673
     38          1           0       -1.397077    0.311068   -1.092960
     39          1           0       -2.785128    1.180366    1.384805
     40          1           0       -3.246279    3.214130    0.173842
     41          1           0       -2.277621    2.664161   -1.141099
     42          1           0       -2.074369   -1.173868    1.361637
     43          1           0       -3.233855   -1.542247   -1.344429
     44          1           0       -4.489130   -0.483724    1.169427
     45          1           0       -6.272176   -0.891018    0.114732
 ---------------------------------------------------------------------

 SCF Done:  E(RB3LYP) =  -1298.01848414     A.U. after   13 cycles

 The electronic state is 1-A.
 Alpha  occ. eigenvalues --  -19.19344 -19.18684 -19.18277 -19.18206 -19.17951
 Alpha  occ. eigenvalues --  -19.16670 -19.16412 -19.15816 -19.15459 -19.13525
 Alpha  occ. eigenvalues --  -19.12732 -10.30624 -10.30586 -10.26591 -10.25727
 Alpha  occ. eigenvalues --  -10.25582 -10.25568 -10.25191 -10.24505 -10.24495
 Alpha  occ. eigenvalues --  -10.24433 -10.24428 -10.24071  -1.09885  -1.09164
 Alpha  occ. eigenvalues --   -1.05905  -1.04976  -1.04120  -1.03477  -1.02723
 Alpha  occ. eigenvalues --   -1.02536  -1.01731  -1.00396  -0.99361  -0.82348
 Alpha  occ. eigenvalues --   -0.80572  -0.79418  -0.78589  -0.72035  -0.70079
 Alpha  occ. eigenvalues --   -0.67284  -0.64625  -0.63058  -0.62936  -0.61188
 Alpha  occ. eigenvalues --   -0.60131  -0.56368  -0.56182  -0.55384  -0.54712
 Alpha  occ. eigenvalues --   -0.54144  -0.53361  -0.52888  -0.51751  -0.51072
 Alpha  occ. eigenvalues --   -0.50607  -0.49904  -0.49813  -0.48823  -0.46818
 Alpha  occ. eigenvalues --   -0.46209  -0.45358  -0.44701  -0.43864  -0.43426
 Alpha  occ. eigenvalues --   -0.42609  -0.41661  -0.41403  -0.40155  -0.39217
 Alpha  occ. eigenvalues --   -0.38674  -0.37962  -0.37647  -0.36379  -0.35644
 Alpha  occ. eigenvalues --   -0.34958  -0.34882  -0.34701  -0.33752  -0.33250
 Alpha  occ. eigenvalues --   -0.32462  -0.31580  -0.30954  -0.30260  -0.29936
 Alpha  occ. eigenvalues --   -0.29210  -0.28972  -0.27891  -0.27316  -0.26615
 Alpha  occ. eigenvalues --   -0.26318
 Alpha virt. eigenvalues --   -0.02242  -0.01790  -0.01755  -0.00010   0.00377
 Alpha virt. eigenvalues --    0.01139   0.01937   0.02057   0.03126   0.03300
 Alpha virt. eigenvalues --    0.03740   0.04409   0.04771   0.05408   0.05579

 Mulliken atomic charges:
              1
     1  O   -0.451658
     2  C   -0.034189
     3  C   -0.033121
     4  O   -0.446443
     5  H    0.349750
     6  C   -0.061084
     7  O   -0.540517
     8  H    0.469969
     9  C   -0.309524
    10  O   -0.448134
    11  H    0.350881
    12  C   -0.073976
    13  O   -0.028087
    14  C    0.146267
    15  O   -0.034050
    16  C    0.093111
    17  C   -0.044208
    18  O   -0.459277
    19  H    0.400584
    20  C   -0.077727
    21  O   -0.434447
    22  H    0.348150
    23  C   -0.398128
    24  O   -0.493938
    25  H    0.372398
    26  C   -0.207816
    27  O   -0.058330
    28  C    0.021817
    29  O   -0.495574
    30  H    0.354368
    31  H    0.119125
    32  H    0.112353
    33  H    0.122819
    34  H    0.157254
    35  H    0.146673
    36  H    0.133965
    37  H    0.129396
    38  H    0.114405
    39  H    0.129159
    40  H    0.152063
    41  H    0.163215
    42  H    0.117584
    43  H    0.137735
    44  H    0.132918
    45  H    0.354268
 Sum of Mulliken atomic charges =   0.00000

 Dipole moment (field-independent basis, Debye):
    X=             -2.6636    Y=             -0.0586    Z=              1.8850  Tot=              3.2637
 Quadrupole moment (field-independent basis, Debye-Ang):
   XX=           -121.0387   YY=           -136.9004   ZZ=           -136.9881
   XY=            -18.7634   XZ=             -0.3636   YZ=             -0.4467

  Exact polarizability: 235.060   0.879 199.286  -0.214  -0.555 143.956
 Approx polarizability: 275.863   0.407 259.308  -0.107   0.424 239.538

 ******    7 imaginary frequencies (negative Signs) ******

                     1                      2                      3
                     A                      A                      A
 Frequencies --  -283.5784              -260.0905              -210.0550
 Red. masses --     1.7188                 1.6566                 1.2530
 Frc consts  --     0.0814                 0.0660                 0.0326
 IR Inten    --     2.4153                27.7397                74.6654
 Raman Activ --     0.0172                 0.1453                 0.6601

                     4                      5                      6
                     A                      A                      A
 Frequencies --   -90.9919               -68.7746               -47.0152
 Red. masses --     2.5204                 4.5147                 4.9704
 Frc consts  --     0.0123                 0.0126                 0.0065
 IR Inten    --    40.0386                15.5280                 5.2406
 Raman Activ --     0.1984                 0.1853                 0.0312

                     7                      8                      9
                     A                      A                      A
 Frequencies --   -30.3645                38.9209                74.2518
 Red. masses --     4.9481                 5.3800                 3.9257
 Frc consts  --     0.0027                 0.0048                 0.0128
 IR Inten    --     8.3361                 6.3300                19.2558
 Raman Activ --     0.0995                 0.0499                 0.0765

                    10                     11                     12
                     A                      A                      A
 Frequencies --    88.7791                94.0011               133.5569
 Red. masses --     4.8787                 5.8728                 5.1760
 Frc consts  --     0.0227                 0.0306                 0.0544
 IR Inten    --     9.2313                 9.0339                 3.1667
 Raman Activ --     0.5752                 0.0484                 0.1249

                    13                     14                     15
                     A                      A                      A
 Frequencies --   162.7071               176.6791               191.2231
 Red. masses --     4.7303                 6.1400                 6.7943
 Frc consts  --     0.0738                 0.1129                 0.1464
 IR Inten    --    18.9870                 2.3150                 0.6574
 Raman Activ --     0.1691                 0.5517                 0.3910

                    16                     17                     18
                     A                      A                      A
 Frequencies --   206.7619               229.2520               248.9061
 Red. masses --     7.0592                 5.5479                 4.3649
 Frc consts  --     0.1778                 0.1718                 0.1593
 IR Inten    --     0.4006                 1.0356                19.3489
 Raman Activ --     3.3696                 0.2549                 0.1336

                    19                     20                     21
                     A                      A                      A
 Frequencies --   270.1224               286.6549               302.9279
 Red. masses --     4.8954                 5.1472                 4.3242
 Frc consts  --     0.2105                 0.2492                 0.2338
 IR Inten    --     1.1655                 2.4967                 2.8057
 Raman Activ --     0.2772                 0.0531                 0.1278

                    22                     23                     24
                     A                      A                      A
 Frequencies --   310.3376               313.9062               319.3075
 Red. masses --     5.6176                 6.0384                 6.3350
 Frc consts  --     0.3188                 0.3506                 0.3806
 IR Inten    --     0.7500                 7.3903                 0.7381
 Raman Activ --     4.3165                 0.1840                 2.4364

                    25                     26                     27
                     A                      A                      A
 Frequencies --   338.2484               349.1819               376.8552
 Red. masses --     6.6826                 4.6294                 4.9498
 Frc consts  --     0.4505                 0.3326                 0.4142
 IR Inten    --    10.4635                 2.5183                 3.8267
 Raman Activ --     4.3400                 0.2378                 0.2644

                    28                     29                     30
                     A                      A                      A
 Frequencies --   393.3018               414.6948               424.2393
 Red. masses --     5.3828                 6.3480                 4.3680
 Frc consts  --     0.4906                 0.6432                 0.4632
 IR Inten    --    17.8359                 2.3855                 2.3369
 Raman Activ --     2.6578                 8.0058                 0.8496

                    31                     32                     33
                     A                      A                      A
 Frequencies --   426.3369               460.8386               480.0894
 Red. masses --     6.1421                 4.4321                 4.0262
 Frc consts  --     0.6578                 0.5546                 0.5468
 IR Inten    --     1.5712                 4.1998                12.3810
 Raman Activ --     3.2057                 3.9447                 0.3105

                    34                     35                     36
                     A                      A                      A
 Frequencies --   498.9979               509.4151               566.2272
 Red. masses --     3.9269                 3.4705                 3.5959
 Frc consts  --     0.5761                 0.5306                 0.6793
 IR Inten    --     6.8006                11.7080                 7.0978
 Raman Activ --     5.0832                 2.6557                 0.7227

                    37                     38                     39
                     A                      A                      A
 Frequencies --   572.2157               595.1618               603.1223
 Red. masses --     2.8908                 6.6356                 5.1105
 Frc consts  --     0.5577                 1.3848                 1.0953
 IR Inten    --    37.8056                 3.0812                14.1528
 Raman Activ --     0.3514                 1.0335                 0.4098

                    40                     41                     42
                     A                      A                      A
 Frequencies --   621.9770               677.8328               707.8351
 Red. masses --     4.0993                 5.8094                 1.0746
 Frc consts  --     0.9343                 1.5726                 0.3172
 IR Inten    --    30.6348                15.5080               100.6703
 Raman Activ --     1.2033                 1.2760                 2.0605

                    43                     44                     45
                     A                      A                      A
 Frequencies --   723.5134               756.1384               758.9833
 Red. masses --     1.0793                 1.0790                 1.1026
 Frc consts  --     0.3329                 0.3635                 0.3742
 IR Inten    --   108.1375                95.5635               101.2832
 Raman Activ --     1.6498                 1.8402                 1.4982

                    46                     47                     48
                     A                      A                      A
 Frequencies --   776.8261               792.8040               844.6762
 Red. masses --     1.0766                 1.0851                 1.8017
 Frc consts  --     0.3828                 0.4018                 0.7574
 IR Inten    --    53.5243               114.1293                 2.8437
 Raman Activ --     0.5256                 2.4474                 0.3838

                    49                     50                     51
                     A                      A                      A
 Frequencies --   856.1365               913.6622               959.2025
 Red. masses --     1.6949                 6.1986                 5.4205
 Frc consts  --     0.7320                 3.0487                 2.9384
 IR Inten    --     4.9937                99.5276                41.8898
 Raman Activ --     0.3787                 2.1007                 0.8816

                    52                     53                     54
                     A                      A                      A
 Frequencies --   968.2243               980.4644               986.2780
 Red. masses --     5.1627                 4.8436                 5.5946
 Frc consts  --     2.8516                 2.7434                 3.2064
 IR Inten    --    99.6299                20.8373               114.3788
 Raman Activ --     0.6399                 2.1275                 1.1626

                    55                     56                     57
                     A                      A                      A
 Frequencies --   997.3880              1007.5230              1025.0891
 Red. masses --     7.2895                 5.8891                 5.6008
 Frc consts  --     4.2724                 3.5222                 3.4676
 IR Inten    --   312.2265                57.8774               400.3180
 Raman Activ --     1.6851                 4.6944                 3.0083

                    58                     59                     60
                     A                      A                      A
 Frequencies --  1034.1699              1057.0981              1062.1656
 Red. masses --     7.1619                 3.8225                 5.9471
 Frc consts  --     4.5130                 2.5167                 3.9531
 IR Inten    --   285.5074                84.1467                89.9872
 Raman Activ --     1.0393                 6.7156                 6.1139

                    61                     62                     63
                     A                      A                      A
 Frequencies --  1071.8414              1081.1756              1084.1232
 Red. masses --     4.6318                 3.8357                 6.0953
 Frc consts  --     3.1352                 2.6417                 4.2209
 IR Inten    --     0.1314                17.9791                51.3440
 Raman Activ --     4.2831                16.2233                 5.3103

                    64                     65                     66
                     A                      A                      A
 Frequencies --  1103.4529              1104.9639              1114.9357
 Red. masses --     2.5291                 2.3666                 2.7004
 Frc consts  --     1.8144                 1.7024                 1.9778
 IR Inten    --    17.3205                14.6629               168.2297
 Raman Activ --    10.9491                 5.2116                 2.1035

                    67                     68                     69
                     A                      A                      A
 Frequencies --  1121.6480              1132.4986              1142.1190
 Red. masses --     2.8184                 2.8609                 3.2658
 Frc consts  --     2.0891                 2.1618                 2.5099
 IR Inten    --     4.1092                18.7948                38.2207
 Raman Activ --     1.0197                11.2307                 2.5525

                    70                     71                     72
                     A                      A                      A
 Frequencies --  1146.7244              1156.7366              1162.9552
 Red. masses --     2.7611                 1.5576                 2.2806
 Frc consts  --     2.1392                 1.2279                 1.8173
 IR Inten    --    42.7485                 2.1347                12.6402
 Raman Activ --     3.2118                 1.4334                 5.5016

                    73                     74                     75
                     A                      A                      A
 Frequencies --  1170.0312              1170.7112              1182.5318
 Red. masses --     1.7231                 1.7979                 2.0468
 Frc consts  --     1.3898                 1.4518                 1.6864
 IR Inten    --     4.8435                21.9783                 8.6994
 Raman Activ --     1.7725                 5.5249                 1.7865

                    76                     77                     78
                     A                      A                      A
 Frequencies --  1204.8708              1214.4191              1227.9641
 Red. masses --     1.3775                 1.4674                 1.1409
 Frc consts  --     1.1782                 1.2751                 1.0136
 IR Inten    --     9.8480                 4.7291                 2.5256
 Raman Activ --     2.0415                 1.8684                 2.0714

                    79                     80                     81
                     A                      A                      A
 Frequencies --  1239.1261              1252.6776              1259.0043
 Red. masses --     1.3299                 1.1907                 1.3165
 Frc consts  --     1.2031                 1.1009                 1.2295
 IR Inten    --     1.3352                15.5562                 7.7303
 Raman Activ --     0.9646                 1.6959                 0.6107

                    82                     83                     84
                     A                      A                      A
 Frequencies --  1274.6970              1283.0514              1288.0934
 Red. masses --     1.3057                 1.1527                 1.4023
 Frc consts  --     1.2500                 1.1181                 1.3708
 IR Inten    --     1.6695                 3.9485                33.7812
 Raman Activ --     1.4498                 7.2692                 1.1650

                    85                     86                     87
                     A                      A                      A
 Frequencies --  1290.9916              1297.0471              1302.9020
 Red. masses --     1.2439                 1.1961                 1.2474
 Frc consts  --     1.2214                 1.1856                 1.2476
 IR Inten    --    21.1688                 4.9801                16.6910
 Raman Activ --     2.1904                 2.9280                 4.5005

                    88                     89                     90
                     A                      A                      A
 Frequencies --  1307.3167              1325.8989              1328.6075
 Red. masses --     1.3867                 1.3426                 1.1605
 Frc consts  --     1.3963                 1.3906                 1.2070
 IR Inten    --    22.2645                29.1825                50.7704
 Raman Activ --     3.4966                 4.9203                 4.5608

                    91                     92                     93
                     A                      A                      A
 Frequencies --  1335.8896              1343.8314              1349.6237
 Red. masses --     1.2158                 1.2337                 1.1850
 Frc consts  --     1.2783                 1.3126                 1.2717
 IR Inten    --     6.4535                28.1965                21.4640
 Raman Activ --     8.4107                 4.5184                 1.1754

                    94                     95                     96
                     A                      A                      A
 Frequencies --  1360.3290              1363.0375              1369.9802
 Red. masses --     1.5213                 1.3437                 1.3585
 Frc consts  --     1.6586                 1.4709                 1.5023
 IR Inten    --     1.6718                 5.2106                48.2504
 Raman Activ --     8.4439                 1.9791                 7.6765

                    97                     98                     99
                     A                      A                      A
 Frequencies --  1382.0279              1384.1587              1389.5248
 Red. masses --     1.4011                 1.3971                 1.3835
 Frc consts  --     1.5767                 1.5770                 1.5738
 IR Inten    --     8.9211                 5.3025                 0.1789
 Raman Activ --     3.2722                 3.5460                 6.8087

                   100                    101                    102
                     A                      A                      A
 Frequencies --  1404.6238              1449.7681              1455.2904
 Red. masses --     1.3891                 1.4313                 1.3547
 Frc consts  --     1.6148                 1.7725                 1.6904
 IR Inten    --    18.3351                45.4488                22.9650
 Raman Activ --     0.5679                 1.2765                 3.3020

                   103                    104                    105
                     A                      A                      A
 Frequencies --  1458.4619              1463.6195              1466.4058
 Red. masses --     1.3508                 1.1039                 1.1086
 Frc consts  --     1.6929                 1.3933                 1.4045
 IR Inten    --    27.1866                 7.5118                 4.0428
 Raman Activ --     0.6577                 5.5833                 2.8954

                   106                    107                    108
                     A                      A                      A
 Frequencies --  1468.7074              1528.9517              3209.7757
 Red. masses --     1.3146                 1.2432                 1.0721
 Frc consts  --     1.6707                 1.7123                 6.5081
 IR Inten    --    15.8394                42.6106              1046.3156
 Raman Activ --     0.7133                 1.5130               212.6393

                   109                    110                    111
                     A                      A                      A
 Frequencies --  3247.4724              3251.2662              3255.0373
 Red. masses --     1.0787                 1.0785                 1.0575
 Frc consts  --     6.7028                 6.7170                 6.6018
 IR Inten    --    20.5545               116.2081                30.9127
 Raman Activ --    71.8394                76.6721               114.0148

                   112                    113                    114
                     A                      A                      A
 Frequencies --  3259.3756              3262.4385              3265.3004
 Red. masses --     1.0601                 1.0801                 1.0816
 Frc consts  --     6.6355                 6.7732                 6.7947
 IR Inten    --     9.4197                12.4827                20.8958
 Raman Activ --   167.0161                26.1758                34.6462

                   115                    116                    117
                     A                      A                      A
 Frequencies --  3272.1764              3276.4796              3276.8818
 Red. masses --     1.0765                 1.0831                 1.0841
 Frc consts  --     6.7914                 6.8504                 6.8587
 IR Inten    --   260.7118                27.5062                40.6628
 Raman Activ --    81.2576               188.4921                 6.4999

                   118                    119                    120
                     A                      A                      A
 Frequencies --  3280.2103              3284.1334              3293.8099
 Red. masses --     1.0770                 1.0859                 1.0868
 Frc consts  --     6.8275                 6.9005                 6.9472
 IR Inten    --   385.1231                39.1249                33.9587
 Raman Activ --    75.6740                10.9239                 4.9488

                   121                    122                    123
                     A                      A                      A
 Frequencies --  3296.7042              3312.1354              3312.7579
 Red. masses --     1.0857                 1.1046                 1.1053
 Frc consts  --     6.9519                 7.1395                 7.1468
 IR Inten    --   123.1899                39.2472                62.6616
 Raman Activ --    44.6563                42.2939                30.7164

                   124                    125                    126
                     A                      A                      A
 Frequencies --  3355.0630              3357.2563              3360.7282
 Red. masses --     1.0653                 1.0683                 1.0679
 Frc consts  --     7.0651                 7.0942                 7.1062
 IR Inten    --    37.4894                45.7638                71.5910
 Raman Activ --    96.3966               181.0695               151.3700

                   127                    128                    129
                     A                      A                      A
 Frequencies --  3367.6634              3875.8602              3877.2512
 Red. masses --     1.0651                 1.0677                 1.0675
 Frc consts  --     7.1172                 9.4497                 9.4547
 IR Inten    --    46.0351                83.5240                86.0118
 Raman Activ --   108.6246                77.2549               113.6720

 - Thermochemistry -
 -------------------
 Temperature   298.150 Kelvin.  Pressure   1.00000 Atm.
 Atom     1 has atomic number  8 and mass  15.99491

 Molecular mass:   342.11621 amu.
 Principal axes and moments of inertia in atomic units:
                           1         2         3
     Eigenvalues --  4481.55996********************
           X            0.99996  -0.00854  -0.00013
           Y            0.00854   0.99996  -0.00254
           Z            0.00016   0.00254   1.00000
 This molecule is an asymmetric top.
 Rotational symmetry number  1.
 Warning -- assumption of classical behavior for rotation
           may cause significant error
 Rotational temperatures (Kelvin)      0.01933     0.00699     0.00524
 Rotational constants (GHZ):           0.40270     0.14571     0.10910
    7 imaginary frequencies ignored.
 Zero-point vibrational energy     972159.2 (Joules/Mol)
                                  232.35164 (Kcal/Mol)
 Warning -- explicit consideration of  32 degrees of freedom as
           vibrations may cause significant error
 Vibrational temperatures:     56.00   106.83   127.73   135.25   192.16
          (Kelvin)            234.10   254.20   275.13   297.48   329.84
                              358.12   388.65   412.43   435.85   446.51
                              451.64   459.41   486.66   502.39   542.21
                              565.87   596.65   610.38   613.40   663.04
                              690.74   717.95   732.93   814.67   823.29
                              856.30   867.76   894.89   975.25  1018.42
                             1040.97  1087.91  1092.01  1117.68  1140.67
                             1215.30  1231.79  1314.55  1380.08  1393.06
                             1410.67  1419.03  1435.02  1449.60  1474.87
                             1487.94  1520.93  1528.22  1542.14  1555.57
                             1559.81  1587.62  1589.79  1604.14  1613.80
                             1629.41  1643.25  1649.88  1664.28  1673.23
                             1683.41  1684.39  1701.40  1733.54  1747.28
                             1766.76  1782.82  1802.32  1811.42  1834.00
                             1846.02  1853.28  1857.45  1866.16  1874.58
                             1880.93  1907.67  1911.57  1922.04  1933.47
                             1941.81  1957.21  1961.10  1971.09  1988.43
                             1991.49  1999.21  2020.94  2085.89  2093.84
                             2098.40  2105.82  2109.83  2113.14  2199.82
                             4618.15  4672.38  4677.84  4683.27  4689.51
                             4693.92  4698.03  4707.93  4714.12  4714.70
                             4719.49  4725.13  4739.05  4743.22  4765.42
                             4766.31  4827.18  4830.34  4835.33  4845.31
                             5576.49  5578.49

 Zero-point correction=                           0.370276 (Hartree/Particle)
 Thermal correction to Energy=                    0.388682
 Thermal correction to Enthalpy=                  0.389626
 Thermal correction to Gibbs Free Energy=         0.324831
 Sum of electronic and zero-point Energies=          -1297.648208
 Sum of electronic and thermal Energies=             -1297.629802
 Sum of electronic and thermal Enthalpies=           -1297.628858
 Sum of electronic and thermal Free Energies=        -1297.693653

                     E (Thermal)             CV                S
                      KCal/Mol        Cal/Mol-Kelvin    Cal/Mol-Kelvin
 Total                  243.902             76.241            136.373
 Electronic               0.000              0.000              0.000
 Translational            0.889              2.981             43.384
 Rotational               0.889              2.981             35.172
 Vibrational            242.124             70.279             57.816
 Vibration     1          0.594              1.981              5.313
 Vibration     2          0.599              1.966              4.037
 Vibration     3          0.602              1.957              3.687
 Vibration     4          0.603              1.953              3.575
 Vibration     5          0.613              1.920              2.894
 Vibration     6          0.623              1.888              2.518
 Vibration     7          0.628              1.871              2.363
 Vibration     8          0.634              1.852              2.216
 Vibration     9          0.641              1.830              2.072
 Vibration    10          0.652              1.796              1.885
 Vibration    11          0.662              1.765              1.738
 Vibration    12          0.674              1.728              1.595
 Vibration    13          0.684              1.698              1.494
 Vibration    14          0.694              1.668              1.401
 Vibration    15          0.699              1.654              1.361
 Vibration    16          0.702              1.647              1.342
 Vibration    17          0.705              1.637              1.314
 Vibration    18          0.719              1.599              1.220
 Vibration    19          0.726              1.577              1.170
 Vibration    20          0.747              1.519              1.052
 Vibration    21          0.761              1.484              0.988
 Vibration    22          0.778              1.438              0.910
 Vibration    23          0.786              1.418              0.878
 Vibration    24          0.788              1.413              0.871
 Vibration    25          0.819              1.337              0.764
 Vibration    26          0.836              1.294              0.710
 Vibration    27          0.854              1.252              0.661
 Vibration    28          0.865              1.229              0.635
 Vibration    29          0.922              1.104              0.512
 Vibration    30          0.928              1.091              0.500
 Vibration    31          0.953              1.042              0.458
 Vibration    32          0.962              1.025              0.444

 Normal termination of Gaussian 09 at Fri Feb 12 11:41:09 2016.
