 Gaussian 09, Revision B.01,
 Gaussian 09:  EM64L-G09RevB.01 12-Aug-2010

 ------------------------------------------------
 # freq=raman b3lyp/6-31+g(d,p) geom=connectivity
 ------------------------------------------------

 ------------
 290 5000.com
 ------------
 Symbolic Z-matrix:
 Charge =  0 Multiplicity = 1

                         Standard orientation:
 ---------------------------------------------------------------------
 Center     Atomic      Atomic             Coordinates (Angstroms)
 Number     Number       Type             X           Y           Z
 ---------------------------------------------------------------------
      1          8           0       -5.038081   -0.553772    0.263932
      2          6           0       -3.775851   -0.061586   -0.209209
      3          6           0       -3.223138    1.222170    0.387932
      4          8           0       -4.161952    2.234839   -0.001107
      5          1           0       -5.099966    1.947185    0.192729
      6          6           0       -1.814999    1.647146    0.005793
      7          8           0       -1.391035    2.807679    0.734269
      8          1           0       -0.534219    3.181828    0.379106
      9          6           0       -2.942091   -2.567164   -0.224552
     10          8           0       -3.997537   -3.229579    0.486531
     11          1           0       -3.837709   -4.154053    0.142254
     12          6           0       -2.735473   -1.109265    0.151918
     13          8           0       -1.526063   -0.694184   -0.499826
     14          6           0       -0.887620    0.445038    0.095568
     15          8           0        0.308732    0.585946   -0.683269
     16          6           0        1.544975    0.223356   -0.051005
     17          6           0        1.981218   -1.155512   -0.519599
     18          8           0        0.998898   -2.189281   -0.354373
     19          1           0        0.154310   -1.941742   -0.827637
     20          6           0        3.239790   -1.563156    0.228925
     21          8           0        3.920396   -2.765807   -0.159091
     22          1           0        4.687308   -3.005580    0.436382
     23          6           0        2.345114    2.625677    0.129143
     24          8           0        1.380975    3.314254   -0.680993
     25          1           0        1.493608    4.303782   -0.597438
     26          6           0        2.604280    1.240749   -0.441361
     27          8           0        3.734776    0.815311    0.333355
     28          6           0        4.281141   -0.475178    0.026208
     29          8           0        5.372526   -0.592400    0.951005
     30          1           0        6.188850   -0.734633    0.466253
     31          1           0       -5.570641   -0.838423   -0.482362
     32          1           0       -2.029524   -3.094965   -0.041390
     33          1           0       -3.157891   -2.617437   -1.271358
     34          1           0       -2.576881   -1.063083    1.209091
     35          1           0       -3.817354    0.038313   -1.273726
     36          1           0       -3.258296    1.129871    1.453364
     37          1           0       -1.848374    1.930883   -1.025361
     38          1           0       -0.642927    0.239973    1.116829
     39          1           0        3.259497    3.181217    0.142555
     40          1           0        1.970202    2.534360    1.127142
     41          1           0        2.808551    1.251652   -1.491625
     42          1           0        1.420308    0.221202    1.011705
     43          1           0        2.220212   -1.090180   -1.560519
     44          1           0        3.008615   -1.625266    1.271806
     45          1           0        4.645180   -0.492610   -0.979810
 ---------------------------------------------------------------------

 SCF Done:  E(RB3LYP) =  -1297.94308004     A.U. after   14 cycles

 The electronic state is 1-A.
 Alpha  occ. eigenvalues --  -19.18681 -19.18615 -19.18362 -19.18242 -19.17634
 Alpha  occ. eigenvalues --  -19.17556 -19.17082 -19.16718 -19.16105 -19.15709
 Alpha  occ. eigenvalues --  -19.15474 -10.30787 -10.30597 -10.26127 -10.25884
 Alpha  occ. eigenvalues --  -10.25314 -10.25296 -10.25272 -10.25265 -10.25261
 Alpha  occ. eigenvalues --  -10.25025 -10.24975 -10.24287  -1.09459  -1.08712
 Alpha  occ. eigenvalues --   -1.05169  -1.04519  -1.03582  -1.03164  -1.03094
 Alpha  occ. eigenvalues --   -1.02488  -1.02229  -1.01040  -1.00762  -0.82039
 Alpha  occ. eigenvalues --   -0.80004  -0.79754  -0.78215  -0.71593  -0.70284
 Alpha  occ. eigenvalues --   -0.67238  -0.64523  -0.63232  -0.62084  -0.61669
 Alpha  occ. eigenvalues --   -0.60429  -0.56534  -0.55599  -0.54921  -0.54529
 Alpha  occ. eigenvalues --   -0.53759  -0.53374  -0.53172  -0.52084  -0.51405
 Alpha  occ. eigenvalues --   -0.50034  -0.49946  -0.49261  -0.49172  -0.46240
 Alpha  occ. eigenvalues --   -0.45493  -0.45205  -0.44511  -0.43970  -0.43448
 Alpha  occ. eigenvalues --   -0.42545  -0.42394  -0.41263  -0.40527  -0.38591
 Alpha  occ. eigenvalues --   -0.38276  -0.37108  -0.36943  -0.36715  -0.35573
 Alpha  occ. eigenvalues --   -0.35337  -0.34538  -0.33960  -0.33750  -0.33560
 Alpha  occ. eigenvalues --   -0.32625  -0.31684  -0.31189  -0.30382  -0.29900
 Alpha  occ. eigenvalues --   -0.29507  -0.28753  -0.28156  -0.27834  -0.26642
 Alpha  occ. eigenvalues --   -0.26030
 Alpha virt. eigenvalues --   -0.02022  -0.01860  -0.01695  -0.00157   0.00195
 Alpha virt. eigenvalues --    0.00809   0.01734   0.02135   0.02940   0.03037
 Alpha virt. eigenvalues --    0.03449   0.04275   0.04817   0.05298   0.05621

 Mulliken atomic charges:
              1
     1  O   -0.509750
     2  C   -0.163053
     3  C    0.234886
     4  O   -0.515351
     5  H    0.356504
     6  C   -0.107672
     7  O   -0.535993
     8  H    0.404861
     9  C    0.070321
    10  O   -0.480069
    11  H    0.341443
    12  C    0.018392
    13  O   -0.424026
    14  C    0.098146
    15  O   -0.301336
    16  C   -0.124442
    17  C   -0.046078
    18  O   -0.478607
    19  H    0.386761
    20  C    0.096682
    21  O   -0.517814
    22  H    0.359802
    23  C    0.050086
    24  O   -0.620735
    25  H    0.379077
    26  C    0.034262
    27  O   -0.294972
    28  C    0.202201
    29  O   -0.561737
    30  H    0.361874
    31  H    0.365447
    32  H    0.144118
    33  H    0.129467
    34  H    0.129447
    35  H    0.140861
    36  H    0.140751
    37  H    0.152095
    38  H    0.112940
    39  H    0.145419
    40  H    0.141308
    41  H    0.148150
    42  H    0.127242
    43  H    0.133120
    44  H    0.146941
    45  H    0.129028
 Sum of Mulliken atomic charges =   0.00000

 Dipole moment (field-independent basis, Debye):
    X=              2.7232    Y=             -0.0294    Z=             -2.3334  Tot=              3.5863
 Quadrupole moment (field-independent basis, Debye-Ang):
   XX=           -119.5796   YY=           -134.5991   ZZ=           -141.3820
   XY=             14.3683   XZ=              6.3385   YZ=              0.9172

  Exact polarizability: 224.990  -1.115 193.173   2.620   0.181 142.912
 Approx polarizability: 262.343   0.309 247.030   2.785  -0.814 233.778

 ******    6 imaginary frequencies (negative Signs) ******

                     1                      2                      3
                     A                      A                      A
 Frequencies --  -330.6328              -277.9079              -249.8055
 Red. masses --     1.1821                 1.1652                 1.7525
 Frc consts  --     0.0761                 0.0530                 0.0644
 IR Inten    --   112.3190               124.9466                 7.9170
 Raman Activ --     1.4368                 1.0481                 0.3420

                     4                      5                      6
                     A                      A                      A
 Frequencies --  -180.6421               -78.0442               -62.5785
 Red. masses --     2.1163                 6.7795                 6.2387
 Frc consts  --     0.0407                 0.0243                 0.0144
 IR Inten    --     7.5744                 0.9215                 0.1998
 Raman Activ --     0.1676                 0.0178                 0.0246

                     7                      8                      9
                     A                      A                      A
 Frequencies --    16.1860                32.8533                42.7782
 Red. masses --     6.1787                 6.0107                 6.3447
 Frc consts  --     0.0010                 0.0038                 0.0068
 IR Inten    --     0.8724                 0.5415                 2.1417
 Raman Activ --     0.1766                 0.0915                 0.0361

                    10                     11                     12
                     A                      A                      A
 Frequencies --    62.7670                80.4503               121.9254
 Red. masses --     6.8555                 6.5873                 5.5704
 Frc consts  --     0.0159                 0.0251                 0.0488
 IR Inten    --     1.3371                 0.8931                 2.2733
 Raman Activ --     0.1290                 0.1414                 0.1254

                    13                     14                     15
                     A                      A                      A
 Frequencies --   128.6900               153.4995               174.5477
 Red. masses --     5.9893                 5.9585                 7.0060
 Frc consts  --     0.0584                 0.0827                 0.1258
 IR Inten    --     3.3767                 2.9080                 1.2558
 Raman Activ --     0.2645                 0.8756                 0.0992

                    16                     17                     18
                     A                      A                      A
 Frequencies --   187.6029               232.7731               253.9691
 Red. masses --     5.5022                 5.9446                 4.4510
 Frc consts  --     0.1141                 0.1898                 0.1691
 IR Inten    --     1.8069                 1.5036                12.7838
 Raman Activ --     0.4075                 1.4184                 0.6503

                    19                     20                     21
                     A                      A                      A
 Frequencies --   267.0641               279.6940               294.2723
 Red. masses --     5.1849                 6.2800                 6.3605
 Frc consts  --     0.2179                 0.2895                 0.3245
 IR Inten    --     0.3594                 2.1215                10.5209
 Raman Activ --     0.1559                 0.2083                 1.1132

                    22                     23                     24
                     A                      A                      A
 Frequencies --   300.4061               318.0412               328.2855
 Red. masses --     4.6770                 5.0187                 6.4306
 Frc consts  --     0.2487                 0.2991                 0.4083
 IR Inten    --     3.4092                 4.6688                 2.5519
 Raman Activ --     0.2220                 1.6398                 1.5059

                    25                     26                     27
                     A                      A                      A
 Frequencies --   343.6732               352.4487               370.9258
 Red. masses --     6.6689                 4.5619                 7.2221
 Frc consts  --     0.4641                 0.3339                 0.5854
 IR Inten    --     7.1797                13.1969                 1.5638
 Raman Activ --     7.8970                 0.2264                 2.0052

                    28                     29                     30
                     A                      A                      A
 Frequencies --   401.0645               404.9446               435.8232
 Red. masses --     5.1771                 4.9367                 4.3569
 Frc consts  --     0.4906                 0.4770                 0.4876
 IR Inten    --    11.0599                13.4935                 0.6589
 Raman Activ --     2.5908                 1.2883                 2.6745

                    31                     32                     33
                     A                      A                      A
 Frequencies --   439.7729               482.9997               495.9748
 Red. masses --     5.0951                 4.1756                 4.0535
 Frc consts  --     0.5806                 0.5739                 0.5875
 IR Inten    --     4.0740                 0.7376                20.6040
 Raman Activ --     5.8471                 0.9995                 0.8623

                    34                     35                     36
                     A                      A                      A
 Frequencies --   517.6626               531.1333               555.2123
 Red. masses --     3.5125                 3.3615                 3.7724
 Frc consts  --     0.5546                 0.5587                 0.6852
 IR Inten    --     7.3421                22.9933                14.5809
 Raman Activ --     3.9741                 2.3826                 1.3669

                    37                     38                     39
                     A                      A                      A
 Frequencies --   579.6887               597.9429               619.2278
 Red. masses --     2.7361                 6.0712                 4.2903
 Frc consts  --     0.5417                 1.2789                 0.9693
 IR Inten    --    46.9821                 2.4736                23.8176
 Raman Activ --     0.3769                 0.4903                 0.6824

                    40                     41                     42
                     A                      A                      A
 Frequencies --   629.2849               671.7908               699.0273
 Red. masses --     5.7690                 1.0631                 4.5574
 Frc consts  --     1.3460                 0.2827                 1.3121
 IR Inten    --    43.8665                91.9696                16.6731
 Raman Activ --     1.2728                 1.5813                 0.2900

                    43                     44                     45
                     A                      A                      A
 Frequencies --   717.7045               721.5682               723.0152
 Red. masses --     1.0973                 1.0782                 1.0887
 Frc consts  --     0.3330                 0.3307                 0.3353
 IR Inten    --    77.7960                60.1488               107.6399
 Raman Activ --     1.4565                 2.6347                 1.6983

                    46                     47                     48
                     A                      A                      A
 Frequencies --   725.1099               770.8620               863.0368
 Red. masses --     1.0881                 1.0443                 1.7535
 Frc consts  --     0.3371                 0.3656                 0.7695
 IR Inten    --   263.0344                93.1004                 5.3845
 Raman Activ --     4.7159                 0.4590                 2.5117

                    49                     50                     51
                     A                      A                      A
 Frequencies --   869.0799               936.8968               963.7953
 Red. masses --     1.7063                 5.2421                 4.8178
 Frc consts  --     0.7593                 2.7111                 2.6367
 IR Inten    --     2.9665               113.6595                74.7353
 Raman Activ --     0.7846                 4.4779                 1.2792

                    52                     53                     54
                     A                      A                      A
 Frequencies --   982.8913               989.2245               998.0661
 Red. masses --     4.8757                 5.2166                 4.5525
 Frc consts  --     2.7752                 3.0076                 2.6719
 IR Inten    --    23.7952               141.6253               146.3999
 Raman Activ --     3.4629                 1.7596                 0.9921

                    55                     56                     57
                     A                      A                      A
 Frequencies --  1013.5555              1021.7366              1030.2216
 Red. masses --     4.6069                 5.0054                 4.9006
 Frc consts  --     2.7884                 3.0787                 3.0645
 IR Inten    --   179.6642                11.8171                81.1163
 Raman Activ --     3.9619                 0.7460                 3.2223

                    58                     59                     60
                     A                      A                      A
 Frequencies --  1049.7218              1062.4617              1068.9627
 Red. masses --     3.3416                 3.8161                 3.0839
 Frc consts  --     2.1694                 2.5380                 2.0762
 IR Inten    --   207.3993                64.4932               182.6031
 Raman Activ --     3.8122                 4.9343                 4.7647

                    61                     62                     63
                     A                      A                      A
 Frequencies --  1074.3504              1083.4650              1092.6613
 Red. masses --     3.3283                 4.0722                 4.6996
 Frc consts  --     2.2634                 2.8165                 3.3058
 IR Inten    --    90.4113                82.2738                89.9068
 Raman Activ --     5.6729                12.9452                 0.9511

                    64                     65                     66
                     A                      A                      A
 Frequencies --  1100.6268              1102.5931              1105.7150
 Red. masses --     2.7403                 2.8302                 3.8116
 Frc consts  --     1.9558                 2.0272                 2.7456
 IR Inten    --    10.4990               223.6482                67.1931
 Raman Activ --    13.6286                 2.2216                 9.8730

                    67                     68                     69
                     A                      A                      A
 Frequencies --  1113.3942              1129.2955              1132.9546
 Red. masses --     2.8481                 2.0316                 2.6445
 Frc consts  --     2.0802                 1.5265                 1.9999
 IR Inten    --    17.2477               110.0541                 1.9588
 Raman Activ --     4.0818                 7.0144                 2.0385

                    70                     71                     72
                     A                      A                      A
 Frequencies --  1135.8818              1146.8721              1154.1626
 Red. masses --     2.4439                 1.7474                 2.2272
 Frc consts  --     1.8578                 1.3542                 1.7480
 IR Inten    --    17.6800                 3.7691                32.4159
 Raman Activ --     5.2603                 3.5684                 4.8861

                    73                     74                     75
                     A                      A                      A
 Frequencies --  1156.3588              1165.7890              1188.0686
 Red. masses --     1.9599                 1.8657                 1.5791
 Frc consts  --     1.5441                 1.4940                 1.3132
 IR Inten    --    14.6685                13.5297                 4.5521
 Raman Activ --     2.5611                 2.6670                 2.0590

                    76                     77                     78
                     A                      A                      A
 Frequencies --  1193.3646              1200.3859              1219.5658
 Red. masses --     1.3577                 1.4113                 1.3125
 Frc consts  --     1.1392                 1.1982                 1.1502
 IR Inten    --    16.3583                 0.5495                10.4405
 Raman Activ --     7.1035                 0.9965                 2.9620

                    79                     80                     81
                     A                      A                      A
 Frequencies --  1236.3435              1239.8637              1246.2459
 Red. masses --     1.4026                 1.2258                 1.3934
 Frc consts  --     1.2632                 1.1103                 1.2750
 IR Inten    --     8.8949                10.1009                 9.1564
 Raman Activ --     1.2787                 1.1674                 3.3789

                    82                     83                     84
                     A                      A                      A
 Frequencies --  1253.4076              1268.4503              1271.9826
 Red. masses --     1.1883                 1.4246                 1.1879
 Frc consts  --     1.0999                 1.3505                 1.1323
 IR Inten    --    18.7379                27.3540                12.1916
 Raman Activ --     5.5572                 1.3840                 3.9048

                    85                     86                     87
                     A                      A                      A
 Frequencies --  1281.3981              1285.6632              1297.7795
 Red. masses --     1.3349                 1.3505                 1.2661
 Frc consts  --     1.2914                 1.3152                 1.2564
 IR Inten    --    14.8193                 7.3135                51.6541
 Raman Activ --     3.0130                 3.1000                 2.9568

                    88                     89                     90
                     A                      A                      A
 Frequencies --  1305.1125              1312.3414              1316.0634
 Red. masses --     1.2679                 1.2320                 1.2642
 Frc consts  --     1.2724                 1.2502                 1.2901
 IR Inten    --    21.3430                67.2180                 2.7387
 Raman Activ --     6.0724                 4.8775                 5.3032

                    91                     92                     93
                     A                      A                      A
 Frequencies --  1318.8674              1329.7310              1349.9693
 Red. masses --     1.2880                 1.2637                 1.2879
 Frc consts  --     1.3200                 1.3165                 1.3828
 IR Inten    --    49.2380                11.3949                30.9744
 Raman Activ --     4.7660                 6.3357                 2.8865

                    94                     95                     96
                     A                      A                      A
 Frequencies --  1355.9557              1360.9401              1373.8889
 Red. masses --     1.2133                 1.7515                 1.3362
 Frc consts  --     1.3144                 1.9114                 1.4860
 IR Inten    --    33.1625                 6.4733                 3.1607
 Raman Activ --     0.8598                10.9554                 4.6583

                    97                     98                     99
                     A                      A                      A
 Frequencies --  1380.3224              1389.9767              1392.2290
 Red. masses --     1.2604                 1.5314                 1.4818
 Frc consts  --     1.4148                 1.7432                 1.6922
 IR Inten    --     9.6559                 4.7470                10.7889
 Raman Activ --     1.5544                 8.6239                 7.9556

                   100                    101                    102
                     A                      A                      A
 Frequencies --  1396.4172              1411.3009              1430.3127
 Red. masses --     1.5487                 1.4895                 1.6184
 Frc consts  --     1.7793                 1.7479                 1.9507
 IR Inten    --    34.6998                28.2076                24.3947
 Raman Activ --     2.0364                 0.6318                 2.1581

                   103                    104                    105
                     A                      A                      A
 Frequencies --  1440.2767              1450.5162              1481.5754
 Red. masses --     1.5079                 1.4187                 1.0772
 Frc consts  --     1.8430                 1.7587                 1.3931
 IR Inten    --    13.0484                28.3056                 4.3238
 Raman Activ --     0.9907                 2.8260                 4.9035

                   106                    107                    108
                     A                      A                      A
 Frequencies --  1481.6981              1506.3509              3264.3362
 Red. masses --     1.0803                 1.3604                 1.0568
 Frc consts  --     1.3974                 1.8188                 6.6352
 IR Inten    --     3.9948                18.5831                35.8710
 Raman Activ --     4.6757                 1.2502                96.9039

                   109                    110                    111
                     A                      A                      A
 Frequencies --  3274.9319              3283.8385              3285.5941
 Red. masses --     1.0563                 1.0829                 1.0831
 Frc consts  --     6.6750                 6.8800                 6.8886
 IR Inten    --    26.8365                 6.2577                11.7034
 Raman Activ --    76.1719                31.2463                59.9756

                   112                    113                    114
                     A                      A                      A
 Frequencies --  3289.6605              3292.4373              3296.6727
 Red. masses --     1.0835                 1.0842                 1.0851
 Frc consts  --     6.9086                 6.9245                 6.9481
 IR Inten    --     4.8968                 3.4781                 6.9676
 Raman Activ --    92.6559               109.5966                69.3212

                   115                    116                    117
                     A                      A                      A
 Frequencies --  3302.3411              3304.8931              3311.5104
 Red. masses --     1.0862                 1.0860                 1.0869
 Frc consts  --     6.9792                 6.9885                 7.0223
 IR Inten    --     3.2984                10.4884                10.3539
 Raman Activ --    34.4017                68.3540                43.7123

                   118                    119                    120
                     A                      A                      A
 Frequencies --  3312.8014              3319.0536              3322.9679
 Red. masses --     1.0880                 1.0875                 1.1064
 Frc consts  --     7.0354                 7.0585                 7.1978
 IR Inten    --    50.6444                62.2769                62.3419
 Raman Activ --     9.4649                23.1199                38.4252

                   121                    122                    123
                     A                      A                      A
 Frequencies --  3341.9095              3359.5393              3381.5117
 Red. masses --     1.1093                 1.0683                 1.0667
 Frc consts  --     7.2997                 7.1040                 7.1868
 IR Inten    --    33.1240               239.9697               245.9094
 Raman Activ --    42.7147               226.2631               133.2323

                   124                    125                    126
                     A                      A                      A
 Frequencies --  3385.4167              3390.8031              3397.7748
 Red. masses --     1.0666                 1.0671                 1.0654
 Frc consts  --     7.2021                 7.2286                 7.2468
 IR Inten    --    31.3717                49.4864                20.4257
 Raman Activ --   113.8452               157.8209               164.4577

                   127                    128                    129
                     A                      A                      A
 Frequencies --  3397.9012              3920.0510              3921.0836
 Red. masses --     1.0677                 1.0678                 1.0676
 Frc consts  --     7.2633                 9.6676                 9.6713
 IR Inten    --    39.2417                83.4792                66.7373
 Raman Activ --   112.8169                80.5915               123.4658

 - Thermochemistry -
 -------------------
 Temperature   298.150 Kelvin.  Pressure   1.00000 Atm.
 Atom     1 has atomic number  8 and mass  15.99491

 Molecular mass:   342.11621 amu.
 Principal axes and moments of inertia in atomic units:
                           1         2         3
     Eigenvalues --  4532.90767********************
           X            0.99997   0.00727   0.00090
           Y           -0.00728   0.99997   0.00235
           Z           -0.00088  -0.00236   1.00000
 This molecule is an asymmetric top.
 Rotational symmetry number  1.
 Warning -- assumption of classical behavior for rotation
           may cause significant error
 Rotational temperatures (Kelvin)      0.01911     0.00709     0.00536
 Rotational constants (GHZ):           0.39814     0.14774     0.11164
    6 imaginary frequencies ignored.
 Zero-point vibrational energy     974536.8 (Joules/Mol)
                                  232.91988 (Kcal/Mol)
 Warning -- explicit consideration of  33 degrees of freedom as
           vibrations may cause significant error
 Vibrational temperatures:     23.29    47.27    61.55    90.31   115.75
          (Kelvin)            175.42   185.16   220.85   251.13   269.92
                              334.91   365.40   384.25   402.42   423.39
                              432.22   457.59   472.33   494.47   507.09
                              533.68   577.04   582.62   627.05   632.73
                              694.93   713.60   744.80   764.18   798.83
                              834.04   860.31   890.93   905.40   966.56
                             1005.74  1032.62  1038.17  1040.26  1043.27
                             1109.10  1241.72  1250.41  1347.98  1386.68
                             1414.16  1423.27  1435.99  1458.28  1470.05
                             1482.26  1510.31  1528.64  1538.00  1545.75
                             1558.86  1572.09  1583.55  1586.38  1590.88
                             1601.92  1624.80  1630.07  1634.28  1650.09
                             1660.58  1663.74  1677.31  1709.36  1716.98
                             1727.09  1754.68  1778.82  1783.89  1793.07
                             1803.37  1825.01  1830.10  1843.64  1849.78
                             1867.21  1877.76  1888.16  1893.52  1897.55
                             1913.18  1942.30  1950.92  1958.09  1976.72
                             1985.97  1999.86  2003.10  2009.13  2030.54
                             2057.90  2072.23  2086.97  2131.65  2131.83
                             2167.30  4696.65  4711.89  4724.71  4727.23
                             4733.08  4737.08  4743.17  4751.33  4755.00
                             4764.52  4766.38  4775.37  4781.00  4808.26
                             4833.62  4865.24  4870.85  4878.60  4888.63
                             4888.82  5640.07  5641.56

 Zero-point correction=                           0.371181 (Hartree/Particle)
 Thermal correction to Energy=                    0.390793
 Thermal correction to Enthalpy=                  0.391737
 Thermal correction to Gibbs Free Energy=         0.321940
 Sum of electronic and zero-point Energies=          -1297.571899
 Sum of electronic and thermal Energies=             -1297.552287
 Sum of electronic and thermal Enthalpies=           -1297.551343
 Sum of electronic and thermal Free Energies=        -1297.621140

                     E (Thermal)             CV                S
                      KCal/Mol        Cal/Mol-Kelvin    Cal/Mol-Kelvin
 Total                  245.226             78.420            146.901
 Electronic               0.000              0.000              0.000
 Translational            0.889              2.981             43.384
 Rotational               0.889              2.981             35.147
 Vibrational            243.449             72.458             68.370
 Vibration     1          0.593              1.986              7.054
 Vibration     2          0.594              1.983              5.649
 Vibration     3          0.595              1.980              5.126
 Vibration     4          0.597              1.972              4.368
 Vibration     5          0.600              1.962              3.880
 Vibration     6          0.609              1.931              3.070
 Vibration     7          0.611              1.925              2.966
 Vibration     8          0.619              1.899              2.628
 Vibration     9          0.627              1.874              2.386
 Vibration    10          0.632              1.857              2.251
 Vibration    11          0.654              1.791              1.857
 Vibration    12          0.665              1.756              1.703
 Vibration    13          0.672              1.734              1.615
 Vibration    14          0.680              1.711              1.536
 Vibration    15          0.689              1.684              1.449
 Vibration    16          0.693              1.673              1.415
 Vibration    17          0.704              1.639              1.320
 Vibration    18          0.712              1.619              1.269
 Vibration    19          0.722              1.588              1.195
 Vibration    20          0.729              1.570              1.155
 Vibration    21          0.743              1.532              1.076
 Vibration    22          0.767              1.468              0.959
 Vibration    23          0.770              1.459              0.945
 Vibration    24          0.796              1.392              0.840
 Vibration    25          0.800              1.383              0.827
 Vibration    26          0.839              1.288              0.702
 Vibration    27          0.852              1.259              0.668
 Vibration    28          0.873              1.211              0.615
 Vibration    29          0.886              1.181              0.585
 Vibration    30          0.911              1.128              0.533
 Vibration    31          0.936              1.075              0.486
 Vibration    32          0.956              1.036              0.453
 Vibration    33          0.979              0.991              0.418

 Normal termination of Gaussian 09 at Tue Mar  1 03:22:29 2016.
