 Gaussian 09, Revision B.01,
 Gaussian 09:  EM64L-G09RevB.01 12-Aug-2010

 -------------------------------------------------
 # freq=raman b3lyp/6-31+g(2d,p) geom=connectivity
 -------------------------------------------------

 -----------------
 473 6737/6737.com
 -----------------
 Symbolic Z-matrix:
 Charge =  0 Multiplicity = 1

                         Standard orientation:
 ---------------------------------------------------------------------
 Center     Atomic      Atomic             Coordinates (Angstroms)
 Number     Number       Type             X           Y           Z
 ---------------------------------------------------------------------
      1          8           0       -5.000966   -0.441325    0.240958
      2          6           0       -3.683602   -0.104711   -0.217321
      3          6           0       -3.298601    1.280684    0.275271
      4          8           0       -4.028423    2.258520   -0.481970
      5          1           0       -4.989573    2.030326   -0.326299
      6          6           0       -1.869315    1.552153   -0.164393
      7          8           0       -1.257564    2.743332    0.349867
      8          1           0       -0.333970    2.818054   -0.025399
      9          6           0       -3.052319   -2.499999   -0.004925
     10          8           0       -4.305613   -3.158826    0.228880
     11          1           0       -4.205056   -4.145142    0.362276
     12          6           0       -2.669732   -1.076415    0.364864
     13          8           0       -1.316366   -0.813233   -0.034445
     14          6           0       -0.884198    0.505204    0.330881
     15          8           0        0.228888    0.515118   -0.573752
     16          6           0        1.453907    0.252596    0.125862
     17          6           0        1.919559   -1.095896   -0.399420
     18          8           0        0.943269   -2.085955   -0.043468
     19          1           0        0.064012   -1.640678   -0.213976
     20          6           0        3.279299   -1.596446    0.059647
     21          8           0        3.796236   -2.735649   -0.644500
     22          1           0        4.623998   -3.118888   -0.234729
     23          6           0        2.387353    2.638254    0.232516
     24          8           0        1.345107    3.438275   -0.344317
     25          1           0        1.502741    4.410050   -0.165953
     26          6           0        2.617256    1.188699   -0.161542
     27          8           0        3.835569    0.716721    0.430758
     28          6           0        4.318576   -0.506326   -0.143263
     29          8           0        5.469814   -0.757155    0.677411
     30          1           0        6.210766   -1.008384    0.121107
     31          1           0        4.581389   -0.386303   -1.173517
     32          1           0        3.224801   -1.831751    1.102030
     33          1           0        1.944307   -1.033077   -1.467287
     34          1           0        1.274781    0.196077    1.179247
     35          1           0        2.764201    1.177990   -1.221350
     36          1           0        3.306294    3.154446    0.048143
     37          1           0        2.228152    2.645697    1.290580
     38          1           0       -5.546052   -0.692286   -0.508375
     39          1           0       -2.887163   -2.572371   -1.059622
     40          1           0       -2.315330   -3.120830    0.460172
     41          1           0       -2.715438   -0.993046    1.430632
     42          1           0       -3.648467   -0.135937   -1.286288
     43          1           0       -3.431303    1.396743    1.330648
     44          1           0       -1.837015    1.580287   -1.233535
     45          1           0       -0.604768    0.603658    1.359047
 ---------------------------------------------------------------------

 SCF Done:  E(RB3LYP) =  -1297.96096373     A.U. after   13 cycles

 The electronic state is 1-A.
 Alpha  occ. eigenvalues --  -19.18618 -19.18612 -19.18311 -19.17499 -19.17447
 Alpha  occ. eigenvalues --  -19.16956 -19.16046 -19.15749 -19.15524 -19.13716
 Alpha  occ. eigenvalues --  -19.12106 -10.30472 -10.29945 -10.25874 -10.25517
 Alpha  occ. eigenvalues --  -10.25192 -10.25112 -10.25046 -10.24550 -10.24215
 Alpha  occ. eigenvalues --  -10.24186 -10.23934 -10.23404  -1.11356  -1.08813
 Alpha  occ. eigenvalues --   -1.05405  -1.05048  -1.03909  -1.02915  -1.02707
 Alpha  occ. eigenvalues --   -1.02145  -1.02048  -1.00704  -0.99511  -0.81987
 Alpha  occ. eigenvalues --   -0.80610  -0.78766  -0.77863  -0.71852  -0.69815
 Alpha  occ. eigenvalues --   -0.67107  -0.65260  -0.63057  -0.62828  -0.61367
 Alpha  occ. eigenvalues --   -0.60144  -0.56456  -0.55856  -0.54815  -0.54526
 Alpha  occ. eigenvalues --   -0.54169  -0.53292  -0.52899  -0.51831  -0.51287
 Alpha  occ. eigenvalues --   -0.50534  -0.50122  -0.49219  -0.48591  -0.46829
 Alpha  occ. eigenvalues --   -0.46006  -0.44758  -0.43939  -0.43416  -0.43043
 Alpha  occ. eigenvalues --   -0.42674  -0.42208  -0.40903  -0.40067  -0.39206
 Alpha  occ. eigenvalues --   -0.38468  -0.37773  -0.36931  -0.36579  -0.36153
 Alpha  occ. eigenvalues --   -0.35838  -0.34644  -0.33991  -0.33602  -0.33309
 Alpha  occ. eigenvalues --   -0.32503  -0.31248  -0.30570  -0.30343  -0.30228
 Alpha  occ. eigenvalues --   -0.29061  -0.28424  -0.27935  -0.27582  -0.26313
 Alpha  occ. eigenvalues --   -0.25428
 Alpha virt. eigenvalues --   -0.01991  -0.01893  -0.01598  -0.00195   0.00492
 Alpha virt. eigenvalues --    0.00969   0.02021   0.02248   0.03080   0.03529
 Alpha virt. eigenvalues --    0.03787   0.04511   0.04622   0.05465   0.05745

 Mulliken atomic charges:
              1
     1  O   -0.529534
     2  C   -0.097245
     3  C    0.178839
     4  O   -0.546984
     5  H    0.332250
     6  C   -0.046587
     7  O   -0.574804
     8  H    0.414696
     9  C   -0.316108
    10  O   -0.557157
    11  H    0.348209
    12  C    0.341639
    13  O   -0.263931
    14  C    0.167456
    15  O   -0.186064
    16  C    0.202613
    17  C    0.161488
    18  O   -0.606630
    19  H    0.422900
    20  C    0.111027
    21  O   -0.563447
    22  H    0.338135
    23  C   -0.334780
    24  O   -0.556178
    25  H    0.358869
    26  C   -0.052159
    27  O   -0.248740
    28  C    0.097332
    29  O   -0.536067
    30  H    0.331777
    31  H    0.135886
    32  H    0.134427
    33  H    0.121205
    34  H    0.110030
    35  H    0.117069
    36  H    0.145719
    37  H    0.152771
    38  H    0.344827
    39  H    0.141332
    40  H    0.143442
    41  H    0.111456
    42  H    0.130560
    43  H    0.135614
    44  H    0.143977
    45  H    0.140870
 Sum of Mulliken atomic charges =   0.00000

 Dipole moment (field-independent basis, Debye):
    X=              1.7570    Y=              0.0544    Z=             -0.7529  Tot=              1.9122
 Quadrupole moment (field-independent basis, Debye-Ang):
   XX=           -118.7124   YY=           -134.0221   ZZ=           -139.1030
   XY=             11.8739   XZ=             -1.6416   YZ=             -0.8599

  Exact polarizability: 233.755  -1.592 197.700   0.598   0.381 143.031
 Approx polarizability: 274.441  -1.214 256.177   0.464  -0.076 239.710

 ******    7 imaginary frequencies (negative Signs) ******

                     1                      2                      3
                     A                      A                      A
 Frequencies --  -350.3291              -302.3671              -252.5477
 Red. masses --     1.6258                 1.7228                 1.1895
 Frc consts  --     0.1176                 0.0928                 0.0447
 IR Inten    --     6.2080                 3.8734               112.3811
 Raman Activ --     0.0529                 0.0444                 1.0278

                     4                      5                      6
                     A                      A                      A
 Frequencies --  -243.1068               -95.7025               -36.8076
 Red. masses --     1.1545                 7.0313                 6.1385
 Frc consts  --     0.0402                 0.0379                 0.0049
 IR Inten    --   115.0980                 1.6708                 0.4922
 Raman Activ --     0.7572                 0.0390                 0.0260

                     7                      8                      9
                     A                      A                      A
 Frequencies --   -14.2925                45.5053                58.1678
 Red. masses --     7.1270                 6.8591                 6.8034
 Frc consts  --     0.0009                 0.0084                 0.0136
 IR Inten    --     1.2591                 0.3740                 0.4261
 Raman Activ --     0.0247                 0.0367                 0.0127

                    10                     11                     12
                     A                      A                      A
 Frequencies --    81.0218                89.0468               119.5184
 Red. masses --     5.6638                 6.4155                 5.8939
 Frc consts  --     0.0219                 0.0300                 0.0496
 IR Inten    --     2.9633                 0.9109                 0.7057
 Raman Activ --     0.3295                 0.0904                 0.0681

                    13                     14                     15
                     A                      A                      A
 Frequencies --   145.9872               182.2660               187.5702
 Red. masses --     6.1292                 6.1680                 6.4759
 Frc consts  --     0.0770                 0.1207                 0.1342
 IR Inten    --     6.2791                 1.8281                 0.3387
 Raman Activ --     0.4026                 0.2089                 0.2195

                    16                     17                     18
                     A                      A                      A
 Frequencies --   210.0582               233.5117               256.4991
 Red. masses --     7.1364                 6.0658                 5.4112
 Frc consts  --     0.1855                 0.1949                 0.2098
 IR Inten    --     0.2142                 3.7405                13.6391
 Raman Activ --     3.0732                 0.6348                 0.3828

                    19                     20                     21
                     A                      A                      A
 Frequencies --   277.9139               289.0212               301.7811
 Red. masses --     5.2280                 4.6346                 5.8470
 Frc consts  --     0.2379                 0.2281                 0.3137
 IR Inten    --     2.3977                 5.0539                 6.8871
 Raman Activ --     0.1168                 0.5296                 0.3256

                    22                     23                     24
                     A                      A                      A
 Frequencies --   310.4649               313.3585               324.5347
 Red. masses --     5.9056                 5.7555                 4.9454
 Frc consts  --     0.3354                 0.3330                 0.3069
 IR Inten    --     6.4115                 2.4514                 8.8124
 Raman Activ --     4.7375                 1.6861                 1.7555

                    25                     26                     27
                     A                      A                      A
 Frequencies --   338.8841               365.6782               395.6667
 Red. masses --     6.4953                 5.2652                 6.5981
 Frc consts  --     0.4395                 0.4148                 0.6086
 IR Inten    --     1.5290                 3.2229                 2.4730
 Raman Activ --     2.6024                 0.1873                 0.9100

                    28                     29                     30
                     A                      A                      A
 Frequencies --   414.2674               419.6854               443.5780
 Red. masses --     4.1173                 6.1574                 4.2410
 Frc consts  --     0.4163                 0.6390                 0.4917
 IR Inten    --    18.8012                 3.1442                 2.2805
 Raman Activ --     4.0595                 5.6440                 1.3610

                    31                     32                     33
                     A                      A                      A
 Frequencies --   449.3880               491.4567               496.9568
 Red. masses --     6.2616                 4.5248                 3.9273
 Frc consts  --     0.7450                 0.6439                 0.5715
 IR Inten    --     6.5359                 3.2317                 9.8178
 Raman Activ --     1.6794                 1.9113                 1.4429

                    34                     35                     36
                     A                      A                      A
 Frequencies --   513.8672               541.3437               591.4367
 Red. masses --     3.9551                 2.9643                 5.2784
 Frc consts  --     0.6153                 0.5118                 1.0878
 IR Inten    --    15.7981                 9.8386                13.3297
 Raman Activ --     2.2955                 3.5088                 2.8097

                    37                     38                     39
                     A                      A                      A
 Frequencies --   592.8174               618.2961               631.8046
 Red. masses --     2.8988                 5.5901                 2.0542
 Frc consts  --     0.6002                 1.2591                 0.4831
 IR Inten    --    34.7999                 0.1769                58.6009
 Raman Activ --     0.6177                 0.8524                 0.9624

                    40                     41                     42
                     A                      A                      A
 Frequencies --   639.9788               667.1977               686.3880
 Red. masses --     1.6482                 3.6598                 1.0595
 Frc consts  --     0.3977                 0.9599                 0.2941
 IR Inten    --    76.8741                31.3219                76.0987
 Raman Activ --     1.6595                 0.1827                 1.7125

                    43                     44                     45
                     A                      A                      A
 Frequencies --   698.9691               710.1718               780.5011
 Red. masses --     1.0713                 5.4331                 1.0869
 Frc consts  --     0.3084                 1.6144                 0.3901
 IR Inten    --   124.9816                21.3684                98.9695
 Raman Activ --     1.7018                 4.4110                 1.7484

                    46                     47                     48
                     A                      A                      A
 Frequencies --   833.9238               839.8101               851.7410
 Red. masses --     1.1568                 1.7522                 1.3899
 Frc consts  --     0.4740                 0.7281                 0.5941
 IR Inten    --    95.8343                 6.6480                26.1825
 Raman Activ --     2.1169                 0.5906                 0.5118

                    49                     50                     51
                     A                      A                      A
 Frequencies --   876.1081               924.3025               948.4838
 Red. masses --     1.2651                 4.7438                 4.9243
 Frc consts  --     0.5721                 2.3879                 2.6101
 IR Inten    --    43.5211               141.7225                36.6030
 Raman Activ --     0.6961                 4.0744                 0.3170

                    52                     53                     54
                     A                      A                      A
 Frequencies --   976.2319               979.5514               982.1203
 Red. masses --     4.8539                 5.6904                 5.6833
 Frc consts  --     2.7255                 3.2170                 3.2298
 IR Inten    --    96.8796                 6.4569               147.7653
 Raman Activ --     4.3259                 2.3660                 0.9373

                    55                     56                     57
                     A                      A                      A
 Frequencies --   998.1759              1012.5849              1021.5391
 Red. masses --     6.5227                 6.4077                 5.7427
 Frc consts  --     3.8290                 3.8709                 3.5308
 IR Inten    --   351.3063                 1.9539               133.9667
 Raman Activ --     4.0304                 1.2150                 4.2581

                    58                     59                     60
                     A                      A                      A
 Frequencies --  1032.0868              1046.7489              1063.1124
 Red. masses --     6.0335                 5.3352                 2.7010
 Frc consts  --     3.7866                 3.4442                 1.7986
 IR Inten    --   306.3371               141.3216                14.6425
 Raman Activ --     3.9236                 2.0249                 7.2568

                    61                     62                     63
                     A                      A                      A
 Frequencies --  1068.8468              1071.8697              1079.3174
 Red. masses --     4.6012                 3.5580                 3.7167
 Frc consts  --     3.0971                 2.4085                 2.5510
 IR Inten    --    96.4743                 8.1808                19.9838
 Raman Activ --     1.2280                 7.3040                16.7828

                    64                     65                     66
                     A                      A                      A
 Frequencies --  1089.8883              1098.7714              1102.9369
 Red. masses --     3.0920                 3.0642                 2.8852
 Frc consts  --     2.1640                 2.1796                 2.0679
 IR Inten    --    42.5132                 7.3510                 4.9619
 Raman Activ --    19.6925                 3.2948                 5.1208

                    67                     68                     69
                     A                      A                      A
 Frequencies --  1108.6170              1117.9494              1117.9888
 Red. masses --     2.4415                 2.6392                 2.0515
 Frc consts  --     1.7679                 1.9434                 1.5108
 IR Inten    --    30.0074                 3.5586               116.8541
 Raman Activ --     3.1668                 7.1797                 3.7547

                    70                     71                     72
                     A                      A                      A
 Frequencies --  1133.6609              1146.4289              1158.2955
 Red. masses --     3.4614                 1.6130                 1.9083
 Frc consts  --     2.6210                 1.2491                 1.5085
 IR Inten    --     9.9352                 6.5562                 6.8935
 Raman Activ --    11.9942                 2.9279                 2.4028

                    73                     74                     75
                     A                      A                      A
 Frequencies --  1165.3764              1179.2262              1190.0679
 Red. masses --     2.1670                 1.7729                 1.5817
 Frc consts  --     1.7339                 1.4526                 1.3198
 IR Inten    --    15.1775                 5.6117                 5.8982
 Raman Activ --     3.6464                 0.9969                 1.9445

                    76                     77                     78
                     A                      A                      A
 Frequencies --  1197.4248              1201.9107              1212.3944
 Red. masses --     1.3213                 1.5695                 1.3399
 Frc consts  --     1.1162                 1.3359                 1.1604
 IR Inten    --    24.4694                 4.7457                17.7167
 Raman Activ --     1.0913                 2.7051                 0.4420

                    79                     80                     81
                     A                      A                      A
 Frequencies --  1218.3190              1225.3617              1246.4833
 Red. masses --     1.2291                 1.2618                 1.2609
 Frc consts  --     1.0749                 1.1163                 1.1542
 IR Inten    --     4.0667                17.9055                23.5968
 Raman Activ --     0.9717                 1.2957                 0.6298

                    82                     83                     84
                     A                      A                      A
 Frequencies --  1250.5778              1285.6481              1291.9297
 Red. masses --     1.2948                 1.3797                 1.3209
 Frc consts  --     1.1931                 1.3436                 1.2989
 IR Inten    --    32.7029                29.2271                18.6687
 Raman Activ --     0.9600                 3.7903                 0.8090

                    85                     86                     87
                     A                      A                      A
 Frequencies --  1296.3007              1302.7555              1307.9702
 Red. masses --     1.3225                 1.3371                 1.3227
 Frc consts  --     1.3094                 1.3370                 1.3332
 IR Inten    --    10.4642                44.8240                 3.4456
 Raman Activ --     2.6849                 2.0141                13.1521

                    88                     89                     90
                     A                      A                      A
 Frequencies --  1312.8250              1317.5349              1320.6365
 Red. masses --     1.3485                 1.2182                 1.2371
 Frc consts  --     1.3693                 1.2460                 1.2713
 IR Inten    --    14.5961                17.1112                16.5638
 Raman Activ --     3.2039                 6.7531                 2.7271

                    91                     92                     93
                     A                      A                      A
 Frequencies --  1323.5557              1326.7182              1350.7150
 Red. masses --     1.3403                 1.2330                 1.2386
 Frc consts  --     1.3833                 1.2787                 1.3314
 IR Inten    --    23.6753                29.2600                44.8060
 Raman Activ --     3.9475                 4.2599                 2.7795

                    94                     95                     96
                     A                      A                      A
 Frequencies --  1361.1115              1363.9538              1373.4473
 Red. masses --     1.4287                 1.1019                 1.4440
 Frc consts  --     1.5594                 1.2078                 1.6048
 IR Inten    --     8.7861                24.4948                 4.7443
 Raman Activ --     5.8465                 3.7592                11.7433

                    97                     98                     99
                     A                      A                      A
 Frequencies --  1379.5340              1397.1243              1400.2621
 Red. masses --     1.5133                 1.5503                 1.5088
 Frc consts  --     1.6968                 1.7830                 1.7430
 IR Inten    --    10.3744                10.7633                22.3374
 Raman Activ --     3.7203                 2.8338                 1.8145

                   100                    101                    102
                     A                      A                      A
 Frequencies --  1412.7290              1444.5006              1452.2284
 Red. masses --     1.4099                 1.2630                 1.2670
 Frc consts  --     1.6579                 1.5528                 1.5744
 IR Inten    --     1.0210                61.3295                 3.8613
 Raman Activ --     7.5941                 0.6116                 5.1041

                   103                    104                    105
                     A                      A                      A
 Frequencies --  1459.8195              1468.1734              1471.2401
 Red. masses --     1.3802                 1.1491                 1.4170
 Frc consts  --     1.7329                 1.4594                 1.8072
 IR Inten    --    11.8846                 3.6573                51.4983
 Raman Activ --     1.3110                 2.3939                 1.9164

                   106                    107                    108
                     A                      A                      A
 Frequencies --  1476.1161              1549.0084              3247.6609
 Red. masses --     1.1022                 1.2105                 1.0678
 Frc consts  --     1.4150                 1.7113                 6.6357
 IR Inten    --    12.1108                51.8300               495.2521
 Raman Activ --     4.0863                 2.2736               131.6925

                   109                    110                    111
                     A                      A                      A
 Frequencies --  3251.7381              3255.8952              3263.5104
 Red. masses --     1.0596                 1.0617                 1.0787
 Frc consts  --     6.6013                 6.6313                 6.7692
 IR Inten    --    96.0838               200.7439                28.2959
 Raman Activ --   119.3204               136.7350                12.4922

                   112                    113                    114
                     A                      A                      A
 Frequencies --  3268.6747              3274.2790              3284.8102
 Red. masses --     1.0824                 1.0806                 1.0710
 Frc consts  --     6.8135                 6.8259                 6.8089
 IR Inten    --     2.9000                47.3609               784.4454
 Raman Activ --   120.1315                45.9610               179.2239

                   115                    116                    117
                     A                      A                      A
 Frequencies --  3288.8443              3290.9257              3291.9204
 Red. masses --     1.0854                 1.0862                 1.0869
 Frc consts  --     6.9172                 6.9313                 6.9399
 IR Inten    --    25.7278                 5.9069                 2.8345
 Raman Activ --    40.8386               102.5831                31.1809

                   118                    119                    120
                     A                      A                      A
 Frequencies --  3295.2175              3301.0406              3303.5598
 Red. masses --     1.0847                 1.0978                 1.0881
 Frc consts  --     6.9392                 7.0482                 6.9968
 IR Inten    --    95.3903                34.0467                54.8911
 Raman Activ --    76.4253                25.5247                12.2283

                   121                    122                    123
                     A                      A                      A
 Frequencies --  3307.3692              3309.9940              3315.3067
 Red. masses --     1.0901                 1.1018                 1.0873
 Frc consts  --     7.0257                 7.1122                 7.0415
 IR Inten    --    41.1617                22.8552                75.3877
 Raman Activ --    24.4090                44.8029                37.0938

                   124                    125                    126
                     A                      A                      A
 Frequencies --  3362.2133              3364.1323              3368.4889
 Red. masses --     1.0692                 1.0651                 1.0676
 Frc consts  --     7.1211                 7.1022                 7.1369
 IR Inten    --    52.3979                24.2561               103.2421
 Raman Activ --   158.3507               142.8686               107.0407

                   127                    128                    129
                     A                      A                      A
 Frequencies --  3369.1005              3890.8397              3892.0038
 Red. masses --     1.0670                 1.0676                 1.0673
 Frc consts  --     7.1358                 9.5222                 9.5252
 IR Inten    --    24.8108                81.9248                61.3641
 Raman Activ --   200.7536                80.8781               124.8878

 - Thermochemistry -
 -------------------
 Temperature   298.150 Kelvin.  Pressure   1.00000 Atm.
 Atom     1 has atomic number  8 and mass  15.99491

 Molecular mass:   342.11621 amu.
 Principal axes and moments of inertia in atomic units:
                           1         2         3
     Eigenvalues --  4405.54838********************
           X            0.99997   0.00723  -0.00044
           Y           -0.00723   0.99997   0.00126
           Z            0.00045  -0.00126   1.00000
 This molecule is an asymmetric top.
 Rotational symmetry number  1.
 Warning -- assumption of classical behavior for rotation
           may cause significant error
 Rotational temperatures (Kelvin)      0.01966     0.00709     0.00535
 Rotational constants (GHZ):           0.40965     0.14775     0.11146
    7 imaginary frequencies ignored.
 Zero-point vibrational energy     974514.8 (Joules/Mol)
                                  232.91463 (Kcal/Mol)
 Warning -- explicit consideration of  31 degrees of freedom as
           vibrations may cause significant error
 Vibrational temperatures:     65.47    83.69   116.57   128.12   171.96
          (Kelvin)            210.04   262.24   269.87   302.23   335.97
                              369.04   399.86   415.84   434.20   446.69
                              450.85   466.93   487.58   526.13   569.28
                              596.04   603.83   638.21   646.57   707.10
                              715.01   739.34   778.87   850.94   852.93
                              889.59   909.02   920.79   959.95   987.56
                             1005.66  1021.78  1122.97  1199.83  1208.30
                             1225.46  1260.52  1329.86  1364.65  1404.58
                             1409.35  1413.05  1436.15  1456.88  1469.77
                             1484.94  1506.04  1529.58  1537.83  1542.18
                             1552.90  1568.10  1580.89  1586.88  1595.05
                             1608.48  1608.53  1631.08  1649.45  1666.53
                             1676.71  1696.64  1712.24  1722.83  1729.28
                             1744.36  1752.89  1763.02  1793.41  1799.30
                             1849.76  1858.80  1865.09  1874.37  1881.88
                             1888.86  1895.64  1900.10  1904.30  1908.85
                             1943.38  1958.33  1962.42  1976.08  1984.84
                             2010.15  2014.66  2032.60  2078.31  2089.43
                             2100.35  2112.37  2116.78  2123.80  2228.67
                             4672.65  4678.52  4684.50  4695.46  4702.89
                             4710.95  4726.10  4731.91  4734.90  4736.33
                             4741.08  4749.46  4753.08  4758.56  4762.34
                             4769.98  4837.47  4840.23  4846.50  4847.38
                             5598.04  5599.72

 Zero-point correction=                           0.371173 (Hartree/Particle)
 Thermal correction to Energy=                    0.389416
 Thermal correction to Enthalpy=                  0.390360
 Thermal correction to Gibbs Free Energy=         0.325643
 Sum of electronic and zero-point Energies=          -1297.589791
 Sum of electronic and thermal Energies=             -1297.571548
 Sum of electronic and thermal Enthalpies=           -1297.570603
 Sum of electronic and thermal Free Energies=        -1297.635321

                     E (Thermal)             CV                S
                      KCal/Mol        Cal/Mol-Kelvin    Cal/Mol-Kelvin
 Total                  244.362             75.663            136.210
 Electronic               0.000              0.000              0.000
 Translational            0.889              2.981             43.384
 Rotational               0.889              2.981             35.120
 Vibrational            242.585             69.702             57.705
 Vibration     1          0.595              1.979              5.004
 Vibration     2          0.596              1.974              4.518
 Vibration     3          0.600              1.962              3.866
 Vibration     4          0.602              1.957              3.681
 Vibration     5          0.609              1.933              3.108
 Vibration     6          0.617              1.907              2.724
 Vibration     7          0.630              1.864              2.305
 Vibration     8          0.632              1.857              2.252
 Vibration     9          0.642              1.825              2.043
 Vibration    10          0.654              1.790              1.852
 Vibration    11          0.666              1.752              1.685
 Vibration    12          0.679              1.714              1.546
 Vibration    13          0.686              1.694              1.480
 Vibration    14          0.694              1.670              1.407
 Vibration    15          0.699              1.654              1.360
 Vibration    16          0.701              1.648              1.345
 Vibration    17          0.709              1.626              1.287
 Vibration    18          0.719              1.598              1.217
 Vibration    19          0.739              1.543              1.098
 Vibration    20          0.762              1.479              0.979
 Vibration    21          0.778              1.439              0.912
 Vibration    22          0.782              1.427              0.893
 Vibration    23          0.803              1.375              0.815
 Vibration    24          0.808              1.362              0.798
 Vibration    25          0.847              1.269              0.680
 Vibration    26          0.852              1.257              0.666
 Vibration    27          0.869              1.219              0.624
 Vibration    28          0.896              1.159              0.562
 Vibration    29          0.949              1.050              0.465
 Vibration    30          0.950              1.047              0.462
 Vibration    31          0.978              0.993              0.419

 Normal termination of Gaussian 09 at Tue Mar 29 13:37:45 2016.
