 Gaussian 09, Revision B.01,
 Gaussian 09:  EM64L-G09RevB.01 12-Aug-2010

 -------------------------------------------------
 # freq=raman b3lyp/6-31+g(2d,p) geom=connectivity
 -------------------------------------------------

 -----------------
 483 8364/8364.com
 -----------------
 Symbolic Z-matrix:
 Charge =  0 Multiplicity = 1

                         Standard orientation:
 ---------------------------------------------------------------------
 Center     Atomic      Atomic             Coordinates (Angstroms)
 Number     Number       Type             X           Y           Z
 ---------------------------------------------------------------------
      1          8           0       -5.026742   -0.327396    0.476254
      2          6           0       -3.740952   -0.128806   -0.129927
      3          6           0       -3.213449    1.226506    0.312103
      4          8           0       -4.081649    2.233136   -0.228057
      5          1           0       -5.026072    2.068313    0.058256
      6          6           0       -1.869386    1.604625   -0.289138
      7          8           0       -1.320156    2.874265    0.091490
      8          1           0       -0.341911    3.009667   -0.062248
      9          6           0       -2.820863   -2.637300    0.207979
     10          8           0       -4.124500   -3.234465    0.175369
     11          1           0       -4.027392   -4.219952    0.313480
     12          6           0       -2.723738   -1.131138    0.390353
     13          8           0       -1.482465   -0.823835   -0.261574
     14          6           0       -0.927006    0.461918    0.052635
     15          8           0        0.245007    0.500118   -0.776062
     16          6           0        1.438776    0.187906   -0.043046
     17          6           0        1.931572   -1.157219   -0.552525
     18          8           0        0.981106   -2.229422   -0.492842
     19          1           0        0.087174   -1.780594   -0.498203
     20          6           0        3.264514   -1.525024    0.077767
     21          8           0        3.932939   -2.685063   -0.437755
     22          1           0        4.601619   -3.056328    0.207055
     23          6           0        2.385917    2.565571    0.179482
     24          8           0        1.298091    3.442079   -0.148090
     25          1           0        1.408918    4.433212   -0.082054
     26          6           0        2.623041    1.121464   -0.231167
     27          8           0        3.762463    0.763964    0.564718
     28          6           0        4.298308   -0.417313   -0.049075
     29          8           0        5.327936   -0.561043    0.941012
     30          1           0        6.159812   -0.769611    0.509641
     31          1           0        4.667142   -0.258283   -1.040827
     32          1           0        3.090606   -1.689350    1.120673
     33          1           0        2.133939   -1.012783   -1.593239
     34          1           0        1.207392    0.111338    0.998827
     35          1           0        2.908068    1.103084   -1.262341
     36          1           0        2.403696    2.547283    1.249178
     37          1           0        3.259924    3.086304   -0.151952
     38          1           0       -2.275113   -3.095559    1.006137
     39          1           0       -2.328948   -2.884341   -0.709566
     40          1           0       -2.599892   -0.943969    1.436551
     41          1           0       -5.673736   -0.527810   -0.204064
     42          1           0       -3.811360   -0.178208   -1.196464
     43          1           0       -3.181488    1.291146    1.379670
     44          1           0       -1.987743    1.616798   -1.352503
     45          1           0       -0.651262    0.503802    1.085645
 ---------------------------------------------------------------------

 SCF Done:  E(RB3LYP) =  -1297.96173735     A.U. after   13 cycles

 The electronic state is 1-A.
 Alpha  occ. eigenvalues --  -19.18313 -19.18298 -19.18247 -19.18069 -19.17361
 Alpha  occ. eigenvalues --  -19.16682 -19.16080 -19.15975 -19.14581 -19.13881
 Alpha  occ. eigenvalues --  -19.12749 -10.30369 -10.30113 -10.26267 -10.25750
 Alpha  occ. eigenvalues --  -10.25448 -10.25182 -10.25134 -10.24778 -10.24161
 Alpha  occ. eigenvalues --  -10.24117 -10.23926 -10.23923  -1.10363  -1.09900
 Alpha  occ. eigenvalues --   -1.05212  -1.04705  -1.03992  -1.03183  -1.02426
 Alpha  occ. eigenvalues --   -1.02147  -1.01539  -1.00544  -0.99146  -0.82330
 Alpha  occ. eigenvalues --   -0.80056  -0.79250  -0.78511  -0.71891  -0.70215
 Alpha  occ. eigenvalues --   -0.67010  -0.65134  -0.63652  -0.62459  -0.61631
 Alpha  occ. eigenvalues --   -0.60485  -0.56822  -0.55651  -0.55308  -0.54368
 Alpha  occ. eigenvalues --   -0.53815  -0.53391  -0.53039  -0.52223  -0.51301
 Alpha  occ. eigenvalues --   -0.50484  -0.49531  -0.48847  -0.47730  -0.46897
 Alpha  occ. eigenvalues --   -0.45420  -0.45165  -0.44437  -0.43591  -0.43119
 Alpha  occ. eigenvalues --   -0.42253  -0.41594  -0.40951  -0.39758  -0.39150
 Alpha  occ. eigenvalues --   -0.38617  -0.38297  -0.36645  -0.36190  -0.35901
 Alpha  occ. eigenvalues --   -0.35592  -0.34872  -0.34261  -0.34041  -0.32949
 Alpha  occ. eigenvalues --   -0.32249  -0.31719  -0.30641  -0.30257  -0.29511
 Alpha  occ. eigenvalues --   -0.29019  -0.28335  -0.28204  -0.27285  -0.26486
 Alpha  occ. eigenvalues --   -0.26150
 Alpha virt. eigenvalues --   -0.02116  -0.01605  -0.01578  -0.00451   0.00111
 Alpha virt. eigenvalues --    0.00900   0.01986   0.02565   0.02878   0.03599
 Alpha virt. eigenvalues --    0.03938   0.04612   0.04651   0.05150   0.05834

 Mulliken atomic charges:
              1
     1  O   -0.558369
     2  C    0.063535
     3  C    0.297116
     4  O   -0.560024
     5  H    0.339304
     6  C   -0.278711
     7  O   -0.609691
     8  H    0.431458
     9  C   -0.309056
    10  O   -0.521193
    11  H    0.337241
    12  C    0.180594
    13  O   -0.274001
    14  C    0.474187
    15  O   -0.198859
    16  C    0.162811
    17  C    0.106822
    18  O   -0.590922
    19  H    0.398556
    20  C    0.112205
    21  O   -0.553786
    22  H    0.341943
    23  C   -0.388940
    24  O   -0.604104
    25  H    0.371519
    26  C    0.011034
    27  O   -0.201598
    28  C    0.076856
    29  O   -0.534407
    30  H    0.327316
    31  H    0.144023
    32  H    0.128672
    33  H    0.112186
    34  H    0.107847
    35  H    0.117793
    36  H    0.154054
    37  H    0.142803
    38  H    0.142997
    39  H    0.151927
    40  H    0.104763
    41  H    0.342214
    42  H    0.129987
    43  H    0.126014
    44  H    0.131726
    45  H    0.114157
 Sum of Mulliken atomic charges =   0.00000

 Dipole moment (field-independent basis, Debye):
    X=              2.6480    Y=             -0.2560    Z=              0.2661  Tot=              2.6736
 Quadrupole moment (field-independent basis, Debye-Ang):
   XX=           -116.7580   YY=           -134.2650   ZZ=           -140.5332
   XY=             14.3961   XZ=             -1.5404   YZ=             -5.4480

  Exact polarizability: 233.554  -2.351 199.227   1.155  -0.606 143.015
 Approx polarizability: 274.769  -2.173 258.551   1.226  -0.644 239.989

 ******    7 imaginary frequencies (negative Signs) ******

                     1                      2                      3
                     A                      A                      A
 Frequencies --  -344.9260              -284.3701              -253.0168
 Red. masses --     1.7281                 1.7656                 1.1418
 Frc consts  --     0.1211                 0.0841                 0.0431
 IR Inten    --     5.2500                 7.9343                99.2252
 Raman Activ --     0.0433                 0.1045                 0.8213

                     4                      5                      6
                     A                      A                      A
 Frequencies --  -228.9930               -75.6614               -54.1014
 Red. masses --     1.1623                 6.6959                 6.3577
 Frc consts  --     0.0359                 0.0226                 0.0110
 IR Inten    --   117.7467                 0.4276                 1.5116
 Raman Activ --     0.8934                 0.0286                 0.1232

                     7                      8                      9
                     A                      A                      A
 Frequencies --   -30.0910                44.7187                59.7709
 Red. masses --     7.4293                 6.5603                 6.9752
 Frc consts  --     0.0040                 0.0077                 0.0147
 IR Inten    --     0.3569                 1.3968                 2.5509
 Raman Activ --     0.0195                 0.1229                 0.0785

                    10                     11                     12
                     A                      A                      A
 Frequencies --    77.6522                81.6935               109.1791
 Red. masses --     6.6207                 6.4633                 6.0442
 Frc consts  --     0.0235                 0.0254                 0.0424
 IR Inten    --     1.2995                 1.8948                 1.1981
 Raman Activ --     0.0333                 0.0867                 0.0711

                    13                     14                     15
                     A                      A                      A
 Frequencies --   152.7803               172.8958               191.7618
 Red. masses --     6.3976                 6.8746                 7.1360
 Frc consts  --     0.0880                 0.1211                 0.1546
 IR Inten    --     2.9249                 1.1765                 1.5001
 Raman Activ --     0.3494                 0.5905                 1.5035

                    16                     17                     18
                     A                      A                      A
 Frequencies --   211.6728               243.6503               271.3047
 Red. masses --     6.3722                 6.2751                 4.5604
 Frc consts  --     0.1682                 0.2195                 0.1978
 IR Inten    --     0.7931                 4.9018                13.6680
 Raman Activ --     1.3231                 0.8744                 0.2306

                    19                     20                     21
                     A                      A                      A
 Frequencies --   275.9044               289.8453               298.6689
 Red. masses --     6.2212                 5.0417                 4.8746
 Frc consts  --     0.2790                 0.2496                 0.2562
 IR Inten    --     7.1178                 1.5026                 1.9981
 Raman Activ --     0.3492                 0.1512                 0.2969

                    22                     23                     24
                     A                      A                      A
 Frequencies --   309.6461               316.6392               331.6159
 Red. masses --     6.2614                 5.7833                 5.4097
 Frc consts  --     0.3537                 0.3416                 0.3505
 IR Inten    --     4.7181                 0.8564                 5.1267
 Raman Activ --     2.4727                 0.9246                 3.8050

                    25                     26                     27
                     A                      A                      A
 Frequencies --   351.7509               364.5437               383.6989
 Red. masses --     6.5198                 4.5959                 7.0509
 Frc consts  --     0.4753                 0.3599                 0.6116
 IR Inten    --     6.6668                 3.9422                 1.5701
 Raman Activ --     1.5894                 0.1022                 2.7398

                    28                     29                     30
                     A                      A                      A
 Frequencies --   403.1149               422.1664               436.0194
 Red. masses --     6.1396                 6.3322                 3.4392
 Frc consts  --     0.5878                 0.6649                 0.3852
 IR Inten    --    12.8726                 2.6576                27.9217
 Raman Activ --     5.4575                 1.4288                 4.3765

                    31                     32                     33
                     A                      A                      A
 Frequencies --   457.7517               487.7665               497.5241
 Red. masses --     4.2922                 4.5400                 5.7555
 Frc consts  --     0.5299                 0.6364                 0.8394
 IR Inten    --     6.7475                14.7131                 4.5144
 Raman Activ --     2.5879                 4.6719                 0.9428

                    34                     35                     36
                     A                      A                      A
 Frequencies --   509.7513               541.9696               556.5545
 Red. masses --     3.1936                 1.6662                 1.7845
 Frc consts  --     0.4889                 0.2884                 0.3257
 IR Inten    --    28.9975                66.1199                18.6288
 Raman Activ --     4.9089                 1.3794                 1.0027

                    37                     38                     39
                     A                      A                      A
 Frequencies --   577.5402               598.6053               606.8098
 Red. masses --     4.2057                 2.6575                 5.9804
 Frc consts  --     0.8265                 0.5610                 1.2974
 IR Inten    --     2.8148                44.9601                 3.8742
 Raman Activ --     1.6340                 0.4729                 0.6271

                    40                     41                     42
                     A                      A                      A
 Frequencies --   641.3015               656.2877               695.2675
 Red. masses --     3.6325                 5.7136                 1.1009
 Frc consts  --     0.8802                 1.4499                 0.3135
 IR Inten    --     5.0261                32.4499               101.9442
 Raman Activ --     0.2141                 0.6975                 1.7072

                    43                     44                     45
                     A                      A                      A
 Frequencies --   699.5583               703.8464               747.4594
 Red. masses --     1.3023                 2.5912                 1.0735
 Frc consts  --     0.3755                 0.7563                 0.3534
 IR Inten    --    48.5246                51.5205                73.2682
 Raman Activ --     0.8605                 2.4140                 0.7894

                    46                     47                     48
                     A                      A                      A
 Frequencies --   774.2524               775.3753               857.4529
 Red. masses --     1.0653                 1.0791                 1.7651
 Frc consts  --     0.3763                 0.3822                 0.7646
 IR Inten    --    70.9749                88.5039                 0.9431
 Raman Activ --     1.7342                 1.1813                 1.1399

                    49                     50                     51
                     A                      A                      A
 Frequencies --   864.1394               930.9983               945.6194
 Red. masses --     1.9076                 5.1362                 6.0176
 Frc consts  --     0.8393                 2.6230                 3.1703
 IR Inten    --     7.7880                78.4070                 4.9950
 Raman Activ --     4.1953                 4.0201                 0.3920

                    52                     53                     54
                     A                      A                      A
 Frequencies --   966.8740               975.4730               978.3498
 Red. masses --     5.8150                 6.5764                 4.0787
 Frc consts  --     3.2029                 3.6870                 2.3002
 IR Inten    --   257.9605                10.9945               114.5595
 Raman Activ --     4.1292                 2.6891                 0.7263

                    55                     56                     57
                     A                      A                      A
 Frequencies --   994.5505              1002.0086              1017.9121
 Red. masses --     7.5527                 5.3667                 5.9252
 Frc consts  --     4.4016                 3.1747                 3.6172
 IR Inten    --   338.4163                40.9601                98.8888
 Raman Activ --     3.3678                 0.9776                 3.6895

                    58                     59                     60
                     A                      A                      A
 Frequencies --  1039.9770              1054.2109              1058.1165
 Red. masses --     5.5137                 4.1974                 4.4085
 Frc consts  --     3.5135                 2.7484                 2.9081
 IR Inten    --   138.0999                84.6036               123.1620
 Raman Activ --     1.3965                 5.7651                 2.8776

                    61                     62                     63
                     A                      A                      A
 Frequencies --  1065.6932              1069.1296              1077.0547
 Red. masses --     3.7770                 4.1944                 2.8189
 Frc consts  --     2.5274                 2.8247                 1.9266
 IR Inten    --    65.8151                64.9094                 9.6008
 Raman Activ --     5.9742                 1.9857                27.4255

                    64                     65                     66
                     A                      A                      A
 Frequencies --  1090.9468              1094.5576              1102.0906
 Red. masses --     3.5083                 2.9450                 3.1171
 Frc consts  --     2.4601                 2.0788                 2.2306
 IR Inten    --    35.3847                22.3863                75.4970
 Raman Activ --    14.9421                 7.3312                 3.1713

                    67                     68                     69
                     A                      A                      A
 Frequencies --  1110.9512              1116.3845              1129.8179
 Red. masses --     2.6106                 2.4155                 2.3117
 Frc consts  --     1.8983                 1.7737                 1.7386
 IR Inten    --    37.1257                16.6068                64.7401
 Raman Activ --     7.0101                 6.0254                 2.7136

                    70                     71                     72
                     A                      A                      A
 Frequencies --  1143.7073              1146.7211              1154.1897
 Red. masses --     3.0898                 1.6974                 1.6588
 Frc consts  --     2.3813                 1.3150                 1.3020
 IR Inten    --     9.3375                56.8487                 9.5078
 Raman Activ --     5.5247                 2.3978                 1.9266

                    73                     74                     75
                     A                      A                      A
 Frequencies --  1175.7949              1188.3777              1196.2601
 Red. masses --     2.1702                 1.9446                 1.6491
 Frc consts  --     1.7677                 1.6181                 1.3904
 IR Inten    --    17.3009                14.2280                54.2064
 Raman Activ --     2.3027                 1.1733                 1.0650

                    76                     77                     78
                     A                      A                      A
 Frequencies --  1201.6592              1216.5671              1222.0510
 Red. masses --     1.4886                 1.3736                 1.4420
 Frc consts  --     1.2664                 1.1978                 1.2688
 IR Inten    --    20.7153                 6.4837                 6.8514
 Raman Activ --     3.8340                 0.9639                 1.1229

                    79                     80                     81
                     A                      A                      A
 Frequencies --  1226.2037              1251.6944              1260.4502
 Red. masses --     1.5228                 1.1700                 1.3311
 Frc consts  --     1.3490                 1.0800                 1.2460
 IR Inten    --    17.2978                 2.5776                22.7478
 Raman Activ --     1.3092                 1.4870                 0.5175

                    82                     83                     84
                     A                      A                      A
 Frequencies --  1265.7157              1276.6155              1286.4971
 Red. masses --     1.2957                 1.2553                 1.2131
 Frc consts  --     1.2230                 1.2054                 1.1829
 IR Inten    --    26.9450                30.1071                11.3233
 Raman Activ --     3.9434                 4.1732                 2.7549

                    85                     86                     87
                     A                      A                      A
 Frequencies --  1293.3255              1307.6326              1312.8197
 Red. masses --     1.4313                 1.2952                 1.2017
 Frc consts  --     1.4106                 1.3049                 1.2202
 IR Inten    --    48.9585                10.7717                46.3219
 Raman Activ --     2.5737                 3.5397                 7.3173

                    88                     89                     90
                     A                      A                      A
 Frequencies --  1319.6170              1323.6968              1326.6761
 Red. masses --     1.3438                 1.3498                 1.2535
 Frc consts  --     1.3788                 1.3934                 1.2999
 IR Inten    --    23.4873                12.5878                26.8970
 Raman Activ --     3.0047                 3.1753                 5.2093

                    91                     92                     93
                     A                      A                      A
 Frequencies --  1335.5747              1348.5383              1358.1978
 Red. masses --     1.2126                 1.1344                 1.4808
 Frc consts  --     1.2744                 1.2155                 1.6095
 IR Inten    --    13.4827                17.4099                 9.5218
 Raman Activ --     6.5753                 1.5634                 3.8977

                    94                     95                     96
                     A                      A                      A
 Frequencies --  1359.9077              1363.1910              1380.2188
 Red. masses --     1.1715                 1.3266                 1.3845
 Frc consts  --     1.2764                 1.4524                 1.5540
 IR Inten    --    22.4178                 9.9365                 1.4685
 Raman Activ --     4.3080                 5.5926                 4.7623

                    97                     98                     99
                     A                      A                      A
 Frequencies --  1386.7529              1401.3552              1409.1206
 Red. masses --     1.3419                 1.5367                 1.2723
 Frc consts  --     1.5205                 1.7780                 1.4885
 IR Inten    --     3.2808                 7.7839                 7.4432
 Raman Activ --     7.6441                 4.1515                 6.6768

                   100                    101                    102
                     A                      A                      A
 Frequencies --  1418.9227              1420.7950              1441.5422
 Red. masses --     1.3921                 1.3865                 1.3820
 Frc consts  --     1.6513                 1.6491                 1.6920
 IR Inten    --    28.9887                27.3835                59.4558
 Raman Activ --     1.4565                 5.3113                 0.8737

                   103                    104                    105
                     A                      A                      A
 Frequencies --  1445.1885              1459.0445              1470.7495
 Red. masses --     1.2347                 1.1163                 1.2200
 Frc consts  --     1.5193                 1.4001                 1.5549
 IR Inten    --     5.7317                 2.5797                14.8447
 Raman Activ --     2.5415                 3.2308                 4.3098

                   106                    107                    108
                     A                      A                      A
 Frequencies --  1479.7437              1527.5268              3231.3975
 Red. masses --     1.2175                 1.2293                 1.0718
 Frc consts  --     1.5707                 1.6900                 6.5938
 IR Inten    --     3.3766                50.0087               966.6476
 Raman Activ --     1.7937                 1.7429               171.3691

                   109                    110                    111
                     A                      A                      A
 Frequencies --  3256.0972              3256.6990              3256.8529
 Red. masses --     1.0677                 1.0651                 1.0662
 Frc consts  --     6.6695                 6.6555                 6.6630
 IR Inten    --    88.3096                55.0260                 2.4214
 Raman Activ --   152.6059                92.4688                38.8683

                   112                    113                    114
                     A                      A                      A
 Frequencies --  3266.3089              3267.3145              3277.1054
 Red. masses --     1.0818                 1.0826                 1.0849
 Frc consts  --     6.8002                 6.8092                 6.8645
 IR Inten    --    11.6152                11.2840                 5.6229
 Raman Activ --    48.4055                83.7215                75.0424

                   115                    116                    117
                     A                      A                      A
 Frequencies --  3283.8235              3286.1610              3291.4494
 Red. masses --     1.0835                 1.0841                 1.0854
 Frc consts  --     6.8839                 6.8973                 6.9280
 IR Inten    --     4.1021                 3.3085                30.3177
 Raman Activ --    79.1934                43.9682                 9.0199

                   118                    119                    120
                     A                      A                      A
 Frequencies --  3294.2908              3299.9228              3305.8404
 Red. masses --     1.0809                 1.0744                 1.0911
 Frc consts  --     6.9112                 6.8935                 7.0254
 IR Inten    --   191.5430               481.3890                13.8510
 Raman Activ --    36.5550               183.9312                23.0133

                   121                    122                    123
                     A                      A                      A
 Frequencies --  3307.2094              3313.2474              3314.2912
 Red. masses --     1.0889                 1.1025                 1.1030
 Frc consts  --     7.0174                 7.1309                 7.1386
 IR Inten    --    34.7891                52.5547                82.6037
 Raman Activ --    28.4504                25.6336                45.9611

                   124                    125                    126
                     A                      A                      A
 Frequencies --  3359.5280              3368.2139              3370.8563
 Red. masses --     1.0654                 1.0672                 1.0673
 Frc consts  --     7.0849                 7.1333                 7.1449
 IR Inten    --    25.4143                54.1179                45.9198
 Raman Activ --   144.2125               138.2275               164.5674

                   127                    128                    129
                     A                      A                      A
 Frequencies --  3380.0294              3891.0926              3891.2461
 Red. masses --     1.0687                 1.0675                 1.0672
 Frc consts  --     7.1933                 9.5227                 9.5205
 IR Inten    --   108.3444               105.2893                26.0713
 Raman Activ --   175.4162                51.1760               182.8613

 - Thermochemistry -
 -------------------
 Temperature   298.150 Kelvin.  Pressure   1.00000 Atm.
 Atom     1 has atomic number  8 and mass  15.99491

 Molecular mass:   342.11621 amu.
 Principal axes and moments of inertia in atomic units:
                           1         2         3
     Eigenvalues --  4523.95117********************
           X            0.99997   0.00747  -0.00105
           Y           -0.00747   0.99997  -0.00216
           Z            0.00103   0.00217   1.00000
 This molecule is an asymmetric top.
 Rotational symmetry number  1.
 Warning -- assumption of classical behavior for rotation
           may cause significant error
 Rotational temperatures (Kelvin)      0.01915     0.00715     0.00537
 Rotational constants (GHZ):           0.39893     0.14895     0.11190
    7 imaginary frequencies ignored.
 Zero-point vibrational energy     973414.8 (Joules/Mol)
                                  232.65172 (Kcal/Mol)
 Warning -- explicit consideration of  32 degrees of freedom as
           vibrations may cause significant error
 Vibrational temperatures:     64.34    86.00   111.72   117.54   157.08
          (Kelvin)            219.82   248.76   275.90   304.55   350.56
                              390.35   396.96   417.02   429.72   445.51
                              455.57   477.12   506.09   524.50   552.06
                              579.99   607.40   627.33   658.60   701.79
                              715.83   733.42   779.77   800.76   830.95
                              861.26   873.06   922.69   944.25  1000.33
                             1006.51  1012.68  1075.43  1113.98  1115.59
                             1233.68  1243.30  1339.50  1360.53  1391.11
                             1403.49  1407.63  1430.93  1441.67  1464.55
                             1496.29  1516.77  1522.39  1533.29  1538.24
                             1549.64  1569.63  1574.82  1585.66  1598.41
                             1606.23  1625.55  1645.54  1649.87  1660.62
                             1691.70  1709.81  1721.15  1728.92  1750.37
                             1758.26  1764.23  1800.91  1813.50  1821.08
                             1836.76  1850.98  1860.80  1881.39  1888.85
                             1898.63  1904.50  1908.79  1921.59  1940.24
                             1954.14  1956.60  1961.33  1985.82  1995.23
                             2016.24  2027.41  2041.51  2044.20  2074.06
                             2079.30  2099.24  2116.08  2129.02  2197.77
                             4649.25  4684.79  4685.66  4685.88  4699.48
                             4700.93  4715.02  4724.68  4728.05  4735.66
                             4739.74  4747.85  4756.36  4758.33  4767.02
                             4768.52  4833.61  4846.10  4849.90  4863.10
                             5598.41  5598.63

 Zero-point correction=                           0.370754 (Hartree/Particle)
 Thermal correction to Energy=                    0.389099
 Thermal correction to Enthalpy=                  0.390043
 Thermal correction to Gibbs Free Energy=         0.325080
 Sum of electronic and zero-point Energies=          -1297.590983
 Sum of electronic and thermal Energies=             -1297.572638
 Sum of electronic and thermal Enthalpies=           -1297.571694
 Sum of electronic and thermal Free Energies=        -1297.636657

                     E (Thermal)             CV                S
                      KCal/Mol        Cal/Mol-Kelvin    Cal/Mol-Kelvin
 Total                  244.163             76.074            136.726
 Electronic               0.000              0.000              0.000
 Translational            0.889              2.981             43.384
 Rotational               0.889              2.981             35.135
 Vibrational            242.386             70.113             58.207
 Vibration     1          0.595              1.980              5.038
 Vibration     2          0.597              1.973              4.465
 Vibration     3          0.599              1.964              3.949
 Vibration     4          0.600              1.962              3.850
 Vibration     5          0.606              1.942              3.283
 Vibration     6          0.619              1.900              2.637
 Vibration     7          0.626              1.876              2.404
 Vibration     8          0.634              1.851              2.211
 Vibration     9          0.643              1.823              2.029
 Vibration    10          0.659              1.773              1.776
 Vibration    11          0.675              1.726              1.588
 Vibration    12          0.678              1.718              1.559
 Vibration    13          0.686              1.693              1.475
 Vibration    14          0.692              1.676              1.424
 Vibration    15          0.699              1.655              1.364
 Vibration    16          0.704              1.642              1.327
 Vibration    17          0.714              1.612              1.252
 Vibration    18          0.728              1.572              1.158
 Vibration    19          0.738              1.545              1.103
 Vibration    20          0.753              1.505              1.025
 Vibration    21          0.769              1.463              0.951
 Vibration    22          0.784              1.422              0.885
 Vibration    23          0.796              1.392              0.839
 Vibration    24          0.816              1.344              0.773
 Vibration    25          0.844              1.277              0.689
 Vibration    26          0.853              1.256              0.664
 Vibration    27          0.865              1.228              0.634
 Vibration    28          0.897              1.157              0.561
 Vibration    29          0.912              1.125              0.531
 Vibration    30          0.934              1.080              0.490
 Vibration    31          0.957              1.035              0.452
 Vibration    32          0.966              1.017              0.438

 Normal termination of Gaussian 09 at Thu Mar 31 02:25:34 2016.
