 Gaussian 09, Revision B.01,
 Gaussian 09:  EM64L-G09RevB.01 12-Aug-2010

 -------------------------------------------------
 # freq=raman b3lyp/6-31+g(2d,p) geom=connectivity
 -------------------------------------------------

 -----------------
 423 9225/9225.com
 -----------------
 Symbolic Z-matrix:
 Charge =  0 Multiplicity = 1

                         Standard orientation:
 ---------------------------------------------------------------------
 Center     Atomic      Atomic             Coordinates (Angstroms)
 Number     Number       Type             X           Y           Z
 ---------------------------------------------------------------------
      1          8           0        4.949316   -0.579983   -0.293111
      2          6           0        3.725752   -0.187911    0.346499
      3          6           0        3.271339    1.155797   -0.199321
      4          8           0        4.192643    2.255101   -0.139896
      5          1           0        5.088996    1.888947   -0.390839
      6          6           0        1.884206    1.547845    0.280120
      7          8           0        1.557074    2.776059   -0.386724
      8          1           0        0.653662    2.982652   -0.011179
      9          6           0        2.909485   -2.615741    0.135288
     10          8           0        4.085307   -3.172106   -0.470228
     11          1           0        4.076153   -4.172030   -0.492363
     12          6           0        2.648911   -1.143438   -0.140150
     13          8           0        1.444197   -0.784661    0.553332
     14          6           0        0.945361    0.406269   -0.072855
     15          8           0       -0.268617    0.565910    0.675300
     16          6           0       -1.504098    0.246438    0.019434
     17          6           0       -2.035870   -1.130272    0.384393
     18          8           0       -1.083013   -2.083181   -0.108209
     19          1           0       -0.239075   -1.755470    0.316139
     20          6           0       -3.385318   -1.524679   -0.193466
     21          8           0       -4.010797   -2.630838    0.473853
     22          1           0       -4.829367   -2.888327   -0.037984
     23          6           0       -2.255595    2.656154   -0.250405
     24          8           0       -1.147985    3.343118    0.350425
     25          1           0       -1.169633    4.306340    0.082768
     26          6           0       -2.586796    1.276542    0.297335
     27          8           0       -3.839951    0.890974   -0.286462
     28          6           0       -4.362964   -0.393625    0.081964
     29          8           0       -5.419602   -0.625593   -0.860730
     30          1           0       -6.221436   -0.864862   -0.390185
     31          1           0        5.580816   -0.864815    0.371477
     32          1           0        2.063329   -3.172832   -0.209052
     33          1           0        2.987688   -2.746686    1.194362
     34          1           0        2.504460   -1.003387   -1.191063
     35          1           0        3.808007   -0.184022    1.413326
     36          1           0        3.147988    0.979111   -1.247398
     37          1           0        1.893741    1.698719    1.339387
     38          1           0        0.782008    0.293347   -1.124265
     39          1           0       -3.123885    3.271472   -0.139250
     40          1           0       -2.051984    2.554899   -1.295962
     41          1           0       -2.715505    1.354310    1.356715
     42          1           0       -1.318012    0.250707   -1.034251
     43          1           0       -2.082740   -1.208692    1.450485
     44          1           0       -3.309570   -1.709895   -1.244588
     45          1           0       -4.720685   -0.408148    1.090291
 ---------------------------------------------------------------------

 SCF Done:  E(RB3LYP) =  -1297.99042822     A.U. after   13 cycles

 The electronic state is 1-A.
 Alpha  occ. eigenvalues --  -19.18416 -19.18353 -19.17848 -19.17645 -19.17408
 Alpha  occ. eigenvalues --  -19.16392 -19.16201 -19.15769 -19.14666 -19.14243
 Alpha  occ. eigenvalues --  -19.14066 -10.30533 -10.30062 -10.25803 -10.25336
 Alpha  occ. eigenvalues --  -10.25039 -10.24960 -10.24756 -10.24612 -10.24157
 Alpha  occ. eigenvalues --  -10.24066 -10.23996 -10.23484  -1.10433  -1.08792
 Alpha  occ. eigenvalues --   -1.05108  -1.04719  -1.03721  -1.03637  -1.02555
 Alpha  occ. eigenvalues --   -1.02151  -1.01887  -1.01195  -1.00044  -0.81845
 Alpha  occ. eigenvalues --   -0.80319  -0.79000  -0.77901  -0.71754  -0.69902
 Alpha  occ. eigenvalues --   -0.67050  -0.64742  -0.63075  -0.62009  -0.61298
 Alpha  occ. eigenvalues --   -0.60315  -0.56468  -0.55558  -0.54729  -0.54066
 Alpha  occ. eigenvalues --   -0.53452  -0.53251  -0.52567  -0.52201  -0.51212
 Alpha  occ. eigenvalues --   -0.50505  -0.49627  -0.48989  -0.48286  -0.46259
 Alpha  occ. eigenvalues --   -0.46051  -0.45149  -0.43887  -0.43375  -0.42803
 Alpha  occ. eigenvalues --   -0.42595  -0.41892  -0.40403  -0.40290  -0.39048
 Alpha  occ. eigenvalues --   -0.38836  -0.37972  -0.37525  -0.36260  -0.35805
 Alpha  occ. eigenvalues --   -0.35517  -0.34872  -0.34660  -0.34289  -0.34013
 Alpha  occ. eigenvalues --   -0.32519  -0.31364  -0.30999  -0.30494  -0.29935
 Alpha  occ. eigenvalues --   -0.28870  -0.28462  -0.27963  -0.27367  -0.26430
 Alpha  occ. eigenvalues --   -0.26207
 Alpha virt. eigenvalues --   -0.01830  -0.01658  -0.01564   0.00098   0.00490
 Alpha virt. eigenvalues --    0.01001   0.02022   0.02235   0.02948   0.03435
 Alpha virt. eigenvalues --    0.03803   0.04167   0.05089   0.05333   0.05564

 Mulliken atomic charges:
              1
     1  O   -0.539505
     2  C    0.111473
     3  C    0.102592
     4  O   -0.572188
     5  H    0.342837
     6  C   -0.090470
     7  O   -0.545402
     8  H    0.393994
     9  C   -0.210908
    10  O   -0.532501
    11  H    0.345216
    12  C    0.138991
    13  O   -0.253326
    14  C    0.058246
    15  O   -0.217174
    16  C    0.346993
    17  C    0.124282
    18  O   -0.550890
    19  H    0.374022
    20  C    0.020227
    21  O   -0.542555
    22  H    0.335316
    23  C   -0.198058
    24  O   -0.558711
    25  H    0.356942
    26  C   -0.127139
    27  O   -0.256920
    28  C    0.172356
    29  O   -0.542044
    30  H    0.332776
    31  H    0.334909
    32  H    0.148955
    33  H    0.139351
    34  H    0.114048
    35  H    0.121523
    36  H    0.104807
    37  H    0.132398
    38  H    0.144674
    39  H    0.146667
    40  H    0.152127
    41  H    0.121349
    42  H    0.107246
    43  H    0.128982
    44  H    0.143436
    45  H    0.141057
 Sum of Mulliken atomic charges =   0.00000

 Dipole moment (field-independent basis, Debye):
    X=             -2.3965    Y=             -1.0288    Z=              1.5673  Tot=              3.0427
 Quadrupole moment (field-independent basis, Debye-Ang):
   XX=           -118.2832   YY=           -133.4916   ZZ=           -140.1602
   XY=            -14.8487   XZ=              3.3185   YZ=              0.2897

  Exact polarizability: 231.865   3.077 197.311   0.071  -0.587 143.561
 Approx polarizability: 271.894   3.781 256.604  -1.006  -0.106 240.978

 ******    6 imaginary frequencies (negative Signs) ******

                     1                      2                      3
                     A                      A                      A
 Frequencies --  -302.7343              -243.5091              -240.9816
 Red. masses --     1.1848                 1.6824                 1.8474
 Frc consts  --     0.0640                 0.0588                 0.0632
 IR Inten    --    92.1000                11.9940                 5.1062
 Raman Activ --     0.7804                 0.2899                 0.0657

                     4                      5                      6
                     A                      A                      A
 Frequencies --  -229.8634               -72.8824               -51.7830
 Red. masses --     1.2128                 6.3469                 6.1482
 Frc consts  --     0.0378                 0.0199                 0.0097
 IR Inten    --   126.6713                 0.5478                 0.3211
 Raman Activ --     1.1938                 0.0348                 0.0171

                     7                      8                      9
                     A                      A                      A
 Frequencies --    28.5757                46.5607                74.1248
 Red. masses --     6.8505                 6.1569                 6.1793
 Frc consts  --     0.0033                 0.0079                 0.0200
 IR Inten    --     0.1950                 1.3079                 1.2113
 Raman Activ --     0.0968                 0.0303                 0.2172

                    10                     11                     12
                     A                      A                      A
 Frequencies --    97.4239               107.2738               113.9578
 Red. masses --     6.3263                 6.2261                 5.8556
 Frc consts  --     0.0354                 0.0422                 0.0448
 IR Inten    --     0.9306                 0.7526                 3.7487
 Raman Activ --     0.0616                 0.0466                 0.1209

                    13                     14                     15
                     A                      A                      A
 Frequencies --   155.4938               174.2982               188.1742
 Red. masses --     6.6354                 5.3092                 6.7214
 Frc consts  --     0.0945                 0.0950                 0.1402
 IR Inten    --     2.7219                 2.4411                 0.1858
 Raman Activ --     0.5361                 0.3964                 1.5087

                    16                     17                     18
                     A                      A                      A
 Frequencies --   200.4684               230.2771               272.2153
 Red. masses --     6.6942                 6.0234                 5.5415
 Frc consts  --     0.1585                 0.1882                 0.2419
 IR Inten    --     0.6219                 0.8748                 4.5963
 Raman Activ --     0.1365                 0.8305                 0.3656

                    19                     20                     21
                     A                      A                      A
 Frequencies --   281.5906               294.8408               303.1069
 Red. masses --     4.9019                 5.8394                 5.1347
 Frc consts  --     0.2290                 0.2991                 0.2779
 IR Inten    --     3.9332                 5.2733                 0.6193
 Raman Activ --     0.2165                 0.7507                 0.5336

                    22                     23                     24
                     A                      A                      A
 Frequencies --   314.7160               321.3703               330.8033
 Red. masses --     5.7095                 4.8779                 6.3257
 Frc consts  --     0.3332                 0.2968                 0.4079
 IR Inten    --     6.7152                 2.1892                 0.6538
 Raman Activ --     0.6079                 2.2627                 1.8546

                    25                     26                     27
                     A                      A                      A
 Frequencies --   339.2395               360.6242               371.9042
 Red. masses --     7.2756                 4.7001                 7.3314
 Frc consts  --     0.4933                 0.3601                 0.5974
 IR Inten    --    15.9271                 5.3009                 3.5009
 Raman Activ --     4.8475                 0.1193                 2.3859

                    28                     29                     30
                     A                      A                      A
 Frequencies --   406.8421               429.4678               439.5688
 Red. masses --     4.7134                 5.0945                 4.9396
 Frc consts  --     0.4597                 0.5536                 0.5623
 IR Inten    --    17.7903                15.6552                 0.8652
 Raman Activ --     1.5263                 0.8112                 4.3379

                    31                     32                     33
                     A                      A                      A
 Frequencies --   452.4898               484.0543               499.9714
 Red. masses --     4.8052                 4.8192                 3.8333
 Frc consts  --     0.5797                 0.6653                 0.5646
 IR Inten    --     2.2283                 4.1848                 7.1538
 Raman Activ --     3.0811                 5.7217                 0.3627

                    34                     35                     36
                     A                      A                      A
 Frequencies --   522.3373               535.0611               574.5933
 Red. masses --     4.1315                 3.0212                 4.0166
 Frc consts  --     0.6641                 0.5096                 0.7813
 IR Inten    --     7.9207                11.0097                 8.8899
 Raman Activ --     1.6947                 2.9047                 1.3461

                    37                     38                     39
                     A                      A                      A
 Frequencies --   591.7158               608.2819               622.6412
 Red. masses --     2.8732                 5.9403                 5.0448
 Frc consts  --     0.5927                 1.2950                 1.1523
 IR Inten    --    40.2181                12.0491                11.2659
 Raman Activ --     0.2374                 0.4662                 0.4958

                    40                     41                     42
                     A                      A                      A
 Frequencies --   635.1086               681.1488               705.5246
 Red. masses --     4.1030                 1.0970                 4.9163
 Frc consts  --     0.9751                 0.2999                 1.4418
 IR Inten    --    36.1129               114.6017                 5.2407
 Raman Activ --     1.1048                 1.8082                 1.5123

                    43                     44                     45
                     A                      A                      A
 Frequencies --   729.0376               730.1094               746.3727
 Red. masses --     1.0759                 1.0773                 1.0689
 Frc consts  --     0.3369                 0.3383                 0.3508
 IR Inten    --    21.8240               183.1717                99.2868
 Raman Activ --     2.2822                 0.6731                 1.7709

                    46                     47                     48
                     A                      A                      A
 Frequencies --   849.7387               858.2566               868.8035
 Red. masses --     1.1996                 1.7262                 1.4923
 Frc consts  --     0.5103                 0.7492                 0.6637
 IR Inten    --    62.3231                 5.9407                30.5427
 Raman Activ --     1.2707                 1.3182                 0.2544

                    49                     50                     51
                     A                      A                      A
 Frequencies --   876.2222               920.0730               949.5085
 Red. masses --     1.1221                 5.2087                 4.9184
 Frc consts  --     0.5076                 2.5979                 2.6126
 IR Inten    --    88.7280               151.4492                44.7037
 Raman Activ --     2.5424                 4.4050                 0.5988

                    52                     53                     54
                     A                      A                      A
 Frequencies --   982.4291               988.5045               991.7239
 Red. masses --     5.2819                 5.7742                 5.2787
 Frc consts  --     3.0036                 3.3243                 3.0589
 IR Inten    --    62.3571               137.3209                32.7466
 Raman Activ --     1.3062                 2.5055                 1.7931

                    55                     56                     57
                     A                      A                      A
 Frequencies --   999.0222              1001.9437              1024.1745
 Red. masses --     5.1911                 5.8872                 5.9983
 Frc consts  --     3.0525                 3.4821                 3.7070
 IR Inten    --   156.3645               233.1699                92.4413
 Raman Activ --     3.1684                 2.1246                 2.2357

                    58                     59                     60
                     A                      A                      A
 Frequencies --  1035.4612              1049.8356              1060.5009
 Red. masses --     6.7747                 5.6729                 5.1549
 Frc consts  --     4.2797                 3.6838                 3.4158
 IR Inten    --   368.6237               101.9442               113.0728
 Raman Activ --     1.9354                 5.1720                 7.3212

                    61                     62                     63
                     A                      A                      A
 Frequencies --  1062.8101              1074.2912              1080.6502
 Red. masses --     4.1357                 3.1933                 5.4456
 Frc consts  --     2.7524                 2.1714                 3.7468
 IR Inten    --    39.0473                 3.9012                29.8422
 Raman Activ --     6.7655                34.1560                 0.1881

                    64                     65                     66
                     A                      A                      A
 Frequencies --  1087.6401              1097.8289              1103.5431
 Red. masses --     2.3890                 2.5595                 2.2864
 Frc consts  --     1.6651                 1.8175                 1.6405
 IR Inten    --    49.6140                43.8738                71.1337
 Raman Activ --     0.8499                 1.8243                 5.5561

                    67                     68                     69
                     A                      A                      A
 Frequencies --  1105.2389              1116.6977              1122.5599
 Red. masses --     2.5879                 3.0113                 1.8702
 Frc consts  --     1.8626                 2.2125                 1.3885
 IR Inten    --    22.8378                18.3558                20.5851
 Raman Activ --     0.4560                 0.7573                 8.1218

                    70                     71                     72
                     A                      A                      A
 Frequencies --  1131.8918              1146.5885              1149.7176
 Red. masses --     2.2521                 2.4832                 1.4812
 Frc consts  --     1.7000                 1.9235                 1.1535
 IR Inten    --    49.5345                 8.7232                11.2641
 Raman Activ --     3.4355                 4.5612                 2.6357

                    73                     74                     75
                     A                      A                      A
 Frequencies --  1160.0376              1174.7502              1179.2090
 Red. masses --     1.9100                 2.0304                 1.9351
 Frc consts  --     1.5144                 1.6509                 1.5854
 IR Inten    --     0.0567                 1.7989                 9.2578
 Raman Activ --     7.2805                 2.5566                 2.9813

                    76                     77                     78
                     A                      A                      A
 Frequencies --  1190.7306              1193.1430              1224.3947
 Red. masses --     1.3947                 1.3394                 1.3149
 Frc consts  --     1.1651                 1.1234                 1.1614
 IR Inten    --    28.6905                14.1906                 8.5259
 Raman Activ --     1.0066                 3.3808                 0.3929

                    79                     80                     81
                     A                      A                      A
 Frequencies --  1232.3090              1233.4288              1240.9096
 Red. masses --     1.2176                 1.2016                 1.2625
 Frc consts  --     1.0894                 1.0770                 1.1454
 IR Inten    --    12.0104                 7.7094                11.2226
 Raman Activ --     1.4645                 1.6649                 1.1701

                    82                     83                     84
                     A                      A                      A
 Frequencies --  1260.5178              1268.0077              1269.8270
 Red. masses --     1.2325                 1.3330                 1.3507
 Frc consts  --     1.1538                 1.2628                 1.2832
 IR Inten    --    19.5941                11.1570                15.8479
 Raman Activ --     7.7571                 0.4374                 2.8651

                    85                     86                     87
                     A                      A                      A
 Frequencies --  1277.1518              1291.7996              1292.6255
 Red. masses --     1.2196                 1.1857                 1.4254
 Frc consts  --     1.1721                 1.1658                 1.4032
 IR Inten    --    21.1847                24.7498                12.3422
 Raman Activ --     1.5154                 2.6455                 3.1027

                    88                     89                     90
                     A                      A                      A
 Frequencies --  1304.4108              1315.1967              1323.1640
 Red. masses --     1.3203                 1.2606                 1.3476
 Frc consts  --     1.3235                 1.2847                 1.3901
 IR Inten    --    10.6888                37.1393                18.9188
 Raman Activ --     6.4004                 7.5427                 7.9270

                    91                     92                     93
                     A                      A                      A
 Frequencies --  1327.5628              1335.0904              1339.7383
 Red. masses --     1.3055                 1.2303                 1.2848
 Frc consts  --     1.3556                 1.2920                 1.3587
 IR Inten    --    37.4464                42.7420                28.5618
 Raman Activ --     1.4122                 0.9360                 3.3652

                    94                     95                     96
                     A                      A                      A
 Frequencies --  1356.5481              1365.2641              1372.6946
 Red. masses --     1.5071                 1.6035                 1.4686
 Frc consts  --     1.6340                 1.7609                 1.6305
 IR Inten    --     3.3114                10.1630                 3.9139
 Raman Activ --     7.3293                 6.6768                 5.9223

                    97                     98                     99
                     A                      A                      A
 Frequencies --  1379.1905              1394.3303              1407.9336
 Red. masses --     1.6319                 1.4385                 1.2060
 Frc consts  --     1.8289                 1.6477                 1.4085
 IR Inten    --    20.8163                 3.3287                23.3865
 Raman Activ --     5.1720                 7.7133                 0.7029

                   100                    101                    102
                     A                      A                      A
 Frequencies --  1430.6751              1441.7658              1454.7610
 Red. masses --     1.4140                 1.4367                 1.3682
 Frc consts  --     1.7052                 1.7596                 1.7060
 IR Inten    --    33.2102                19.3991                21.4361
 Raman Activ --     1.2309                 1.1231                 3.0094

                   103                    104                    105
                     A                      A                      A
 Frequencies --  1463.5938              1474.1164              1478.7318
 Red. masses --     1.4106                 1.0911                 1.0818
 Frc consts  --     1.7804                 1.3969                 1.3938
 IR Inten    --    19.9906                 3.0346                 4.3175
 Raman Activ --     0.9848                 3.6051                 4.4007

                   106                    107                    108
                     A                      A                      A
 Frequencies --  1533.5098              1538.4983              3252.2709
 Red. masses --     1.2425                 1.2295                 1.0809
 Frc consts  --     1.7215                 1.7146                 6.7361
 IR Inten    --    48.6608                31.1580                17.5864
 Raman Activ --     2.0637                 0.3526                26.8287

                   109                    110                    111
                     A                      A                      A
 Frequencies --  3256.7494              3260.2241              3269.7684
 Red. masses --     1.0576                 1.0581                 1.0819
 Frc consts  --     6.6092                 6.6261                 6.8151
 IR Inten    --    33.5991                60.3297                 2.7466
 Raman Activ --   110.9903                77.2519                95.0513

                   112                    113                    114
                     A                      A                      A
 Frequencies --  3275.5118              3279.9024              3287.5728
 Red. masses --     1.0826                 1.0840                 1.0853
 Frc consts  --     6.8436                 6.8708                 6.9110
 IR Inten    --    18.5972                 7.9387                26.4498
 Raman Activ --    22.6956                59.0946                81.5252

                   115                    116                    117
                     A                      A                      A
 Frequencies --  3290.5094              3295.5645              3296.1951
 Red. masses --     1.0823                 1.0862                 1.0719
 Frc consts  --     6.9045                 6.9502                 6.8618
 IR Inten    --    81.2640                36.7337               180.0848
 Raman Activ --    82.3939               102.3161               208.4963

                   118                    119                    120
                     A                      A                      A
 Frequencies --  3299.0399              3305.6827              3309.0733
 Red. masses --     1.0869                 1.0856                 1.0868
 Frc consts  --     6.9696                 6.9892                 7.0115
 IR Inten    --    22.6657               151.2552                46.0259
 Raman Activ --    72.5538                17.2841                 8.9514

                   121                    122                    123
                     A                      A                      A
 Frequencies --  3312.1675              3315.3089              3318.0544
 Red. masses --     1.0833                 1.0916                 1.1060
 Frc consts  --     7.0023                 7.0691                 7.1742
 IR Inten    --   242.0542               248.5088                54.8523
 Raman Activ --    46.7161                98.1267                38.0764

                   124                    125                    126
                     A                      A                      A
 Frequencies --  3362.6394              3365.5165              3372.0901
 Red. masses --     1.0680                 1.0655                 1.0669
 Frc consts  --     7.1153                 7.1103                 7.1478
 IR Inten    --    37.6036                39.5211                62.0286
 Raman Activ --   190.1957               126.2260               129.6695

                   127                    128                    129
                     A                      A                      A
 Frequencies --  3381.5746              3889.3651              3891.2043
 Red. masses --     1.0659                 1.0674                 1.0675
 Frc consts  --     7.1810                 9.5132                 9.5233
 IR Inten    --    39.5314                66.3611                68.6638
 Raman Activ --   137.7438               115.5996               102.1795

 - Thermochemistry -
 -------------------
 Temperature   298.150 Kelvin.  Pressure   1.00000 Atm.
 Atom     1 has atomic number  8 and mass  15.99491

 Molecular mass:   342.11621 amu.
 Principal axes and moments of inertia in atomic units:
                           1         2         3
     Eigenvalues --  4403.75666********************
           X            0.99997  -0.00732   0.00016
           Y            0.00732   0.99997  -0.00181
           Z           -0.00014   0.00181   1.00000
 This molecule is an asymmetric top.
 Rotational symmetry number  1.
 Warning -- assumption of classical behavior for rotation
           may cause significant error
 Rotational temperatures (Kelvin)      0.01967     0.00703     0.00533
 Rotational constants (GHZ):           0.40982     0.14654     0.11108
    6 imaginary frequencies ignored.
 Zero-point vibrational energy     975845.5 (Joules/Mol)
                                  233.23267 (Kcal/Mol)
 Warning -- explicit consideration of  32 degrees of freedom as
           vibrations may cause significant error
 Vibrational temperatures:     41.11    66.99   106.65   140.17   154.34
          (Kelvin)            163.96   223.72   250.78   270.74   288.43
                              331.32   391.66   405.15   424.21   436.10
                              452.81   462.38   475.95   488.09   518.86
                              535.09   585.35   617.91   632.44   651.03
                              696.45   719.35   751.53   769.83   826.71
                              851.35   875.18   895.84   913.78   980.02
                             1015.09  1048.92  1050.46  1073.86  1222.58
                             1234.84  1250.01  1260.69  1323.78  1366.13
                             1413.49  1422.24  1426.87  1437.37  1441.57
                             1473.56  1489.80  1510.48  1525.82  1529.14
                             1545.66  1554.81  1564.87  1579.53  1587.75
                             1590.19  1606.68  1615.11  1628.54  1649.68
                             1654.19  1669.03  1690.20  1696.62  1713.19
                             1716.66  1761.63  1773.02  1774.63  1785.39
                             1813.60  1824.38  1827.00  1837.53  1858.61
                             1859.80  1876.75  1892.27  1903.74  1910.06
                             1920.89  1927.58  1951.77  1964.31  1975.00
                             1984.34  2006.13  2025.70  2058.42  2074.38
                             2093.07  2105.78  2120.92  2127.56  2206.38
                             2213.55  4679.29  4685.73  4690.73  4704.46
                             4712.72  4719.04  4730.08  4734.30  4741.58
                             4742.48  4746.58  4756.13  4761.01  4765.46
                             4769.98  4773.93  4838.08  4842.22  4851.68
                             4865.33  5595.92  5598.57

 Zero-point correction=                           0.371680 (Hartree/Particle)
 Thermal correction to Energy=                    0.390690
 Thermal correction to Enthalpy=                  0.391634
 Thermal correction to Gibbs Free Energy=         0.324693
 Sum of electronic and zero-point Energies=          -1297.618748
 Sum of electronic and thermal Energies=             -1297.599739
 Sum of electronic and thermal Enthalpies=           -1297.598794
 Sum of electronic and thermal Free Energies=        -1297.665735

                     E (Thermal)             CV                S
                      KCal/Mol        Cal/Mol-Kelvin    Cal/Mol-Kelvin
 Total                  245.161             77.545            140.889
 Electronic               0.000              0.000              0.000
 Translational            0.889              2.981             43.384
 Rotational               0.889              2.981             35.131
 Vibrational            243.384             71.583             62.373
 Vibration     1          0.593              1.984              5.926
 Vibration     2          0.595              1.979              4.958
 Vibration     3          0.599              1.966              4.041
 Vibration     4          0.603              1.951              3.505
 Vibration     5          0.606              1.943              3.318
 Vibration     6          0.607              1.938              3.200
 Vibration     7          0.620              1.897              2.604
 Vibration     8          0.627              1.874              2.389
 Vibration     9          0.633              1.856              2.246
 Vibration    10          0.638              1.839              2.129
 Vibration    11          0.652              1.795              1.877
 Vibration    12          0.675              1.725              1.582
 Vibration    13          0.681              1.708              1.524
 Vibration    14          0.689              1.683              1.446
 Vibration    15          0.695              1.668              1.400
 Vibration    16          0.702              1.646              1.337
 Vibration    17          0.707              1.633              1.303
 Vibration    18          0.713              1.614              1.256
 Vibration    19          0.719              1.597              1.216
 Vibration    20          0.735              1.553              1.119
 Vibration    21          0.744              1.530              1.072
 Vibration    22          0.772              1.455              0.938
 Vibration    23          0.791              1.406              0.860
 Vibration    24          0.800              1.384              0.828
 Vibration    25          0.811              1.355              0.788
 Vibration    26          0.840              1.285              0.699
 Vibration    27          0.855              1.250              0.658
 Vibration    28          0.877              1.201              0.605
 Vibration    29          0.890              1.172              0.576
 Vibration    30          0.931              1.086              0.495
 Vibration    31          0.949              1.049              0.464
 Vibration    32          0.967              1.014              0.436

 Normal termination of Gaussian 09 at Mon Mar 28 06:00:59 2016.
