 Gaussian 09, Revision B.01,
 Gaussian 09:  EM64L-G09RevB.01 12-Aug-2010

 --------------------------------------------------
 # freq=raman b3lyp/6-31+g(2df,p) geom=connectivity
 --------------------------------------------------

 ------------
 320 8000.com
 ------------
 Symbolic Z-matrix:
 Charge =  0 Multiplicity = 1

                         Standard orientation:
 ---------------------------------------------------------------------
 Center     Atomic      Atomic             Coordinates (Angstroms)
 Number     Number       Type             X           Y           Z
 ---------------------------------------------------------------------
      1          8           0       -5.034181   -0.428436    0.512351
      2          6           0       -3.759012   -0.139647   -0.080042
      3          6           0       -3.259577    1.256571    0.252474
      4          8           0       -4.227469    2.261004   -0.085041
      5          1           0       -5.093161    1.853669    0.205582
      6          6           0       -1.863627    1.528168   -0.284228
      7          8           0       -1.289756    2.728864    0.253209
      8          1           0       -0.312795    2.807858    0.058242
      9          6           0       -2.959322   -2.539097   -0.084664
     10          8           0       -4.178723   -3.249540    0.173895
     11          1           0       -3.810954   -4.150933   -0.053874
     12          6           0       -2.654594   -1.104957    0.317823
     13          8           0       -1.406906   -0.820478   -0.332226
     14          6           0       -0.873453    0.440131    0.097773
     15          8           0        0.287941    0.484186   -0.744094
     16          6           0        1.489528    0.218804   -0.006376
     17          6           0        2.063377   -1.143510   -0.358592
     18          8           0        1.034323   -2.143506   -0.325961
     19          1           0        0.186063   -1.755967   -0.686670
     20          6           0        3.371447   -1.503583    0.326119
     21          8           0        3.909113   -2.717821   -0.217797
     22          1           0        4.871107   -2.743386    0.054208
     23          6           0        2.282992    2.634655    0.206570
     24          8           0        1.115095    3.298328   -0.298773
     25          1           0        1.419935    4.241028   -0.431170
     26          6           0        2.589030    1.228966   -0.286158
     27          8           0        3.831059    0.926255    0.364951
     28          6           0        4.282778   -0.359283   -0.085721
     29          8           0        5.413295   -0.654802    0.747736
     30          1           0        6.162112   -0.896019    0.197566
     31          1           0       -5.665585   -0.645758   -0.177359
     32          1           0       -2.181115   -3.132735    0.347642
     33          1           0       -2.820854   -2.577908   -1.144957
     34          1           0       -2.515817   -1.060257    1.377843
     35          1           0       -3.875621   -0.199280   -1.141996
     36          1           0       -3.170127    1.287145    1.318290
     37          1           0       -1.906516    1.605803   -1.350546
     38          1           0       -0.627335    0.446265    1.139065
     39          1           0        3.128206    3.248573   -0.024984
     40          1           0        2.193052    2.590400    1.271864
     41          1           0        2.756504    1.265662   -1.342334
     42          1           0        1.262368    0.237459    1.039067
     43          1           0        2.323992   -1.063645   -1.393291
     44          1           0        3.260738   -1.557210    1.389024
     45          1           0        4.528073   -0.376502   -1.127082
 ---------------------------------------------------------------------

 SCF Done:  E(RB3LYP) =  -1297.99744848     A.U. after   13 cycles

 The electronic state is 1-A.
 Alpha  occ. eigenvalues --  -19.19755 -19.19214 -19.18895 -19.18410 -19.18265
 Alpha  occ. eigenvalues --  -19.17203 -19.16704 -19.16294 -19.14876 -19.13440
 Alpha  occ. eigenvalues --  -19.12165 -10.31047 -10.30476 -10.26413 -10.25869
 Alpha  occ. eigenvalues --  -10.25742 -10.25368 -10.25108 -10.24921 -10.24008
 Alpha  occ. eigenvalues --  -10.23978 -10.23798 -10.23504  -1.10705  -1.10039
 Alpha  occ. eigenvalues --   -1.06769  -1.05287  -1.04667  -1.04025  -1.03077
 Alpha  occ. eigenvalues --   -1.02738  -1.01590  -1.00215  -0.99399  -0.82362
 Alpha  occ. eigenvalues --   -0.80201  -0.79963  -0.78161  -0.71894  -0.69509
 Alpha  occ. eigenvalues --   -0.67192  -0.65366  -0.63670  -0.62125  -0.61770
 Alpha  occ. eigenvalues --   -0.60268  -0.57068  -0.56637  -0.55572  -0.54830
 Alpha  occ. eigenvalues --   -0.53717  -0.53235  -0.52935  -0.51890  -0.51245
 Alpha  occ. eigenvalues --   -0.51025  -0.49730  -0.49129  -0.48602  -0.46906
 Alpha  occ. eigenvalues --   -0.46235  -0.45667  -0.44261  -0.43879  -0.43199
 Alpha  occ. eigenvalues --   -0.42455  -0.41675  -0.41156  -0.40574  -0.40349
 Alpha  occ. eigenvalues --   -0.39334  -0.38625  -0.38388  -0.36670  -0.36555
 Alpha  occ. eigenvalues --   -0.35888  -0.35211  -0.34558  -0.33841  -0.33706
 Alpha  occ. eigenvalues --   -0.33095  -0.32037  -0.31055  -0.30935  -0.30064
 Alpha  occ. eigenvalues --   -0.29295  -0.28700  -0.28335  -0.26999  -0.26398
 Alpha  occ. eigenvalues --   -0.26165
 Alpha virt. eigenvalues --   -0.02530  -0.02476  -0.01657  -0.00188   0.00143
 Alpha virt. eigenvalues --    0.00794   0.01989   0.02297   0.03277   0.03524
 Alpha virt. eigenvalues --    0.03928   0.04160   0.04783   0.05213   0.05657

 Mulliken atomic charges:
              1
     1  O   -0.447070
     2  C   -0.195712
     3  C    0.078408
     4  O   -0.463721
     5  H    0.348264
     6  C   -0.082683
     7  O   -0.535712
     8  H    0.478157
     9  C   -0.413821
    10  O   -0.419617
    11  H    0.333983
    12  C    0.112335
    13  O   -0.045809
    14  C   -0.113568
    15  O    0.017248
    16  C    0.308835
    17  C   -0.076765
    18  O   -0.478345
    19  H    0.390748
    20  C   -0.015843
    21  O   -0.420388
    22  H    0.330602
    23  C   -0.409631
    24  O   -0.484033
    25  H    0.371515
    26  C   -0.229899
    27  O   -0.033833
    28  C   -0.025247
    29  O   -0.492706
    30  H    0.347469
    31  H    0.358452
    32  H    0.154130
    33  H    0.147842
    34  H    0.117308
    35  H    0.126797
    36  H    0.122686
    37  H    0.134539
    38  H    0.138347
    39  H    0.150423
    40  H    0.168746
    41  H    0.129739
    42  H    0.106373
    43  H    0.113502
    44  H    0.143054
    45  H    0.154901
 Sum of Mulliken atomic charges =   0.00000

 Dipole moment (field-independent basis, Debye):
    X=              4.2182    Y=              0.4362    Z=             -1.8805  Tot=              4.6389
 Quadrupole moment (field-independent basis, Debye-Ang):
   XX=           -119.8821   YY=           -140.4962   ZZ=           -138.9522
   XY=             15.7840   XZ=             -0.7712   YZ=             -0.8955

  Exact polarizability: 233.537  -0.894 195.482   0.981   0.996 142.682
 Approx polarizability: 276.114  -0.038 255.843   1.355   1.800 239.672

 ******    7 imaginary frequencies (negative Signs) ******

                     1                      2                      3
                     A                      A                      A
 Frequencies --  -333.9795              -246.8244              -175.8044
 Red. masses --     1.7127                 1.7369                 1.2625
 Frc consts  --     0.1126                 0.0623                 0.0230
 IR Inten    --     1.6798                 0.7936               109.2949
 Raman Activ --     0.0551                 0.0505                 1.0776

                     4                      5                      6
                     A                      A                      A
 Frequencies --  -161.8511               -88.6992               -77.8656
 Red. masses --     1.2652                 6.8990                 6.5900
 Frc consts  --     0.0195                 0.0320                 0.0235
 IR Inten    --   106.9096                 2.8565                 0.3608
 Raman Activ --     0.5093                 0.0629                 0.0417

                     7                      8                      9
                     A                      A                      A
 Frequencies --   -36.4987                42.1279                79.1850
 Red. masses --     5.9673                 6.5218                 6.2289
 Frc consts  --     0.0047                 0.0068                 0.0230
 IR Inten    --     0.8219                 0.2632                 0.3984
 Raman Activ --     0.0180                 0.0497                 0.2579

                    10                     11                     12
                     A                      A                      A
 Frequencies --    87.8797                98.6062               124.9753
 Red. masses --     6.6978                 4.9183                 5.5975
 Frc consts  --     0.0305                 0.0282                 0.0515
 IR Inten    --     0.7515                11.8369                 1.4055
 Raman Activ --     0.0519                 0.0892                 0.0352

                    13                     14                     15
                     A                      A                      A
 Frequencies --   156.8274               173.5204               194.0041
 Red. masses --     6.4735                 7.0910                 6.0820
 Frc consts  --     0.0938                 0.1258                 0.1349
 IR Inten    --     2.3315                 0.6353                 4.1537
 Raman Activ --     0.3999                 0.7341                 0.8670

                    16                     17                     18
                     A                      A                      A
 Frequencies --   221.3899               235.0610               276.8121
 Red. masses --     6.7366                 6.2700                 4.3622
 Frc consts  --     0.1945                 0.2041                 0.1969
 IR Inten    --     1.3072                 1.2975                11.2830
 Raman Activ --     2.2054                 0.6362                 0.5846

                    19                     20                     21
                     A                      A                      A
 Frequencies --   280.2269               301.5911               318.3402
 Red. masses --     4.5213                 5.0448                 5.8379
 Frc consts  --     0.2092                 0.2704                 0.3486
 IR Inten    --     4.0546                 1.6690                 2.3288
 Raman Activ --     0.0778                 0.4321                 1.7109

                    22                     23                     24
                     A                      A                      A
 Frequencies --   323.2045               324.9043               343.0618
 Red. masses --     4.5118                 6.3367                 4.5692
 Frc consts  --     0.2777                 0.3941                 0.3168
 IR Inten    --     1.4890                 3.2898                 4.6914
 Raman Activ --     0.4127                 4.3205                 0.5169

                    25                     26                     27
                     A                      A                      A
 Frequencies --   356.2064               362.9267               384.7860
 Red. masses --     5.0789                 5.2832                 8.1481
 Frc consts  --     0.3797                 0.4100                 0.7108
 IR Inten    --    15.4551                 3.3390                 4.4747
 Raman Activ --     0.7414                 0.8269                 2.5223

                    28                     29                     30
                     A                      A                      A
 Frequencies --   415.7844               431.7418               441.8070
 Red. masses --     3.7227                 5.4204                 4.9164
 Frc consts  --     0.3792                 0.5953                 0.5654
 IR Inten    --    24.1895                 2.3927                 0.7451
 Raman Activ --     0.8628                 5.1565                 4.9307

                    31                     32                     33
                     A                      A                      A
 Frequencies --   442.5393               477.9498               494.3988
 Red. masses --     5.9778                 4.9088                 4.9992
 Frc consts  --     0.6898                 0.6607                 0.7200
 IR Inten    --     0.4951                 5.1091                 4.8930
 Raman Activ --     1.1142                 2.9714                 2.8923

                    34                     35                     36
                     A                      A                      A
 Frequencies --   508.3984               535.9504               571.7457
 Red. masses --     3.3420                 3.0786                 3.9872
 Frc consts  --     0.5089                 0.5210                 0.7679
 IR Inten    --    17.0645                 3.0696                23.8526
 Raman Activ --     1.5244                 4.6672                 1.4267

                    37                     38                     39
                     A                      A                      A
 Frequencies --   596.1606               605.5552               631.6506
 Red. masses --     3.3771                 5.1939                 5.6890
 Frc consts  --     0.7072                 1.1222                 1.3373
 IR Inten    --    19.0951                 6.1045                43.7916
 Raman Activ --     0.2491                 1.0422                 1.0376

                    40                     41                     42
                     A                      A                      A
 Frequencies --   645.0735               694.6610               705.1031
 Red. masses --     3.8154                 5.8904                 1.1034
 Frc consts  --     0.9354                 1.6747                 0.3232
 IR Inten    --    15.5185                14.7088               103.3603
 Raman Activ --     0.6816                 2.1706                 1.8351

                    43                     44                     45
                     A                      A                      A
 Frequencies --   738.1783               760.4036               769.8379
 Red. masses --     1.1386                 1.0852                 1.0709
 Frc consts  --     0.3655                 0.3697                 0.3739
 IR Inten    --    69.3331               168.0866                82.9377
 Raman Activ --     1.1126                 4.5616                 1.4073

                    46                     47                     48
                     A                      A                      A
 Frequencies --   771.5343               836.0484               852.4225
 Red. masses --     1.0707                 1.2865                 1.7414
 Frc consts  --     0.3755                 0.5298                 0.7455
 IR Inten    --    84.3664                28.6448                12.2578
 Raman Activ --     1.5771                 0.3023                 1.2550

                    49                     50                     51
                     A                      A                      A
 Frequencies --   876.2086               933.1242               962.5422
 Red. masses --     1.3163                 5.8022                 4.5471
 Frc consts  --     0.5954                 2.9766                 2.4821
 IR Inten    --    25.9935               123.9232                66.0800
 Raman Activ --     0.7319                 3.1121                 0.4506

                    52                     53                     54
                     A                      A                      A
 Frequencies --   976.1142               980.8403               991.8417
 Red. masses --     4.7284                 4.9004                 6.9527
 Frc consts  --     2.6544                 2.7777                 4.0298
 IR Inten    --    66.0013                69.3764                64.1857
 Raman Activ --     1.5694                 1.4773                 1.6344

                    55                     56                     57
                     A                      A                      A
 Frequencies --   999.1694              1016.4879              1021.8602
 Red. masses --     5.8327                 5.9373                 5.7179
 Frc consts  --     3.4308                 3.6144                 3.5178
 IR Inten    --   434.5554                48.7208                75.5297
 Raman Activ --     1.4470                 3.8937                 2.6074

                    58                     59                     60
                     A                      A                      A
 Frequencies --  1042.6641              1061.1361              1067.5178
 Red. masses --     7.0557                 4.6007                 3.3309
 Frc consts  --     4.5194                 3.0522                 2.2364
 IR Inten    --   239.0991                78.3163                 8.7734
 Raman Activ --     3.1003                 2.4938                 4.6824

                    61                     62                     63
                     A                      A                      A
 Frequencies --  1071.1117              1077.5006              1083.5582
 Red. masses --     3.0970                 3.4827                 3.3611
 Frc consts  --     2.0935                 2.3823                 2.3251
 IR Inten    --    39.6322                15.5797                 2.7991
 Raman Activ --    13.3339                10.7306                 4.0875

                    64                     65                     66
                     A                      A                      A
 Frequencies --  1086.7480              1110.9796              1115.2121
 Red. masses --     4.0745                 2.2686                 3.0287
 Frc consts  --     2.8352                 1.6498                 2.2193
 IR Inten    --   209.4731                46.5366                19.6073
 Raman Activ --     1.1694                 1.8390                 8.9741

                    67                     68                     69
                     A                      A                      A
 Frequencies --  1119.3274              1126.7742              1135.8728
 Red. masses --     2.8023                 2.0706                 3.2509
 Frc consts  --     2.0686                 1.5489                 2.4712
 IR Inten    --    64.4239                15.5080                47.1225
 Raman Activ --     9.7956                 4.3016                 9.7899

                    70                     71                     72
                     A                      A                      A
 Frequencies --  1139.6218              1146.3131              1159.3110
 Red. masses --     2.6930                 2.8047                 1.8877
 Frc consts  --     2.0607                 2.1714                 1.4948
 IR Inten    --     5.5083                55.6922                27.1681
 Raman Activ --     5.9555                 5.2978                 3.0671

                    73                     74                     75
                     A                      A                      A
 Frequencies --  1168.5562              1174.5396              1186.2164
 Red. masses --     1.9445                 1.6854                 2.1182
 Frc consts  --     1.5644                 1.3699                 1.7561
 IR Inten    --    18.1244                12.3919                 1.7258
 Raman Activ --     3.8551                 1.6116                 2.1128

                    76                     77                     78
                     A                      A                      A
 Frequencies --  1199.2418              1216.4695              1225.7166
 Red. masses --     1.5269                 1.2434                 1.4248
 Frc consts  --     1.2938                 1.0841                 1.2612
 IR Inten    --    13.8643                16.1717                 6.7381
 Raman Activ --     3.7657                 1.6508                 1.0004

                    79                     80                     81
                     A                      A                      A
 Frequencies --  1226.5540              1235.6675              1247.2763
 Red. masses --     1.2349                 1.2673                 1.3758
 Frc consts  --     1.0946                 1.1401                 1.2611
 IR Inten    --    14.8850                 2.5741                46.8160
 Raman Activ --     1.9454                 1.5805                 2.6603

                    82                     83                     84
                     A                      A                      A
 Frequencies --  1268.8860              1274.5079              1291.0981
 Red. masses --     1.2595                 1.4241                 1.2302
 Frc consts  --     1.1948                 1.3629                 1.2082
 IR Inten    --     2.0412                31.0453                 1.8012
 Raman Activ --     2.5033                 1.7654                 3.8667

                    85                     86                     87
                     A                      A                      A
 Frequencies --  1296.2936              1300.0535              1305.3607
 Red. masses --     1.2637                 1.3897                 1.4582
 Frc consts  --     1.2511                 1.3838                 1.4640
 IR Inten    --    25.1886                 5.8801                38.0446
 Raman Activ --     3.4835                 2.8473                 2.6439

                    88                     89                     90
                     A                      A                      A
 Frequencies --  1317.0893              1320.8587              1336.0101
 Red. masses --     1.3116                 1.3116                 1.2552
 Frc consts  --     1.3405                 1.3482                 1.3200
 IR Inten    --     8.2049                18.6114                 2.6122
 Raman Activ --     6.2133                 7.0550                 6.7482

                    91                     92                     93
                     A                      A                      A
 Frequencies --  1343.2641              1347.7383              1359.3770
 Red. masses --     1.4279                 1.2151                 1.4900
 Frc consts  --     1.5180                 1.3004                 1.6222
 IR Inten    --     6.3901                17.2045                26.0877
 Raman Activ --     5.0720                 4.1179                 4.9507

                    94                     95                     96
                     A                      A                      A
 Frequencies --  1360.8260              1370.6285              1374.2300
 Red. masses --     1.3296                 1.1668                 1.2557
 Frc consts  --     1.4507                 1.2915                 1.3971
 IR Inten    --     5.2633                22.1562                24.0646
 Raman Activ --     6.0249                 4.0027                 2.8523

                    97                     98                     99
                     A                      A                      A
 Frequencies --  1382.9401              1406.7980              1417.1992
 Red. masses --     1.2378                 1.2618                 1.2338
 Frc consts  --     1.3948                 1.4713                 1.4600
 IR Inten    --    14.3385                 6.2657                24.8515
 Raman Activ --     4.5671                10.4709                 1.6497

                   100                    101                    102
                     A                      A                      A
 Frequencies --  1427.0465              1431.6655              1463.0889
 Red. masses --     1.3954                 1.3535                 1.0884
 Frc consts  --     1.6743                 1.6345                 1.3727
 IR Inten    --    25.9715                68.0481                 9.9892
 Raman Activ --     0.8324                 1.0452                 5.0319

                   103                    104                    105
                     A                      A                      A
 Frequencies --  1464.1306              1468.5336              1477.4251
 Red. masses --     1.1043                 1.4030                 1.3002
 Frc consts  --     1.3947                 1.7827                 1.6721
 IR Inten    --    10.7028                40.7772                23.3446
 Raman Activ --     4.5722                 1.7339                 1.8291

                   106                    107                    108
                     A                      A                      A
 Frequencies --  1478.8725              1532.5440              3217.5582
 Red. masses --     1.3205                 1.2807                 1.0690
 Frc consts  --     1.7016                 1.7723                 6.5206
 IR Inten    --    56.7515                27.1890              1229.8545
 Raman Activ --     0.9430                 0.9393               182.4516

                   109                    110                    111
                     A                      A                      A
 Frequencies --  3247.5977              3248.5144              3259.0155
 Red. masses --     1.0792                 1.0592                 1.0798
 Frc consts  --     6.7060                 6.5859                 6.7575
 IR Inten    --    75.0628                21.1442                19.3713
 Raman Activ --    67.9436                41.7272               122.0497

                   112                    113                    114
                     A                      A                      A
 Frequencies --  3261.5569              3267.3508              3267.8388
 Red. masses --     1.0589                 1.0828                 1.0825
 Frc consts  --     6.6367                 6.8110                 6.8107
 IR Inten    --     8.9840                 6.2337                 1.4354
 Raman Activ --   128.4619               121.2458                 7.5602

                   115                    116                    117
                     A                      A                      A
 Frequencies --  3279.8499              3281.0291              3288.4703
 Red. masses --     1.0866                 1.0870                 1.0868
 Frc consts  --     6.8870                 6.8944                 6.9244
 IR Inten    --     3.4739                26.4410                 8.4402
 Raman Activ --    47.3729                15.9789                33.0141

                   118                    119                    120
                     A                      A                      A
 Frequencies --  3293.1194              3298.3382              3301.4026
 Red. masses --     1.0859                 1.0966                 1.0884
 Frc consts  --     6.9382                 7.0288                 6.9891
 IR Inten    --     1.1852                16.8133                80.2028
 Raman Activ --   125.2638                25.0146                 3.3307

                   121                    122                    123
                     A                      A                      A
 Frequencies --  3304.1841              3315.4047              3317.8936
 Red. masses --     1.0871                 1.0704                 1.1036
 Frc consts  --     6.9926                 6.9320                 7.1582
 IR Inten    --    83.6952               456.9926                63.7997
 Raman Activ --     6.6056               148.0417                30.3923

                   124                    125                    126
                     A                      A                      A
 Frequencies --  3351.1965              3354.5682              3361.1219
 Red. masses --     1.0649                 1.0644                 1.0653
 Frc consts  --     7.0464                 7.0574                 7.0909
 IR Inten    --    40.7654                28.7707                39.8263
 Raman Activ --    88.2994               120.1348               106.3768

                   127                    128                    129
                     A                      A                      A
 Frequencies --  3372.1592              3872.1051              3876.9419
 Red. masses --     1.0685                 1.0674                 1.0676
 Frc consts  --     7.1588                 9.4295                 9.4547
 IR Inten    --    61.4486                63.0817                86.6651
 Raman Activ --   151.4881               114.4859                86.8675

 - Thermochemistry -
 -------------------
 Temperature   298.150 Kelvin.  Pressure   1.00000 Atm.
 Atom     1 has atomic number  8 and mass  15.99491

 Molecular mass:   342.11621 amu.
 Principal axes and moments of inertia in atomic units:
                           1         2         3
     Eigenvalues --  4371.67846********************
           X            0.99997   0.00738  -0.00044
           Y           -0.00738   0.99997   0.00188
           Z            0.00045  -0.00188   1.00000
 This molecule is an asymmetric top.
 Rotational symmetry number  1.
 Warning -- assumption of classical behavior for rotation
           may cause significant error
 Rotational temperatures (Kelvin)      0.01981     0.00706     0.00534
 Rotational constants (GHZ):           0.41283     0.14709     0.11127
    7 imaginary frequencies ignored.
 Zero-point vibrational energy     976441.9 (Joules/Mol)
                                  233.37522 (Kcal/Mol)
 Warning -- explicit consideration of  31 degrees of freedom as
           vibrations may cause significant error
 Vibrational temperatures:     60.61   113.93   126.44   141.87   179.81
          (Kelvin)            225.64   249.66   279.13   318.53   338.20
                              398.27   403.18   433.92   458.02   465.02
                              467.46   493.59   512.50   522.17   553.62
                              598.22   621.18   635.66   636.71   687.66
                              711.33   731.47   771.11   822.61   857.74
                              871.26   908.80   928.12   999.46  1014.48
                             1062.07  1094.05  1107.62  1110.06  1202.89
                             1226.44  1260.67  1342.56  1384.88  1404.41
                             1411.21  1427.04  1437.58  1462.50  1470.23
                             1500.16  1526.74  1535.92  1541.09  1550.28
                             1559.00  1563.59  1598.45  1604.54  1610.46
                             1621.17  1634.27  1639.66  1649.29  1667.99
                             1681.29  1689.90  1706.70  1725.44  1750.23
                             1763.53  1764.74  1777.85  1794.55  1825.64
                             1833.73  1857.60  1865.07  1870.48  1878.12
                             1895.00  1900.42  1922.22  1932.65  1939.09
                             1955.84  1957.92  1972.03  1977.21  1989.74
                             2024.07  2039.03  2053.20  2059.84  2105.06
                             2106.55  2112.89  2125.68  2127.77  2204.99
                             4629.34  4672.56  4673.88  4688.99  4692.65
                             4700.98  4701.69  4718.97  4720.66  4731.37
                             4738.06  4745.57  4749.98  4753.98  4770.12
                             4773.70  4821.62  4826.47  4835.90  4851.78
                             5571.09  5578.05

 Zero-point correction=                           0.371907 (Hartree/Particle)
 Thermal correction to Energy=                    0.389890
 Thermal correction to Enthalpy=                  0.390834
 Thermal correction to Gibbs Free Energy=         0.326936
 Sum of electronic and zero-point Energies=          -1297.625541
 Sum of electronic and thermal Energies=             -1297.607558
 Sum of electronic and thermal Enthalpies=           -1297.606614
 Sum of electronic and thermal Free Energies=        -1297.670513

                     E (Thermal)             CV                S
                      KCal/Mol        Cal/Mol-Kelvin    Cal/Mol-Kelvin
 Total                  244.660             75.177            134.487
 Electronic               0.000              0.000              0.000
 Translational            0.889              2.981             43.384
 Rotational               0.889              2.981             35.119
 Vibrational            242.882             69.215             55.983
 Vibration     1          0.595              1.980              5.156
 Vibration     2          0.600              1.963              3.911
 Vibration     3          0.601              1.958              3.707
 Vibration     4          0.604              1.950              3.482
 Vibration     5          0.610              1.928              3.022
 Vibration     6          0.620              1.895              2.588
 Vibration     7          0.627              1.875              2.397
 Vibration     8          0.635              1.848              2.189
 Vibration     9          0.648              1.809              1.948
 Vibration    10          0.655              1.787              1.840
 Vibration    11          0.678              1.716              1.553
 Vibration    12          0.680              1.710              1.532
 Vibration    13          0.694              1.671              1.408
 Vibration    14          0.705              1.639              1.319
 Vibration    15          0.708              1.629              1.294
 Vibration    16          0.709              1.626              1.285
 Vibration    17          0.722              1.589              1.198
 Vibration    18          0.732              1.563              1.139
 Vibration    19          0.737              1.549              1.110
 Vibration    20          0.754              1.503              1.020
 Vibration    21          0.779              1.436              0.906
 Vibration    22          0.793              1.401              0.853
 Vibration    23          0.802              1.379              0.821
 Vibration    24          0.802              1.377              0.819
 Vibration    25          0.834              1.299              0.716
 Vibration    26          0.850              1.262              0.672
 Vibration    27          0.864              1.231              0.637
 Vibration    28          0.891              1.171              0.574
 Vibration    29          0.928              1.092              0.501
 Vibration    30          0.954              1.040              0.456
 Vibration    31          0.964              1.020              0.440

 Normal termination of Gaussian 09 at Fri Feb 12 12:41:02 2016.
