 Gaussian 09, Revision B.01,
 Gaussian 09:  EM64L-G09RevB.01 12-Aug-2010

 -------------------------------------------------
 # freq=raman b3lyp/6-31+g(2d,p) geom=connectivity
 -------------------------------------------------

 -----------------
 550 5918/5918.com
 -----------------
 Symbolic Z-matrix:
 Charge =  0 Multiplicity = 1

                         Standard orientation:
 ---------------------------------------------------------------------
 Center     Atomic      Atomic             Coordinates (Angstroms)
 Number     Number       Type             X           Y           Z
 ---------------------------------------------------------------------
      1          8           0       -5.187279   -0.665156    0.188994
      2          6           0       -3.931080   -0.085232   -0.192012
      3          6           0       -3.582632    1.270768    0.397930
      4          8           0       -4.509952    2.325024    0.100876
      5          1           0       -5.413286    1.961629    0.327341
      6          6           0       -2.166511    1.622669   -0.028371
      7          8           0       -1.548257    2.494695    0.929354
      8          1           0       -1.987792    3.390886    0.985121
      9          6           0       -3.129183   -2.333784   -0.710390
     10          8           0       -2.168540   -3.400325   -0.719039
     11          1           0       -2.717546   -4.217214   -0.896045
     12          6           0       -2.884832   -1.124200    0.177901
     13          8           0       -1.577466   -0.830496   -0.335162
     14          6           0       -1.237108    0.446687    0.223611
     15          8           0        0.029190    0.645445   -0.421423
     16          6           0        1.324375    0.297750    0.089919
     17          6           0        1.838474   -1.127458   -0.028536
     18          8           0        1.039441   -1.840975    0.926435
     19          1           0        0.057704   -1.678450    0.829662
     20          6           0        3.204789   -1.529598    0.502434
     21          8           0        3.659522   -2.887617    0.418363
     22          1           0        3.278271   -3.342653    1.224065
     23          6           0        2.328824    2.566270   -0.058182
     24          8           0        3.322130    3.407140   -0.662360
     25          1           0        3.243052    3.721756   -1.608379
     26          6           0        2.389977    1.142852   -0.589508
     27          8           0        3.729641    0.849860   -0.167559
     28          6           0        4.106952   -0.533728   -0.208073
     29          8           0        5.483251   -0.575346    0.195912
     30          1           0        6.028352   -0.170598   -0.482795
     31          1           0        4.091153   -0.814128   -1.240559
     32          1           0        3.216541   -1.273628    1.541299
     33          1           0        1.680858   -1.513038   -1.014124
     34          1           0        1.329037    0.549701    1.129822
     35          1           0        2.298607    1.119004   -1.655333
     36          1           0        1.359687    2.971884   -0.261039
     37          1           0        2.484546    2.549389    1.000291
     38          1           0       -5.833897   -0.511488   -0.503733
     39          1           0       -3.221849   -1.978805   -1.715528
     40          1           0       -4.071134   -2.754219   -0.426028
     41          1           0       -2.880074   -1.372260    1.218739
     42          1           0       -3.929787    0.016039   -1.257208
     43          1           0       -3.572001    1.156066    1.461711
     44          1           0       -2.103045    1.994069   -1.029837
     45          1           0       -1.083112    0.340091    1.277092
 ---------------------------------------------------------------------

 SCF Done:  E(RB3LYP) =  -1297.93935959     A.U. after   13 cycles

 The electronic state is 1-A.
 Alpha  occ. eigenvalues --  -19.19517 -19.18860 -19.18434 -19.17787 -19.16927
 Alpha  occ. eigenvalues --  -19.16264 -19.15658 -19.15335 -19.14280 -19.13612
 Alpha  occ. eigenvalues --  -19.13572 -10.31088 -10.27568 -10.27310 -10.27235
 Alpha  occ. eigenvalues --  -10.26723 -10.26081 -10.24996 -10.23867 -10.23856
 Alpha  occ. eigenvalues --  -10.23448 -10.23343 -10.22017  -1.10263  -1.07502
 Alpha  occ. eigenvalues --   -1.06347  -1.05788  -1.04290  -1.03520  -1.02592
 Alpha  occ. eigenvalues --   -1.02170  -1.00608  -1.00175  -0.98886  -0.82899
 Alpha  occ. eigenvalues --   -0.81803  -0.78370  -0.77674  -0.71787  -0.69491
 Alpha  occ. eigenvalues --   -0.67530  -0.64771  -0.62864  -0.62538  -0.61775
 Alpha  occ. eigenvalues --   -0.59106  -0.57488  -0.56777  -0.54939  -0.54411
 Alpha  occ. eigenvalues --   -0.53904  -0.52716  -0.52520  -0.51473  -0.50608
 Alpha  occ. eigenvalues --   -0.50364  -0.48992  -0.48678  -0.48141  -0.46435
 Alpha  occ. eigenvalues --   -0.45639  -0.45003  -0.44269  -0.43810  -0.43106
 Alpha  occ. eigenvalues --   -0.42390  -0.41332  -0.40587  -0.39843  -0.39708
 Alpha  occ. eigenvalues --   -0.39198  -0.37385  -0.37033  -0.36635  -0.35838
 Alpha  occ. eigenvalues --   -0.34730  -0.34598  -0.33670  -0.33332  -0.32250
 Alpha  occ. eigenvalues --   -0.31694  -0.31054  -0.30769  -0.29928  -0.29429
 Alpha  occ. eigenvalues --   -0.29320  -0.28924  -0.28400  -0.28117  -0.25467
 Alpha  occ. eigenvalues --   -0.25280
 Alpha virt. eigenvalues --   -0.03829  -0.01640  -0.00796  -0.00426   0.00515
 Alpha virt. eigenvalues --    0.00962   0.01677   0.01710   0.02040   0.03347
 Alpha virt. eigenvalues --    0.03663   0.03944   0.04372   0.05127   0.05610

 Mulliken atomic charges:
              1
     1  O   -0.538923
     2  C   -0.144420
     3  C    0.170341
     4  O   -0.568183
     5  H    0.336162
     6  C    0.442043
     7  O   -0.564921
     8  H    0.357074
     9  C   -0.358128
    10  O   -0.518623
    11  H    0.338031
    12  C    0.368630
    13  O   -0.214077
    14  C   -0.284894
    15  O   -0.275272
    16  C    0.028944
    17  C    0.510860
    18  O   -0.600689
    19  H    0.357640
    20  C   -0.144037
    21  O   -0.512142
    22  H    0.345165
    23  C   -0.110135
    24  O   -0.530464
    25  H    0.326771
    26  C   -0.235025
    27  O   -0.214635
    28  C    0.267907
    29  O   -0.507657
    30  H    0.321584
    31  H    0.097964
    32  H    0.123580
    33  H    0.131302
    34  H    0.118564
    35  H    0.113271
    36  H    0.142877
    37  H    0.153322
    38  H    0.338256
    39  H    0.132775
    40  H    0.139156
    41  H    0.125026
    42  H    0.119082
    43  H    0.130930
    44  H    0.144320
    45  H    0.140648
 Sum of Mulliken atomic charges =   0.00000

 Dipole moment (field-independent basis, Debye):
    X=             -9.1558    Y=              0.7007    Z=             -2.2086  Tot=              9.4444
 Quadrupole moment (field-independent basis, Debye-Ang):
   XX=           -129.4894   YY=           -140.5115   ZZ=           -130.2517
   XY=              4.9639   XZ=             -3.6532   YZ=             -3.5075

  Exact polarizability: 228.487  -3.590 199.469  -1.259  -1.767 149.259
 Approx polarizability: 272.384  -3.537 259.324  -1.352  -4.386 245.242

 ******    7 imaginary frequencies (negative Signs) ******

                     1                      2                      3
                     A                      A                      A
 Frequencies --  -261.0059              -172.3178              -124.7294
 Red. masses --     1.7926                 1.2780                 3.0920
 Frc consts  --     0.0720                 0.0224                 0.0283
 IR Inten    --     2.0303                93.4582                 4.7335
 Raman Activ --     0.0868                 1.0402                 0.1494

                     4                      5                      6
                     A                      A                      A
 Frequencies --  -108.9949               -87.8486               -54.3523
 Red. masses --     3.7026                 1.5392                 4.6255
 Frc consts  --     0.0259                 0.0070                 0.0081
 IR Inten    --     1.8235               105.3080                 7.0741
 Raman Activ --     0.2583                 0.6017                 0.1416

                     7                      8                      9
                     A                      A                      A
 Frequencies --   -28.7058                33.6430                56.4123
 Red. masses --     7.1017                 4.1196                 6.3397
 Frc consts  --     0.0034                 0.0027                 0.0119
 IR Inten    --     1.0935                 6.7497                 0.8890
 Raman Activ --     0.0479                 0.3296                 0.1013

                    10                     11                     12
                     A                      A                      A
 Frequencies --    80.7669                91.3180               102.3750
 Red. masses --     4.5308                 5.2427                 5.5253
 Frc consts  --     0.0174                 0.0258                 0.0341
 IR Inten    --     4.0984                 1.4726                10.9035
 Raman Activ --     0.2151                 0.1504                 0.3807

                    13                     14                     15
                     A                      A                      A
 Frequencies --   118.4730               141.0112               169.9069
 Red. masses --     4.8135                 6.1097                 5.8065
 Frc consts  --     0.0398                 0.0716                 0.0988
 IR Inten    --     1.3511                 2.0662                 0.0643
 Raman Activ --     0.1559                 0.4762                 1.6105

                    16                     17                     18
                     A                      A                      A
 Frequencies --   181.4455               210.0418               255.5838
 Red. masses --     6.0743                 5.8372                 4.8250
 Frc consts  --     0.1178                 0.1517                 0.1857
 IR Inten    --     1.0244                 4.3115                11.1754
 Raman Activ --     0.3861                 1.1150                 0.4772

                    19                     20                     21
                     A                      A                      A
 Frequencies --   268.7644               278.7302               290.9109
 Red. masses --     6.0255                 3.9892                 4.2348
 Frc consts  --     0.2564                 0.1826                 0.2112
 IR Inten    --     2.4062                 0.5574                 2.1894
 Raman Activ --     0.8078                 0.4728                 0.4763

                    22                     23                     24
                     A                      A                      A
 Frequencies --   302.5310               313.0710               343.2070
 Red. masses --     6.2549                 5.9712                 7.3833
 Frc consts  --     0.3373                 0.3448                 0.5124
 IR Inten    --     5.0874                 5.3784                 0.4836
 Raman Activ --     0.6159                 0.6886                 5.7900

                    25                     26                     27
                     A                      A                      A
 Frequencies --   350.0787               368.5396               383.7215
 Red. masses --     6.0600                 7.0803                 4.2391
 Frc consts  --     0.4376                 0.5666                 0.3678
 IR Inten    --     2.2457                 3.7710                 5.7009
 Raman Activ --     3.8122                 0.5746                 2.0531

                    28                     29                     30
                     A                      A                      A
 Frequencies --   409.4560               424.6874               427.7846
 Red. masses --     5.0467                 5.4180                 4.1763
 Frc consts  --     0.4985                 0.5757                 0.4503
 IR Inten    --     4.1390                 4.3990                14.8094
 Raman Activ --     3.5500                 1.1750                 4.0281

                    31                     32                     33
                     A                      A                      A
 Frequencies --   437.6056               460.9386               496.9748
 Red. masses --     4.4245                 4.3304                 4.1805
 Frc consts  --     0.4992                 0.5421                 0.6083
 IR Inten    --     5.1684                 2.6818                13.6819
 Raman Activ --     1.3147                 2.1945                 1.2998

                    34                     35                     36
                     A                      A                      A
 Frequencies --   533.8695               558.2238               568.3417
 Red. masses --     3.8122                 4.1025                 3.4255
 Frc consts  --     0.6402                 0.7532                 0.6519
 IR Inten    --    16.2076                15.9878                 5.2822
 Raman Activ --     2.3075                 5.7145                 0.8344

                    37                     38                     39
                     A                      A                      A
 Frequencies --   575.4930               578.9574               594.3259
 Red. masses --     2.6894                 1.4541                 2.6828
 Frc consts  --     0.5248                 0.2872                 0.5583
 IR Inten    --     3.7636               124.4028                41.7279
 Raman Activ --     0.4619                 1.2085                 0.6714

                    40                     41                     42
                     A                      A                      A
 Frequencies --   627.4978               660.2553               666.3781
 Red. masses --     3.2319                 3.1483                 3.4423
 Frc consts  --     0.7498                 0.8086                 0.9006
 IR Inten    --     7.3115                20.4126                 3.8403
 Raman Activ --     1.4188                 0.7749                 0.2927

                    43                     44                     45
                     A                      A                      A
 Frequencies --   713.4986               714.6435               718.9405
 Red. masses --     1.0813                 1.0884                 1.0658
 Frc consts  --     0.3243                 0.3275                 0.3246
 IR Inten    --   122.3221                68.9809               118.2140
 Raman Activ --     1.2985                 1.5772                 1.7432

                    46                     47                     48
                     A                      A                      A
 Frequencies --   739.8611               783.3802               867.1619
 Red. masses --     1.0784                 1.0704                 2.5681
 Frc consts  --     0.3478                 0.3870                 1.1378
 IR Inten    --    89.3788                54.0060                17.1963
 Raman Activ --     1.5560                 1.2236                 1.1145

                    49                     50                     51
                     A                      A                      A
 Frequencies --   886.0576               911.9801               971.1807
 Red. masses --     2.5164                 5.3898                 5.8549
 Frc consts  --     1.1640                 2.6411                 3.2536
 IR Inten    --     3.7460                47.3642               363.9620
 Raman Activ --     2.9605                 6.0666                 3.5286

                    52                     53                     54
                     A                      A                      A
 Frequencies --   973.7450               976.6399               980.7419
 Red. masses --     5.6419                 5.9071                 4.8604
 Frc consts  --     3.1518                 3.3197                 2.7544
 IR Inten    --     7.3240               147.8643                92.4198
 Raman Activ --     2.7071                 2.6706                 1.1629

                    55                     56                     57
                     A                      A                      A
 Frequencies --   989.0991              1014.6007              1019.9948
 Red. masses --     6.9997                 4.3332                 3.0514
 Frc consts  --     4.0347                 2.6281                 1.8704
 IR Inten    --    82.7343               188.9354               103.0134
 Raman Activ --     3.9139                 7.3325                 0.3833

                    58                     59                     60
                     A                      A                      A
 Frequencies --  1025.5119              1039.0451              1047.5671
 Red. masses --     3.8493                 3.0077                 2.3232
 Frc consts  --     2.3851                 1.9132                 1.5021
 IR Inten    --   355.3334                50.1073                62.3462
 Raman Activ --     6.1743                 8.9179                 7.8811

                    61                     62                     63
                     A                      A                      A
 Frequencies --  1057.8870              1059.5326              1069.7329
 Red. masses --     4.1228                 3.9574                 4.4022
 Frc consts  --     2.7185                 2.6175                 2.9680
 IR Inten    --    16.9180               100.6477                99.2859
 Raman Activ --     3.7957                 1.3190                23.0745

                    64                     65                     66
                     A                      A                      A
 Frequencies --  1078.5625              1082.3901              1088.2997
 Red. masses --     3.0893                 2.4300                 3.4094
 Frc consts  --     2.1174                 1.6774                 2.3792
 IR Inten    --    65.7713                 1.7962                18.2680
 Raman Activ --     4.0808                 1.3571                 1.0157

                    67                     68                     69
                     A                      A                      A
 Frequencies --  1098.2240              1106.2451              1112.6299
 Red. masses --     2.4472                 2.5375                 2.2534
 Frc consts  --     1.7390                 1.8296                 1.6436
 IR Inten    --    29.3469                33.2302                13.3316
 Raman Activ --     3.8951                 0.3995                 4.7091

                    70                     71                     72
                     A                      A                      A
 Frequencies --  1114.8016              1137.4327              1148.1664
 Red. masses --     2.1287                 2.4095                 3.2376
 Frc consts  --     1.5587                 1.8366                 2.5147
 IR Inten    --    26.7042                16.3127                 8.7686
 Raman Activ --     7.1254                 2.7100                 2.3043

                    73                     74                     75
                     A                      A                      A
 Frequencies --  1157.1130              1167.9138              1178.8845
 Red. masses --     2.7556                 1.4874                 1.5622
 Frc consts  --     2.1738                 1.1954                 1.2792
 IR Inten    --    17.3883                 1.5608                 1.9917
 Raman Activ --     4.8370                 4.3373                 1.3496

                    76                     77                     78
                     A                      A                      A
 Frequencies --  1191.1827              1195.3062              1209.1883
 Red. masses --     1.6903                 1.3682                 1.5400
 Frc consts  --     1.4131                 1.1517                 1.3266
 IR Inten    --    27.1990                31.6507                 4.9784
 Raman Activ --     2.1691                 2.2475                 1.7119

                    79                     80                     81
                     A                      A                      A
 Frequencies --  1211.6321              1233.2062              1246.4155
 Red. masses --     1.4267                 1.2954                 1.2968
 Frc consts  --     1.2340                 1.1608                 1.1870
 IR Inten    --    17.3514                21.7590                 8.8219
 Raman Activ --     4.9601                 3.7675                 1.0895

                    82                     83                     84
                     A                      A                      A
 Frequencies --  1253.8127              1260.2899              1264.9992
 Red. masses --     1.4199                 1.2978                 1.3564
 Frc consts  --     1.3152                 1.2145                 1.2789
 IR Inten    --     3.0019                 4.8393                 5.6246
 Raman Activ --     2.0915                 6.5297                 0.7161

                    85                     86                     87
                     A                      A                      A
 Frequencies --  1286.6462              1293.3664              1304.0675
 Red. masses --     1.3611                 1.2583                 1.3181
 Frc consts  --     1.3276                 1.2401                 1.3207
 IR Inten    --    29.0023                30.6642                57.8637
 Raman Activ --     1.3785                 1.1830                 7.6138

                    88                     89                     90
                     A                      A                      A
 Frequencies --  1313.4764              1315.0590              1317.6336
 Red. masses --     1.3706                 1.2345                 1.4702
 Frc consts  --     1.3932                 1.2579                 1.5039
 IR Inten    --    12.4405                 4.4340                 0.1945
 Raman Activ --     6.0972                 3.0589                 2.1046

                    91                     92                     93
                     A                      A                      A
 Frequencies --  1332.2624              1339.4029              1348.3849
 Red. masses --     1.2103                 1.3127                 1.2308
 Frc consts  --     1.2657                 1.3875                 1.3185
 IR Inten    --     3.6788                53.6669                32.2311
 Raman Activ --     3.0745                 4.8123                 3.2176

                    94                     95                     96
                     A                      A                      A
 Frequencies --  1355.8017              1365.0898              1371.2047
 Red. masses --     1.4315                 1.3899                 1.2922
 Frc consts  --     1.5503                 1.5261                 1.4315
 IR Inten    --    13.6970                38.8933                 7.5611
 Raman Activ --     2.2930                 4.9055                 4.4153

                    97                     98                     99
                     A                      A                      A
 Frequencies --  1374.2313              1378.8635              1398.7092
 Red. masses --     1.2023                 1.1230                 1.2593
 Frc consts  --     1.3378                 1.2580                 1.4516
 IR Inten    --    21.3397                26.1190                 6.3486
 Raman Activ --     1.3700                 2.2516                 6.1227

                   100                    101                    102
                     A                      A                      A
 Frequencies --  1417.1091              1417.6997              1427.0832
 Red. masses --     1.4988                 1.4089                 1.3214
 Frc consts  --     1.7734                 1.6684                 1.5856
 IR Inten    --    23.8543                12.4891                24.6405
 Raman Activ --     3.6378                 8.5275                 1.8378

                   103                    104                    105
                     A                      A                      A
 Frequencies --  1450.1211              1451.5897              1469.2009
 Red. masses --     1.4263                 1.0819                 1.0846
 Frc consts  --     1.7671                 1.3432                 1.3793
 IR Inten    --    45.2813                 4.1977                 3.7177
 Raman Activ --     1.4022                 4.6783                 4.0166

                   106                    107                    108
                     A                      A                      A
 Frequencies --  1481.3119              1484.9493              3249.2105
 Red. masses --     1.2927                 1.3893                 1.0822
 Frc consts  --     1.6713                 1.8049                 6.7316
 IR Inten    --    23.5007                43.9023                33.9923
 Raman Activ --     1.4416                 3.6651                65.9128

                   109                    110                    111
                     A                      A                      A
 Frequencies --  3254.6633              3268.4586              3272.1558
 Red. masses --     1.0583                 1.0589                 1.0822
 Frc consts  --     6.6047                 6.6646                 6.8266
 IR Inten    --    41.5611                36.0859                 1.8577
 Raman Activ --    64.6740                70.5785                96.1405

                   112                    113                    114
                     A                      A                      A
 Frequencies --  3276.4286              3279.4736              3284.5934
 Red. masses --     1.0816                 1.0832                 1.0847
 Frc consts  --     6.8408                 6.8637                 6.8951
 IR Inten    --     0.8991                 9.1198                 8.5154
 Raman Activ --   122.8894                63.9921                20.1928

                   115                    116                    117
                     A                      A                      A
 Frequencies --  3286.6770              3287.7543              3294.7497
 Red. masses --     1.0849                 1.0853                 1.0909
 Frc consts  --     6.9047                 6.9122                 6.9769
 IR Inten    --     8.6908                 4.3303                10.2542
 Raman Activ --    27.0918                41.2803               104.1536

                   118                    119                    120
                     A                      A                      A
 Frequencies --  3299.5884              3310.0638              3313.9487
 Red. masses --     1.0863                 1.0951                 1.0906
 Frc consts  --     6.9682                 7.0692                 7.0568
 IR Inten    --    74.8130                25.4374                62.5210
 Raman Activ --    27.3797                37.9215                16.4905

                   121                    122                    123
                     A                      A                      A
 Frequencies --  3335.0474              3352.0113              3364.7788
 Red. masses --     1.1022                 1.0665                 1.0737
 Frc consts  --     7.2227                 7.0603                 7.1619
 IR Inten    --    37.1811               156.6012                32.6685
 Raman Activ --    53.7351               195.7422                87.6699

                   124                    125                    126
                     A                      A                      A
 Frequencies --  3370.4674              3372.0121              3372.1626
 Red. masses --     1.0666                 1.0658                 1.0681
 Frc consts  --     7.1390                 7.1400                 7.1561
 IR Inten    --    55.2798                40.4495                34.9930
 Raman Activ --    87.7992               122.6483               130.9074

                   127                    128                    129
                     A                      A                      A
 Frequencies --  3377.7981              3884.8669              3886.5954
 Red. masses --     1.0670                 1.0675                 1.0669
 Frc consts  --     7.1729                 9.4923                 9.4953
 IR Inten    --    46.8198                70.3857                56.4429
 Raman Activ --   146.8419                94.7771               121.9911

 - Thermochemistry -
 -------------------
 Temperature   298.150 Kelvin.  Pressure   1.00000 Atm.
 Atom     1 has atomic number  8 and mass  15.99491

 Molecular mass:   342.11621 amu.
 Principal axes and moments of inertia in atomic units:
                           1         2         3
     Eigenvalues --  4507.73309********************
           X            0.99998   0.00596  -0.00004
           Y           -0.00596   0.99998   0.00065
           Z            0.00004  -0.00065   1.00000
 This molecule is an asymmetric top.
 Rotational symmetry number  1.
 Warning -- assumption of classical behavior for rotation
           may cause significant error
 Rotational temperatures (Kelvin)      0.01921     0.00689     0.00529
 Rotational constants (GHZ):           0.40037     0.14362     0.11021
    7 imaginary frequencies ignored.
 Zero-point vibrational energy     969846.0 (Joules/Mol)
                                  231.79876 (Kcal/Mol)
 Warning -- explicit consideration of  32 degrees of freedom as
           vibrations may cause significant error
 Vibrational temperatures:     48.40    81.16   116.21   131.39   147.29
          (Kelvin)            170.46   202.88   244.46   261.06   302.20
                              367.73   386.69   401.03   418.56   435.27
                              450.44   493.80   503.68   530.25   552.09
                              589.12   611.03   615.49   629.62   663.19
                              715.04   768.12   803.16   817.72   828.01
                              832.99   855.10   902.83   949.96   958.77
                             1026.56  1028.21  1034.39  1064.49  1127.11
                             1247.65  1274.84  1312.13  1397.31  1401.00
                             1405.17  1411.07  1423.09  1459.78  1467.54
                             1475.48  1494.95  1507.21  1522.06  1524.43
                             1539.11  1551.81  1557.32  1565.82  1580.10
                             1591.64  1600.82  1603.95  1636.51  1651.95
                             1664.83  1680.37  1696.15  1713.84  1719.78
                             1739.75  1743.27  1774.31  1793.31  1803.95
                             1813.27  1820.05  1851.19  1860.86  1876.26
                             1889.80  1892.07  1895.78  1916.83  1927.10
                             1940.02  1950.69  1964.06  1972.86  1977.21
                             1983.87  2012.43  2038.90  2039.75  2053.25
                             2086.40  2088.51  2113.85  2131.27  2136.51
                             4674.88  4682.73  4702.58  4707.90  4714.04
                             4718.43  4725.79  4728.79  4730.34  4740.40
                             4747.37  4762.44  4768.03  4798.38  4822.79
                             4841.16  4849.34  4851.57  4851.78  4859.89
                             5589.45  5591.94

 Zero-point correction=                           0.369395 (Hartree/Particle)
 Thermal correction to Energy=                    0.388137
 Thermal correction to Enthalpy=                  0.389081
 Thermal correction to Gibbs Free Energy=         0.322841
 Sum of electronic and zero-point Energies=          -1297.569965
 Sum of electronic and thermal Energies=             -1297.551223
 Sum of electronic and thermal Enthalpies=           -1297.550279
 Sum of electronic and thermal Free Energies=        -1297.616519

                     E (Thermal)             CV                S
                      KCal/Mol        Cal/Mol-Kelvin    Cal/Mol-Kelvin
 Total                  243.559             76.815            139.414
 Electronic               0.000              0.000              0.000
 Translational            0.889              2.981             43.384
 Rotational               0.889              2.981             35.182
 Vibrational            241.782             70.854             60.847
 Vibration     1          0.594              1.983              5.602
 Vibration     2          0.596              1.975              4.579
 Vibration     3          0.600              1.962              3.872
 Vibration     4          0.602              1.955              3.632
 Vibration     5          0.604              1.947              3.409
 Vibration     6          0.609              1.934              3.125
 Vibration     7          0.615              1.912              2.790
 Vibration     8          0.625              1.880              2.437
 Vibration     9          0.630              1.865              2.313
 Vibration    10          0.642              1.825              2.043
 Vibration    11          0.666              1.753              1.692
 Vibration    12          0.673              1.731              1.604
 Vibration    13          0.679              1.713              1.541
 Vibration    14          0.687              1.691              1.469
 Vibration    15          0.694              1.669              1.403
 Vibration    16          0.701              1.649              1.346
 Vibration    17          0.722              1.589              1.197
 Vibration    18          0.727              1.575              1.166
 Vibration    19          0.741              1.537              1.086
 Vibration    20          0.753              1.505              1.024
 Vibration    21          0.774              1.450              0.929
 Vibration    22          0.787              1.417              0.876
 Vibration    23          0.789              1.410              0.866
 Vibration    24          0.798              1.388              0.834
 Vibration    25          0.819              1.337              0.763
 Vibration    26          0.852              1.257              0.666
 Vibration    27          0.889              1.175              0.579
 Vibration    28          0.914              1.122              0.527
 Vibration    29          0.924              1.100              0.507
 Vibration    30          0.932              1.084              0.494
 Vibration    31          0.936              1.077              0.487
 Vibration    32          0.952              1.044              0.460

 Normal termination of Gaussian 09 at Sat Apr  2 22:44:44 2016.
