 Gaussian 09, Revision B.01,
 Gaussian 09:  EM64L-G09RevB.01 12-Aug-2010

 -------------------------------------------------
 # freq=raman b3lyp/6-31+g(2d,p) geom=connectivity
 -------------------------------------------------

 -----------------
 350 7863/7863.com
 -----------------
 Symbolic Z-matrix:
 Charge =  0 Multiplicity = 1

                         Standard orientation:
 ---------------------------------------------------------------------
 Center     Atomic      Atomic             Coordinates (Angstroms)
 Number     Number       Type             X           Y           Z
 ---------------------------------------------------------------------
      1          8           0        4.976088   -0.472475   -0.348292
      2          6           0        3.715797   -0.042680    0.186502
      3          6           0        3.234349    1.334563   -0.239645
      4          8           0        4.267024    2.273380    0.092628
      5          1           0        4.992188    1.810287   -0.417761
      6          6           0        1.839705    1.530749    0.333182
      7          8           0        1.398295    2.798122   -0.174596
      8          1           0        0.445324    2.991649    0.055351
      9          6           0        3.142950   -2.507109    0.296262
     10          8           0        4.224289   -3.248310   -0.286988
     11          1           0        4.041937   -4.175395    0.042258
     12          6           0        2.823748   -1.159732   -0.329979
     13          8           0        1.468033   -0.938998    0.084457
     14          6           0        0.960434    0.384474   -0.138581
     15          8           0       -0.304832    0.473326    0.532444
     16          6           0       -1.571902    0.249957   -0.103334
     17          6           0       -2.035511   -1.133163    0.321169
     18          8           0       -1.116580   -2.150393   -0.102580
     19          1           0       -0.212556   -1.797230    0.139373
     20          6           0       -3.428619   -1.510946   -0.157114
     21          8           0       -4.021831   -2.584657    0.587458
     22          1           0       -4.880614   -2.924269    0.201716
     23          6           0       -2.316145    2.601265   -0.083282
     24          8           0       -1.090718    3.285450    0.213793
     25          1           0       -1.177680    4.259026   -0.000295
     26          6           0       -2.655046    1.195932    0.388639
     27          8           0       -3.891497    0.895225   -0.273489
     28          6           0       -4.419924   -0.387000    0.094633
     29          8           0       -5.448862   -0.634566   -0.875657
     30          1           0        5.544022   -0.766410    0.367706
     31          1           0        2.262100   -3.112263    0.243417
     32          1           0        3.373475   -2.344672    1.328431
     33          1           0        2.881315   -1.221531   -1.396641
     34          1           0        3.753127   -0.086965    1.254933
     35          1           0        3.141667    1.328780   -1.305608
     36          1           0        1.878640    1.552993    1.402242
     37          1           0        0.792402    0.504254   -1.188494
     38          1           0       -6.254241   -0.902058   -0.426866
     39          1           0       -3.102617    3.232253    0.274792
     40          1           0       -2.394653    2.582988   -1.150241
     41          1           0       -2.760168    1.155054    1.452678
     42          1           0       -1.476489    0.304896   -1.167655
     43          1           0       -2.053388   -1.145595    1.390948
     44          1           0       -3.407023   -1.754510   -1.198800
     45          1           0       -4.801052   -0.397972    1.094393
 ---------------------------------------------------------------------

 SCF Done:  E(RB3LYP) =  -1297.97987094     A.U. after   13 cycles

 The electronic state is 1-A.
 Alpha  occ. eigenvalues --  -19.19290 -19.18240 -19.17921 -19.17780 -19.17777
 Alpha  occ. eigenvalues --  -19.16767 -19.16168 -19.16118 -19.15176 -19.13671
 Alpha  occ. eigenvalues --  -19.12634 -10.30525 -10.30300 -10.26699 -10.25733
 Alpha  occ. eigenvalues --  -10.25484 -10.25025 -10.24586 -10.24523 -10.24420
 Alpha  occ. eigenvalues --  -10.24000 -10.23819 -10.23790  -1.09618  -1.09086
 Alpha  occ. eigenvalues --   -1.06161  -1.05449  -1.04007  -1.03723  -1.02818
 Alpha  occ. eigenvalues --   -1.02425  -1.02140  -1.00500  -0.99645  -0.82524
 Alpha  occ. eigenvalues --   -0.80115  -0.79337  -0.78224  -0.72030  -0.69486
 Alpha  occ. eigenvalues --   -0.67371  -0.64634  -0.63295  -0.62351  -0.61240
 Alpha  occ. eigenvalues --   -0.60074  -0.56659  -0.55994  -0.55366  -0.54914
 Alpha  occ. eigenvalues --   -0.53904  -0.53505  -0.52410  -0.52061  -0.50974
 Alpha  occ. eigenvalues --   -0.50866  -0.49753  -0.49562  -0.48270  -0.46544
 Alpha  occ. eigenvalues --   -0.46007  -0.45223  -0.44200  -0.43852  -0.42991
 Alpha  occ. eigenvalues --   -0.42757  -0.41985  -0.40930  -0.40496  -0.39520
 Alpha  occ. eigenvalues --   -0.39098  -0.38138  -0.37762  -0.36527  -0.35983
 Alpha  occ. eigenvalues --   -0.35151  -0.34807  -0.34443  -0.33723  -0.33196
 Alpha  occ. eigenvalues --   -0.32520  -0.31397  -0.30963  -0.30395  -0.29540
 Alpha  occ. eigenvalues --   -0.29177  -0.28690  -0.28294  -0.27421  -0.26411
 Alpha  occ. eigenvalues --   -0.26195
 Alpha virt. eigenvalues --   -0.02323  -0.02080  -0.01559   0.00138   0.00381
 Alpha virt. eigenvalues --    0.01043   0.01876   0.02014   0.02899   0.03613
 Alpha virt. eigenvalues --    0.03796   0.04321   0.04699   0.05115   0.05666

 Mulliken atomic charges:
              1
     1  O   -0.544806
     2  C    0.015088
     3  C    0.029840
     4  O   -0.529801
     5  H    0.345725
     6  C    0.063797
     7  O   -0.608858
     8  H    0.442573
     9  C   -0.242559
    10  O   -0.510244
    11  H    0.329242
    12  C    0.133631
    13  O   -0.270067
    14  C    0.214368
    15  O   -0.249337
    16  C    0.113732
    17  C    0.144717
    18  O   -0.587169
    19  H    0.385379
    20  C    0.177396
    21  O   -0.556820
    22  H    0.334508
    23  C   -0.268119
    24  O   -0.579764
    25  H    0.363548
    26  C    0.019410
    27  O   -0.249432
    28  C    0.089641
    29  O   -0.534854
    30  H    0.341484
    31  H    0.143502
    32  H    0.131230
    33  H    0.124482
    34  H    0.119013
    35  H    0.119784
    36  H    0.127684
    37  H    0.118305
    38  H    0.330706
    39  H    0.145508
    40  H    0.159084
    41  H    0.131069
    42  H    0.127635
    43  H    0.123694
    44  H    0.142363
    45  H    0.143693
 Sum of Mulliken atomic charges =   0.00000

 Dipole moment (field-independent basis, Debye):
    X=             -3.6212    Y=             -0.2395    Z=              1.8745  Tot=              4.0846
 Quadrupole moment (field-independent basis, Debye-Ang):
   XX=           -121.2758   YY=           -135.7263   ZZ=           -138.9098
   XY=            -14.0978   XZ=              1.3908   YZ=             -3.6341

  Exact polarizability: 234.144   2.362 196.953  -0.021  -1.106 143.592
 Approx polarizability: 274.023   3.109 257.236  -1.029  -0.782 238.750

 ******    7 imaginary frequencies (negative Signs) ******

                     1                      2                      3
                     A                      A                      A
 Frequencies --  -298.7259              -268.5262              -260.5221
 Red. masses --     1.7869                 1.6258                 1.1979
 Frc consts  --     0.0939                 0.0691                 0.0479
 IR Inten    --     1.7281                32.6022               128.3378
 Raman Activ --     0.0382                 0.2123                 1.3160

                     4                      5                      6
                     A                      A                      A
 Frequencies --  -197.3209               -80.7763               -70.8729
 Red. masses --     1.3048                 6.7314                 6.3047
 Frc consts  --     0.0299                 0.0259                 0.0187
 IR Inten    --    68.3632                 1.9094                 0.7186
 Raman Activ --     0.6092                 0.0219                 0.0244

                     7                      8                      9
                     A                      A                      A
 Frequencies --   -62.5819                35.1144                62.1285
 Red. masses --     5.3747                 6.2630                 6.7840
 Frc consts  --     0.0124                 0.0045                 0.0154
 IR Inten    --     2.5379                 0.0916                 1.4723
 Raman Activ --     0.0587                 0.0275                 0.1315

                    10                     11                     12
                     A                      A                      A
 Frequencies --    74.4908                98.6073               119.8558
 Red. masses --     6.3818                 5.2032                 5.8429
 Frc consts  --     0.0209                 0.0298                 0.0495
 IR Inten    --     0.3054                 6.1306                 0.2736
 Raman Activ --     0.2851                 0.0582                 0.0513

                    13                     14                     15
                     A                      A                      A
 Frequencies --   162.5065               178.1137               185.7846
 Red. masses --     6.1952                 5.7018                 6.8497
 Frc consts  --     0.0964                 0.1066                 0.1393
 IR Inten    --     2.7867                 2.6837                 0.4104
 Raman Activ --     0.5174                 0.3974                 0.8180

                    16                     17                     18
                     A                      A                      A
 Frequencies --   211.0803               235.3243               258.5467
 Red. masses --     6.9333                 5.5435                 4.7901
 Frc consts  --     0.1820                 0.1809                 0.1887
 IR Inten    --     0.4576                 6.4146                 8.5111
 Raman Activ --     2.7423                 0.3021                 0.2287

                    19                     20                     21
                     A                      A                      A
 Frequencies --   269.3412               280.4872               308.3745
 Red. masses --     6.0749                 5.4265                 6.0887
 Frc consts  --     0.2597                 0.2515                 0.3411
 IR Inten    --     5.1029                 4.2930                 1.6039
 Raman Activ --     0.5168                 0.2266                 2.1532

                    22                     23                     24
                     A                      A                      A
 Frequencies --   314.5780               327.6991               330.9688
 Red. masses --     5.6672                 5.6754                 5.7597
 Frc consts  --     0.3304                 0.3591                 0.3717
 IR Inten    --     1.5859                 2.9322                 1.9493
 Raman Activ --     1.9242                 0.9042                 2.1383

                    25                     26                     27
                     A                      A                      A
 Frequencies --   354.3887               368.0648               381.2523
 Red. masses --     5.9926                 6.6871                 5.5983
 Frc consts  --     0.4434                 0.5337                 0.4794
 IR Inten    --    18.3421                 4.9216                 7.6479
 Raman Activ --     2.0730                 1.7658                 0.5361

                    28                     29                     30
                     A                      A                      A
 Frequencies --   408.7041               428.2432               441.1187
 Red. masses --     3.7766                 5.6761                 4.9545
 Frc consts  --     0.3717                 0.6133                 0.5680
 IR Inten    --    15.6437                 6.3475                 2.6781
 Raman Activ --     2.7766                 5.5869                 0.4476

                    31                     32                     33
                     A                      A                      A
 Frequencies --   445.1013               477.2134               499.8894
 Red. masses --     5.3970                 3.9837                 4.6472
 Frc consts  --     0.6300                 0.5345                 0.6842
 IR Inten    --     1.4337                 1.1131                 2.7617
 Raman Activ --     1.8236                 3.4859                 0.8130

                    34                     35                     36
                     A                      A                      A
 Frequencies --   525.2396               535.5949               563.2422
 Red. masses --     3.3945                 3.2927                 3.7426
 Frc consts  --     0.5517                 0.5565                 0.6995
 IR Inten    --    23.5840                10.6295                15.6950
 Raman Activ --     1.2290                 4.8220                 1.1798

                    37                     38                     39
                     A                      A                      A
 Frequencies --   597.5189               598.8959               624.3083
 Red. masses --     4.5908                 3.0716                 5.3487
 Frc consts  --     0.9657                 0.6491                 1.2283
 IR Inten    --    14.7199                15.2841                27.6444
 Raman Activ --     0.4060                 0.2700                 1.0201

                    40                     41                     42
                     A                      A                      A
 Frequencies --   632.3041               686.7449               691.1910
 Red. masses --     4.2705                 4.0236                 1.0744
 Frc consts  --     1.0060                 1.1180                 0.3024
 IR Inten    --    33.5657                 8.6002                67.7380
 Raman Activ --     1.7861                 0.4974                 1.5544

                    43                     44                     45
                     A                      A                      A
 Frequencies --   694.2911               738.5731               756.8560
 Red. masses --     1.1251                 1.0862                 1.1486
 Frc consts  --     0.3195                 0.3491                 0.3877
 IR Inten    --   110.3499               101.9335                92.2837
 Raman Activ --     1.3557                 1.4838                 1.6213

                    46                     47                     48
                     A                      A                      A
 Frequencies --   810.2532               827.4634               860.5070
 Red. masses --     1.0713                 1.0763                 1.6806
 Frc consts  --     0.4144                 0.4342                 0.7332
 IR Inten    --   104.3949                87.2420                 4.4716
 Raman Activ --     1.0699                 2.2432                 0.4039

                    49                     50                     51
                     A                      A                      A
 Frequencies --   863.2690               912.9845               946.8533
 Red. masses --     1.7944                 5.6469                 4.8612
 Frc consts  --     0.7879                 2.7732                 2.5678
 IR Inten    --     4.3962               105.7055                39.6775
 Raman Activ --     0.8131                 3.1958                 0.8138

                    52                     53                     54
                     A                      A                      A
 Frequencies --   973.3963               981.2675               992.4105
 Red. masses --     7.4411                 6.3095                 5.0342
 Frc consts  --     4.1540                 3.5795                 2.9212
 IR Inten    --    88.9147               117.6042               239.4106
 Raman Activ --     1.9132                 3.7957                 2.6120

                    55                     56                     57
                     A                      A                      A
 Frequencies --  1002.8841              1008.9416              1019.0910
 Red. masses --     4.7349                 5.9453                 5.9667
 Frc consts  --     2.8058                 3.5658                 3.6510
 IR Inten    --   210.6307                38.5710               177.8969
 Raman Activ --     1.4271                 1.8788                 6.4832

                    58                     59                     60
                     A                      A                      A
 Frequencies --  1027.1955              1043.2623              1050.7233
 Red. masses --     5.5855                 5.4506                 4.7094
 Frc consts  --     3.4723                 3.4953                 3.0633
 IR Inten    --   397.4419               105.6890                17.3726
 Raman Activ --     1.9999                 5.6890                 6.0732

                    61                     62                     63
                     A                      A                      A
 Frequencies --  1068.8982              1072.8898              1076.7885
 Red. masses --     4.4980                 3.4506                 3.2119
 Frc consts  --     3.0279                 2.3402                 2.1942
 IR Inten    --    80.8094                 5.6883                42.0100
 Raman Activ --     5.5730                23.9736                 5.7284

                    64                     65                     66
                     A                      A                      A
 Frequencies --  1091.2161              1105.1983              1106.4703
 Red. masses --     3.0317                 3.2083                 3.0154
 Frc consts  --     2.1270                 2.3089                 2.1751
 IR Inten    --    56.3985                54.3743                 3.7436
 Raman Activ --    13.5741                 1.0049                 2.4943

                    67                     68                     69
                     A                      A                      A
 Frequencies --  1114.2979              1117.1997              1130.1323
 Red. masses --     2.2411                 2.2289                 2.1544
 Frc consts  --     1.6395                 1.6391                 1.6212
 IR Inten    --    10.5927                92.2343                22.6221
 Raman Activ --     2.0884                 5.8364                 3.1956

                    70                     71                     72
                     A                      A                      A
 Frequencies --  1134.3575              1135.9060              1147.0969
 Red. masses --     1.6807                 2.0010                 2.8268
 Frc consts  --     1.2742                 1.5212                 2.1915
 IR Inten    --    13.8397                28.5935                11.0967
 Raman Activ --     3.2432                 4.6464                 3.7635

                    73                     74                     75
                     A                      A                      A
 Frequencies --  1158.3748              1160.5085              1166.9722
 Red. masses --     2.1148                 1.9730                 1.5493
 Frc consts  --     1.6719                 1.5656                 1.2431
 IR Inten    --    35.9984                 5.5387                15.4269
 Raman Activ --     2.5326                 2.9982                 1.5659

                    76                     77                     78
                     A                      A                      A
 Frequencies --  1193.9907              1202.1865              1224.3004
 Red. masses --     1.4470                 1.5486                 1.2346
 Frc consts  --     1.2154                 1.3187                 1.0903
 IR Inten    --    18.4807                12.6345                13.1947
 Raman Activ --     3.7717                 0.9403                 0.4623

                    79                     80                     81
                     A                      A                      A
 Frequencies --  1236.2475              1239.1690              1245.2198
 Red. masses --     1.2491                 1.3334                 1.2254
 Frc consts  --     1.1248                 1.2064                 1.1195
 IR Inten    --    10.3971                 5.6791                 7.0337
 Raman Activ --     3.1855                 0.7870                 1.1295

                    82                     83                     84
                     A                      A                      A
 Frequencies --  1265.8361              1271.0226              1276.2456
 Red. masses --     1.3082                 1.2500                 1.4102
 Frc consts  --     1.2350                 1.1898                 1.3533
 IR Inten    --     9.2430                 5.2585                52.3461
 Raman Activ --     2.4104                 1.5455                 1.7574

                    85                     86                     87
                     A                      A                      A
 Frequencies --  1280.8973              1295.7091              1297.9079
 Red. masses --     1.2158                 1.4525                 1.2087
 Frc consts  --     1.1753                 1.4367                 1.1996
 IR Inten    --     1.8499                23.5088                14.5840
 Raman Activ --     4.6278                 5.2551                 5.3057

                    88                     89                     90
                     A                      A                      A
 Frequencies --  1309.1106              1313.9113              1320.2311
 Red. masses --     1.3426                 1.2980                 1.2744
 Frc consts  --     1.3557                 1.3203                 1.3087
 IR Inten    --    19.5304                21.5879                 1.3632
 Raman Activ --     2.5701                 3.7996                 8.8623

                    91                     92                     93
                     A                      A                      A
 Frequencies --  1331.0326              1348.7928              1349.2642
 Red. masses --     1.3564                 1.2700                 1.2242
 Frc consts  --     1.4159                 1.3613                 1.3131
 IR Inten    --    28.7262                18.8813                24.3359
 Raman Activ --     4.1150                 6.7153                 1.7105

                    94                     95                     96
                     A                      A                      A
 Frequencies --  1358.3409              1359.9357              1364.4159
 Red. masses --     1.2811                 1.3410                 1.3582
 Frc consts  --     1.3927                 1.4612                 1.4897
 IR Inten    --    39.7244                 1.0375                 5.3841
 Raman Activ --     7.0068                 2.6135                 3.0568

                    97                     98                     99
                     A                      A                      A
 Frequencies --  1373.0537              1383.7721              1390.9432
 Red. masses --     1.5708                 1.5932                 1.3831
 Frc consts  --     1.7448                 1.7974                 1.5766
 IR Inten    --    38.4355                 4.6002                 7.7828
 Raman Activ --     7.6759                 3.4441                 3.7503

                   100                    101                    102
                     A                      A                      A
 Frequencies --  1396.7312              1459.7468              1470.7032
 Red. masses --     1.5708                 1.3356                 1.0712
 Frc consts  --     1.8055                 1.6768                 1.3651
 IR Inten    --    26.8210                20.4933                 5.2582
 Raman Activ --     1.2429                 0.8581                 4.4081

                   103                    104                    105
                     A                      A                      A
 Frequencies --  1477.4822              1497.0841              1508.5161
 Red. masses --     1.0882                 1.3266                 1.2827
 Frc consts  --     1.3996                 1.7518                 1.7198
 IR Inten    --     3.1926                48.3644                26.2667
 Raman Activ --     4.2696                 1.5244                 1.7729

                   106                    107                    108
                     A                      A                      A
 Frequencies --  1530.3092              1540.7338              3232.1315
 Red. masses --     1.1811                 1.2689                 1.0685
 Frc consts  --     1.6296                 1.7747                 6.5764
 IR Inten    --     1.6654                85.7685              1199.7083
 Raman Activ --     0.6269                 1.3560               160.8618

                   109                    110                    111
                     A                      A                      A
 Frequencies --  3253.0215              3262.2960              3269.4115
 Red. masses --     1.0574                 1.0591                 1.0825
 Frc consts  --     6.5929                 6.6411                 6.8174
 IR Inten    --    28.8370                14.1920                18.8592
 Raman Activ --    69.4171               197.3221                54.5004

                   112                    113                    114
                     A                      A                      A
 Frequencies --  3271.8117              3278.2263              3283.8516
 Red. masses --     1.0822                 1.0830                 1.0841
 Frc consts  --     6.8257                 6.8571                 6.8882
 IR Inten    --    37.3064                10.7621                15.8086
 Raman Activ --    34.6397                64.2175                54.6393

                   115                    116                    117
                     A                      A                      A
 Frequencies --  3285.7512              3292.7478              3296.2423
 Red. masses --     1.0851                 1.0862                 1.0868
 Frc consts  --     6.9019                 6.9386                 6.9575
 IR Inten    --     2.3513                 9.6598                 8.8419
 Raman Activ --   132.9121                55.1245                83.7177

                   118                    119                    120
                     A                      A                      A
 Frequencies --  3297.8089              3300.8897              3306.8189
 Red. masses --     1.0878                 1.0892                 1.0886
 Frc consts  --     6.9705                 6.9923                 7.0138
 IR Inten    --     2.2995                85.0634                39.9496
 Raman Activ --    43.0775                 9.6239                13.8493

                   121                    122                    123
                     A                      A                      A
 Frequencies --  3311.3194              3313.1835              3315.0249
 Red. masses --     1.0958                 1.0898                 1.0850
 Frc consts  --     7.0789                 7.0484                 7.0248
 IR Inten    --   121.8148               241.2064               286.6246
 Raman Activ --    18.1638               124.6744                71.4533

                   124                    125                    126
                     A                      A                      A
 Frequencies --  3352.7023              3357.8387              3361.7277
 Red. masses --     1.0645                 1.0668                 1.0668
 Frc consts  --     7.0497                 7.0868                 7.1030
 IR Inten    --    42.2567                39.6336                32.9076
 Raman Activ --    65.8118               167.2429               142.9604

                   127                    128                    129
                     A                      A                      A
 Frequencies --  3363.8528              3890.2044              3890.7958
 Red. masses --     1.0667                 1.0674                 1.0675
 Frc consts  --     7.1119                 9.5174                 9.5212
 IR Inten    --    78.6975                70.0226                69.0226
 Raman Activ --   139.0532               107.9935                95.0133

 - Thermochemistry -
 -------------------
 Temperature   298.150 Kelvin.  Pressure   1.00000 Atm.
 Atom     1 has atomic number  8 and mass  15.99491

 Molecular mass:   342.11621 amu.
 Principal axes and moments of inertia in atomic units:
                           1         2         3
     Eigenvalues --  4359.60847********************
           X            0.99998  -0.00703   0.00023
           Y            0.00703   0.99997  -0.00415
           Z           -0.00020   0.00415   0.99999
 This molecule is an asymmetric top.
 Rotational symmetry number  1.
 Warning -- assumption of classical behavior for rotation
           may cause significant error
 Rotational temperatures (Kelvin)      0.01987     0.00687     0.00523
 Rotational constants (GHZ):           0.41397     0.14321     0.10905
    7 imaginary frequencies ignored.
 Zero-point vibrational energy     974412.5 (Joules/Mol)
                                  232.89017 (Kcal/Mol)
 Warning -- explicit consideration of  31 degrees of freedom as
           vibrations may cause significant error
 Vibrational temperatures:     50.52    89.39   107.18   141.87   172.45
          (Kelvin)            233.81   256.27   267.30   303.70   338.58
                              371.99   387.52   403.56   443.68   452.61
                              471.49   476.19   509.89   529.56   548.54
                              588.03   616.15   634.67   640.40   686.60
                              719.23   755.70   770.60   810.38   859.70
                              861.68   898.24   909.74   988.07   994.47
                              998.93  1062.64  1088.95  1165.77  1190.53
                             1238.08  1242.05  1313.58  1362.31  1400.50
                             1411.82  1427.86  1442.92  1451.64  1466.24
                             1477.90  1501.02  1511.75  1537.90  1543.65
                             1549.26  1570.01  1590.13  1591.96  1603.22
                             1607.40  1626.01  1632.09  1634.31  1650.41
                             1666.64  1669.71  1679.01  1717.88  1729.68
                             1761.49  1778.68  1782.89  1791.59  1821.25
                             1828.72  1836.23  1842.92  1864.23  1867.40
                             1883.52  1890.42  1899.52  1915.06  1940.61
                             1941.29  1954.35  1956.64  1963.09  1975.52
                             1990.94  2001.25  2009.58  2100.25  2116.01
                             2125.76  2153.97  2170.42  2201.77  2216.77
                             4650.31  4680.37  4693.71  4703.95  4707.40
                             4716.63  4724.72  4727.46  4737.52  4742.55
                             4744.81  4749.24  4757.77  4764.24  4766.93
                             4769.58  4823.78  4831.17  4836.77  4839.83
                             5597.13  5597.98

 Zero-point correction=                           0.371134 (Hartree/Particle)
 Thermal correction to Energy=                    0.389381
 Thermal correction to Enthalpy=                  0.390325
 Thermal correction to Gibbs Free Energy=         0.325486
 Sum of electronic and zero-point Energies=          -1297.608737
 Sum of electronic and thermal Energies=             -1297.590490
 Sum of electronic and thermal Enthalpies=           -1297.589545
 Sum of electronic and thermal Free Energies=        -1297.654385

                     E (Thermal)             CV                S
                      KCal/Mol        Cal/Mol-Kelvin    Cal/Mol-Kelvin
 Total                  244.340             75.786            136.467
 Electronic               0.000              0.000              0.000
 Translational            0.889              2.981             43.384
 Rotational               0.889              2.981             35.163
 Vibrational            242.563             69.825             57.920
 Vibration     1          0.594              1.982              5.517
 Vibration     2          0.597              1.972              4.388
 Vibration     3          0.599              1.966              4.031
 Vibration     4          0.604              1.950              3.482
 Vibration     5          0.609              1.933              3.103
 Vibration     6          0.623              1.888              2.520
 Vibration     7          0.629              1.869              2.348
 Vibration     8          0.632              1.859              2.269
 Vibration     9          0.643              1.824              2.034
 Vibration    10          0.655              1.787              1.838
 Vibration    11          0.667              1.748              1.672
 Vibration    12          0.674              1.730              1.600
 Vibration    13          0.680              1.710              1.531
 Vibration    14          0.698              1.658              1.371
 Vibration    15          0.702              1.646              1.338
 Vibration    16          0.711              1.620              1.271
 Vibration    17          0.713              1.614              1.255
 Vibration    18          0.730              1.566              1.147
 Vibration    19          0.741              1.538              1.088
 Vibration    20          0.751              1.510              1.034
 Vibration    21          0.773              1.451              0.931
 Vibration    22          0.790              1.409              0.864
 Vibration    23          0.801              1.380              0.823
 Vibration    24          0.804              1.372              0.811
 Vibration    25          0.834              1.301              0.718
 Vibration    26          0.855              1.250              0.658
 Vibration    27          0.880              1.194              0.598
 Vibration    28          0.891              1.171              0.575
 Vibration    29          0.919              1.111              0.517
 Vibration    30          0.955              1.037              0.454
 Vibration    31          0.957              1.034              0.452

 Normal termination of Gaussian 09 at Fri Mar 25 21:50:07 2016.
