 Gaussian 09, Revision B.01,
 Gaussian 09:  EM64L-G09RevB.01 12-Aug-2010

 -------------------------------------------------
 # freq=raman b3lyp/6-31+g(2d,p) geom=connectivity
 -------------------------------------------------

 -----------------
 300 7000/7000.com
 -----------------
 Symbolic Z-matrix:
 Charge =  0 Multiplicity = 1

                         Standard orientation:
 ---------------------------------------------------------------------
 Center     Atomic      Atomic             Coordinates (Angstroms)
 Number     Number       Type             X           Y           Z
 ---------------------------------------------------------------------
      1          8           0        4.956704   -0.453872   -0.326901
      2          6           0        3.714957   -0.030464    0.255434
      3          6           0        3.222608    1.230529   -0.436534
      4          8           0        4.122586    2.296882   -0.098545
      5          1           0        5.086848    2.036836   -0.152301
      6          6           0        1.849292    1.647852    0.062505
      7          8           0        1.345085    2.852727   -0.532225
      8          1           0        0.421660    2.951526   -0.160276
      9          6           0        3.072692   -2.488587    0.511581
     10          8           0        4.173553   -3.255427    0.002693
     11          1           0        3.911132   -4.202686    0.182312
     12          6           0        2.733332   -1.136825   -0.094683
     13          8           0        1.409387   -0.797078    0.341234
     14          6           0        1.001821    0.432852   -0.274919
     15          8           0       -0.290485    0.679855    0.298142
     16          6           0       -1.573370    0.291105   -0.213803
     17          6           0       -1.856742   -1.155707    0.155587
     18          8           0       -0.873710   -2.121870   -0.241499
     19          1           0       -0.043828   -1.765283    0.189259
     20          6           0       -3.277926   -1.541114   -0.223019
     21          8           0       -3.751529   -2.883487   -0.044561
     22          1           0       -4.725155   -2.893629   -0.273372
     23          6           0       -2.492002    2.648566    0.161495
     24          8           0       -1.267665    3.269375    0.579704
     25          1           0       -1.433223    4.239303    0.403020
     26          6           0       -2.698750    1.152364    0.336351
     27          8           0       -3.999018    0.740842   -0.108861
     28          6           0       -4.321214   -0.585489    0.333892
     29          8           0       -5.436103   -0.632776   -0.568610
     30          1           0       -6.249979   -0.722142   -0.067391
     31          1           0       -3.286858    3.138489    0.684066
     32          1           0       -2.612720    2.862557   -0.879915
     33          1           0       -2.692558    0.985636    1.393264
     34          1           0       -1.560613    0.379463   -1.280073
     35          1           0       -1.839941   -1.174325    1.225293
     36          1           0       -3.311456   -1.390910   -1.281894
     37          1           0       -4.564637   -0.682582    1.371302
     38          1           0        5.564454   -0.713816    0.369280
     39          1           0        2.198228   -3.099512    0.428003
     40          1           0        3.255192   -2.329246    1.553792
     41          1           0        2.718018   -1.243206   -1.159271
     42          1           0        3.798356    0.103262    1.313764
     43          1           0        3.202608    1.086754   -1.496642
     44          1           0        1.883263    1.768696    1.125116
     45          1           0        0.922572    0.312953   -1.335222
 ---------------------------------------------------------------------

 SCF Done:  E(RB3LYP) =  -1297.96321387     A.U. after   13 cycles

 The electronic state is 1-A.
 Alpha  occ. eigenvalues --  -19.18951 -19.18577 -19.17745 -19.17699 -19.17030
 Alpha  occ. eigenvalues --  -19.16796 -19.16545 -19.15733 -19.14625 -19.14331
 Alpha  occ. eigenvalues --  -19.13941 -10.30895 -10.30525 -10.25707 -10.25495
 Alpha  occ. eigenvalues --  -10.25301 -10.25273 -10.25098 -10.24446 -10.24381
 Alpha  occ. eigenvalues --  -10.24327 -10.24227 -10.24122  -1.10319  -1.09876
 Alpha  occ. eigenvalues --   -1.05452  -1.05195  -1.03696  -1.03000  -1.02882
 Alpha  occ. eigenvalues --   -1.02169  -1.01707  -1.00682  -1.00132  -0.82389
 Alpha  occ. eigenvalues --   -0.80751  -0.79052  -0.78407  -0.71830  -0.70014
 Alpha  occ. eigenvalues --   -0.67599  -0.64312  -0.62817  -0.62329  -0.61378
 Alpha  occ. eigenvalues --   -0.60807  -0.56650  -0.55692  -0.54779  -0.54462
 Alpha  occ. eigenvalues --   -0.53771  -0.53486  -0.52584  -0.51457  -0.51078
 Alpha  occ. eigenvalues --   -0.50741  -0.49922  -0.49417  -0.48543  -0.46666
 Alpha  occ. eigenvalues --   -0.45691  -0.45323  -0.44415  -0.43567  -0.43031
 Alpha  occ. eigenvalues --   -0.42555  -0.41678  -0.40960  -0.40574  -0.39849
 Alpha  occ. eigenvalues --   -0.39151  -0.38754  -0.37551  -0.36713  -0.36322
 Alpha  occ. eigenvalues --   -0.35120  -0.34507  -0.33936  -0.33730  -0.32831
 Alpha  occ. eigenvalues --   -0.31887  -0.31142  -0.30833  -0.30118  -0.29680
 Alpha  occ. eigenvalues --   -0.29206  -0.28986  -0.28017  -0.27707  -0.26630
 Alpha  occ. eigenvalues --   -0.26505
 Alpha virt. eigenvalues --   -0.01936  -0.01864  -0.01802  -0.00162   0.00175
 Alpha virt. eigenvalues --    0.00996   0.01928   0.02078   0.03083   0.03296
 Alpha virt. eigenvalues --    0.03568   0.04234   0.04923   0.05347   0.05700

 Mulliken atomic charges:
              1
     1  O   -0.524796
     2  C   -0.021432
     3  C    0.177137
     4  O   -0.566126
     5  H    0.337210
     6  C   -0.046328
     7  O   -0.570179
     8  H    0.409699
     9  C   -0.338752
    10  O   -0.517378
    11  H    0.336147
    12  C    0.174781
    13  O   -0.238913
    14  C    0.321321
    15  O   -0.321180
    16  C    0.212745
    17  C    0.168522
    18  O   -0.543862
    19  H    0.384707
    20  C    0.008753
    21  O   -0.566410
    22  H    0.341271
    23  C   -0.304565
    24  O   -0.535937
    25  H    0.353484
    26  C   -0.042899
    27  O   -0.215264
    28  C    0.138111
    29  O   -0.512376
    30  H    0.324234
    31  H    0.145120
    32  H    0.151194
    33  H    0.111094
    34  H    0.115768
    35  H    0.105069
    36  H    0.129464
    37  H    0.143384
    38  H    0.339224
    39  H    0.143633
    40  H    0.137984
    41  H    0.125141
    42  H    0.129232
    43  H    0.129375
    44  H    0.133465
    45  H    0.139128
 Sum of Mulliken atomic charges =   0.00000

 Dipole moment (field-independent basis, Debye):
    X=             -2.4807    Y=              0.2391    Z=              3.2799  Tot=              4.1193
 Quadrupole moment (field-independent basis, Debye-Ang):
   XX=           -114.8648   YY=           -140.2549   ZZ=           -137.8682
   XY=            -15.0195   XZ=              0.9033   YZ=             -2.8866

  Exact polarizability: 235.509   1.641 198.865  -0.018  -0.805 143.977
 Approx polarizability: 277.710   0.548 259.954   0.719  -1.351 239.504

 ******    6 imaginary frequencies (negative Signs) ******

                     1                      2                      3
                     A                      A                      A
 Frequencies --  -300.7444              -290.9133              -256.8926
 Red. masses --     1.6000                 1.7682                 1.1756
 Frc consts  --     0.0853                 0.0882                 0.0457
 IR Inten    --    23.0554                 1.9220                86.5527
 Raman Activ --     0.2080                 0.0574                 1.1991

                     4                      5                      6
                     A                      A                      A
 Frequencies --  -237.3691               -86.6729               -59.3070
 Red. masses --     1.1754                 5.6157                 6.6294
 Frc consts  --     0.0390                 0.0249                 0.0137
 IR Inten    --    92.2180                 0.5224                 1.7071
 Raman Activ --     0.8706                 0.0812                 0.0381

                     7                      8                      9
                     A                      A                      A
 Frequencies --    26.6440                43.4389                48.5804
 Red. masses --     6.4212                 6.0108                 7.0405
 Frc consts  --     0.0027                 0.0067                 0.0098
 IR Inten    --     0.7357                 1.5356                 1.5807
 Raman Activ --     0.0617                 0.0705                 0.1852

                    10                     11                     12
                     A                      A                      A
 Frequencies --    71.2017                99.0230               115.6999
 Red. masses --     6.4937                 6.6686                 7.0281
 Frc consts  --     0.0194                 0.0385                 0.0554
 IR Inten    --     1.9450                 0.1866                 0.8740
 Raman Activ --     0.1216                 0.0872                 0.0955

                    13                     14                     15
                     A                      A                      A
 Frequencies --   148.0872               159.1054               187.3954
 Red. masses --     6.0376                 6.5976                 5.9766
 Frc consts  --     0.0780                 0.0984                 0.1237
 IR Inten    --     2.9843                 0.4582                 0.2576
 Raman Activ --     0.5031                 0.2321                 0.6388

                    16                     17                     18
                     A                      A                      A
 Frequencies --   198.4524               221.0921               266.4531
 Red. masses --     7.2387                 6.2572                 4.4794
 Frc consts  --     0.1680                 0.1802                 0.1874
 IR Inten    --     0.1694                 0.7211                 9.6975
 Raman Activ --     2.0212                 0.9853                 0.1780

                    19                     20                     21
                     A                      A                      A
 Frequencies --   273.0367               285.7148               295.5365
 Red. masses --     5.4206                 4.7802                 5.4602
 Frc consts  --     0.2381                 0.2299                 0.2810
 IR Inten    --     4.9148                 2.4105                 3.0969
 Raman Activ --     0.3447                 0.1561                 0.3216

                    22                     23                     24
                     A                      A                      A
 Frequencies --   308.4434               313.4871               323.9146
 Red. masses --     5.0917                 6.1197                 6.3178
 Frc consts  --     0.2854                 0.3543                 0.3905
 IR Inten    --     8.0684                 5.8330                 2.9802
 Raman Activ --     0.8487                 2.2958                 1.6764

                    25                     26                     27
                     A                      A                      A
 Frequencies --   328.9870               360.8551               372.4114
 Red. masses --     6.6756                 4.2743                 5.6541
 Frc consts  --     0.4257                 0.3279                 0.4620
 IR Inten    --     5.0737                 4.6357                 2.9642
 Raman Activ --     7.2376                 0.2496                 0.8526

                    28                     29                     30
                     A                      A                      A
 Frequencies --   402.6895               416.9894               430.1530
 Red. masses --     5.6018                 6.0768                 6.0793
 Frc consts  --     0.5352                 0.6226                 0.6627
 IR Inten    --    11.2892                 5.7383                 4.6671
 Raman Activ --     1.8281                 7.2752                 2.8307

                    31                     32                     33
                     A                      A                      A
 Frequencies --   440.5940               466.8552               493.9941
 Red. masses --     3.8746                 3.5170                 3.7935
 Frc consts  --     0.4432                 0.4516                 0.5454
 IR Inten    --     1.3436                 8.0008                12.7139
 Raman Activ --     1.6180                 1.7351                 5.6764

                    34                     35                     36
                     A                      A                      A
 Frequencies --   501.7393               527.8051               563.5965
 Red. masses --     5.5087                 3.4351                 4.1363
 Frc consts  --     0.8171                 0.5638                 0.7741
 IR Inten    --     1.4972                13.4899                 4.3741
 Raman Activ --     0.1307                 2.8516                 1.2168

                    37                     38                     39
                     A                      A                      A
 Frequencies --   587.7541               592.5575               614.2443
 Red. masses --     5.3474                 2.9314                 3.7353
 Frc consts  --     1.0884                 0.6064                 0.8304
 IR Inten    --     6.9252                63.1650                17.2316
 Raman Activ --     0.4146                 0.4763                 0.9449

                    40                     41                     42
                     A                      A                      A
 Frequencies --   659.1312               709.8768               712.8087
 Red. masses --     6.4545                 1.0770                 5.0835
 Frc consts  --     1.6522                 0.3198                 1.5218
 IR Inten    --    34.4354                93.9514                15.5615
 Raman Activ --     0.7841                 1.3524                 3.0072

                    43                     44                     45
                     A                      A                      A
 Frequencies --   730.0553               735.1934               761.9925
 Red. masses --     1.0626                 1.0619                 1.1110
 Frc consts  --     0.3337                 0.3382                 0.3801
 IR Inten    --    75.7937               100.3407               110.3399
 Raman Activ --     2.0059                 1.7383                 1.3130

                    46                     47                     48
                     A                      A                      A
 Frequencies --   845.7765               848.1010               855.0196
 Red. masses --     1.5500                 1.2281                 1.1848
 Frc consts  --     0.6533                 0.5204                 0.5103
 IR Inten    --    42.9135                85.6177                32.3053
 Raman Activ --     0.7289                 2.0846                 0.4204

                    49                     50                     51
                     A                      A                      A
 Frequencies --   871.8447               910.2914               933.1499
 Red. masses --     1.5915                 4.9740                 5.1974
 Frc consts  --     0.7127                 2.4284                 2.6665
 IR Inten    --    44.0354               110.8069                47.6619
 Raman Activ --     1.2334                 4.1192                 1.3549

                    52                     53                     54
                     A                      A                      A
 Frequencies --   970.8623               979.1811               981.8755
 Red. masses --     6.2928                 5.5500                 4.8058
 Frc consts  --     3.4947                 3.1352                 2.7298
 IR Inten    --   147.4142               125.7726                28.7779
 Raman Activ --     0.7347                 4.0985                 1.1736

                    55                     56                     57
                     A                      A                      A
 Frequencies --   995.6751              1007.2860              1014.2765
 Red. masses --     4.6137                 6.3819                 6.0326
 Frc consts  --     2.6949                 3.8151                 3.6565
 IR Inten    --    43.3272                90.7597               306.0785
 Raman Activ --     4.0744                 1.5047                 4.4366

                    58                     59                     60
                     A                      A                      A
 Frequencies --  1031.6378              1057.4516              1064.0046
 Red. masses --     4.8145                 3.4370                 3.4313
 Frc consts  --     3.0189                 2.2644                 2.2887
 IR Inten    --   332.4449               158.7750                 9.6426
 Raman Activ --     1.7625                 5.7015                 1.9438

                    61                     62                     63
                     A                      A                      A
 Frequencies --  1070.0692              1073.7957              1082.2665
 Red. masses --     3.2224                 3.0606                 4.2822
 Frc consts  --     2.1740                 2.0792                 2.9552
 IR Inten    --     3.5658                35.6563                19.8729
 Raman Activ --     3.8229                 6.5822                 1.5995

                    64                     65                     66
                     A                      A                      A
 Frequencies --  1083.3497              1094.7656              1099.7590
 Red. masses --     2.8470                 4.1599                 3.3425
 Frc consts  --     1.9687                 2.9375                 2.3819
 IR Inten    --    19.1368               145.6226                20.8960
 Raman Activ --    25.1041                 3.1806                13.2453

                    67                     68                     69
                     A                      A                      A
 Frequencies --  1119.3620              1124.6402              1142.0873
 Red. masses --     2.4993                 2.4069                 1.8431
 Frc consts  --     1.8451                 1.7936                 1.4164
 IR Inten    --     8.2648                 4.8681                12.9141
 Raman Activ --     9.1711                 7.4820                 4.6976

                    70                     71                     72
                     A                      A                      A
 Frequencies --  1142.4617              1148.2097              1154.4135
 Red. masses --     2.3843                 2.7782                 1.8039
 Frc consts  --     1.8335                 2.1580                 1.4164
 IR Inten    --    28.1651                68.8972                41.7460
 Raman Activ --     4.4676                 2.8182                 1.7156

                    73                     74                     75
                     A                      A                      A
 Frequencies --  1162.3540              1166.5872              1188.6077
 Red. masses --     2.5738                 1.9697                 1.6189
 Frc consts  --     2.0488                 1.5794                 1.3476
 IR Inten    --    42.8116                 6.1710                 3.5846
 Raman Activ --     3.9374                 3.8227                 1.9800

                    76                     77                     78
                     A                      A                      A
 Frequencies --  1192.4800              1193.5967              1212.8962
 Red. masses --     1.3771                 2.0538                 1.2925
 Frc consts  --     1.1538                 1.7240                 1.1202
 IR Inten    --    12.2949                14.4845                 6.7096
 Raman Activ --     0.2060                 2.8483                 0.8175

                    79                     80                     81
                     A                      A                      A
 Frequencies --  1226.8708              1238.7880              1263.5798
 Red. masses --     1.5926                 1.1540                 1.2469
 Frc consts  --     1.4124                 1.0434                 1.1729
 IR Inten    --     3.9527                11.0884                11.0990
 Raman Activ --     1.9903                 1.7639                 1.9328

                    82                     83                     84
                     A                      A                      A
 Frequencies --  1269.9054              1288.1528              1296.6373
 Red. masses --     1.3403                 1.2704                 1.2483
 Frc consts  --     1.2735                 1.2421                 1.2365
 IR Inten    --    24.9499                13.9694                 1.8289
 Raman Activ --     0.6378                 3.0237                 4.9174

                    85                     86                     87
                     A                      A                      A
 Frequencies --  1300.4612              1305.4388              1309.3797
 Red. masses --     1.2817                 1.2065                 1.2792
 Frc consts  --     1.2771                 1.2114                 1.2922
 IR Inten    --    14.6403                32.0790                20.2278
 Raman Activ --     3.9071                 8.7418                 1.3240

                    88                     89                     90
                     A                      A                      A
 Frequencies --  1314.7471              1320.2452              1329.4193
 Red. masses --     1.3135                 1.2263                 1.1772
 Frc consts  --     1.3377                 1.2594                 1.2259
 IR Inten    --    25.3458                 6.7414                26.1851
 Raman Activ --     4.6185                 3.5013                 8.2240

                    91                     92                     93
                     A                      A                      A
 Frequencies --  1346.3340              1350.1987              1361.7065
 Red. masses --     1.4040                 1.3653                 1.1964
 Frc consts  --     1.4994                 1.4664                 1.3070
 IR Inten    --     9.9648                20.0058                36.3761
 Raman Activ --     7.1585                 5.4265                 2.3842

                    94                     95                     96
                     A                      A                      A
 Frequencies --  1368.2781              1371.5981              1374.6525
 Red. masses --     1.3527                 1.2255                 1.4926
 Frc consts  --     1.4921                 1.3584                 1.6618
 IR Inten    --    25.3210                21.8537                 2.8633
 Raman Activ --     5.6778                 2.5365                 7.5712

                    97                     98                     99
                     A                      A                      A
 Frequencies --  1380.5749              1386.2355              1393.2131
 Red. masses --     1.1527                 1.4666                 1.5073
 Frc consts  --     1.2944                 1.6604                 1.7238
 IR Inten    --    25.3949                17.4324                 3.0086
 Raman Activ --     2.8513                 2.9770                 3.4158

                   100                    101                    102
                     A                      A                      A
 Frequencies --  1405.5547              1454.0761              1467.2254
 Red. masses --     1.6084                 1.4271                 1.0743
 Frc consts  --     1.8722                 1.7778                 1.3625
 IR Inten    --    25.3186                26.1767                 4.4583
 Raman Activ --     1.7639                 1.0754                 4.4290

                   103                    104                    105
                     A                      A                      A
 Frequencies --  1477.1399              1488.6264              1489.8353
 Red. masses --     1.0757                 1.3294                 1.3602
 Frc consts  --     1.3829                 1.7357                 1.7788
 IR Inten    --     4.1157                38.1940                14.4941
 Raman Activ --     5.3618                 0.6804                 1.2261

                   106                    107                    108
                     A                      A                      A
 Frequencies --  1522.6824              1547.7338              3245.6140
 Red. masses --     1.2487                 1.2286                 1.0793
 Frc consts  --     1.7058                 1.7341                 6.6986
 IR Inten    --    32.8924                32.5521                22.9257
 Raman Activ --     0.6366                 1.3514                41.6911

                   109                    110                    111
                     A                      A                      A
 Frequencies --  3252.4566              3254.5514              3257.3866
 Red. masses --     1.0582                 1.0696                 1.0684
 Frc consts  --     6.5955                 6.6752                 6.6789
 IR Inten    --    24.5638                92.8503                43.2651
 Raman Activ --    75.3589               226.0161                22.4904

                   112                    113                    114
                     A                      A                      A
 Frequencies --  3267.7839              3271.2816              3279.6679
 Red. masses --     1.0697                 1.0829                 1.0825
 Frc consts  --     6.7298                 6.8278                 6.8600
 IR Inten    --   362.1001                 5.9803                18.7135
 Raman Activ --   172.4677                15.3094                11.2576

                   115                    116                    117
                     A                      A                      A
 Frequencies --  3282.8072              3285.3001              3287.6793
 Red. masses --     1.0739                 1.0842                 1.0854
 Frc consts  --     6.8185                 6.8944                 6.9119
 IR Inten    --   478.8890                 1.2583                44.6654
 Raman Activ --   242.5867                28.6300                33.1153

                   118                    119                    120
                     A                      A                      A
 Frequencies --  3291.8998              3296.6497              3305.0399
 Red. masses --     1.0779                 1.0869                 1.0985
 Frc consts  --     6.8820                 6.9593                 7.0700
 IR Inten    --   384.8416                 6.5160                16.3772
 Raman Activ --    89.9254                57.5348                16.5754

                   121                    122                    123
                     A                      A                      A
 Frequencies --  3308.3881              3310.4759              3311.0864
 Red. masses --     1.1045                 1.0894                 1.0921
 Frc consts  --     7.1229                 7.0340                 7.0541
 IR Inten    --    22.8099                27.0868               136.6537
 Raman Activ --    60.0970                73.8877                13.5693

                   124                    125                    126
                     A                      A                      A
 Frequencies --  3360.8113              3363.1992              3374.2650
 Red. masses --     1.0656                 1.0663                 1.0658
 Frc consts  --     7.0911                 7.1060                 7.1498
 IR Inten    --    43.8899                29.9401                53.9209
 Raman Activ --   113.8170               149.1021               127.9758

                   127                    128                    129
                     A                      A                      A
 Frequencies --  3379.8797              3888.3107              3891.3752
 Red. masses --     1.0674                 1.0673                 1.0675
 Frc consts  --     7.1845                 9.5072                 9.5238
 IR Inten    --    41.3112                49.4991                71.3804
 Raman Activ --   133.2257               157.1171                92.3870

 - Thermochemistry -
 -------------------
 Temperature   298.150 Kelvin.  Pressure   1.00000 Atm.
 Atom     1 has atomic number  8 and mass  15.99491

 Molecular mass:   342.11621 amu.
 Principal axes and moments of inertia in atomic units:
                           1         2         3
     Eigenvalues --  4459.73321********************
           X            0.99997  -0.00818   0.00032
           Y            0.00818   0.99996  -0.00270
           Z           -0.00030   0.00270   1.00000
 This molecule is an asymmetric top.
 Rotational symmetry number  1.
 Warning -- assumption of classical behavior for rotation
           may cause significant error
 Rotational temperatures (Kelvin)      0.01942     0.00706     0.00530
 Rotational constants (GHZ):           0.40467     0.14708     0.11045
    6 imaginary frequencies ignored.
 Zero-point vibrational energy     975129.5 (Joules/Mol)
                                  233.06155 (Kcal/Mol)
 Warning -- explicit consideration of  33 degrees of freedom as
           vibrations may cause significant error
 Vibrational temperatures:     38.33    62.50    69.90   102.44   142.47
          (Kelvin)            166.47   213.06   228.92   269.62   285.53
                              318.10   383.37   392.84   411.08   425.21
                              443.78   451.04   466.04   473.34   519.19
                              535.82   579.38   599.95   618.89   633.92
                              671.70   710.75   721.89   759.39   810.89
                              845.65   852.56   883.76   948.34  1021.35
                             1025.57  1050.39  1057.78  1096.34  1216.88
                             1220.23  1230.18  1254.39  1309.70  1342.59
                             1396.85  1408.82  1412.70  1432.55  1449.26
                             1459.32  1484.29  1521.44  1530.86  1539.59
                             1544.95  1557.14  1558.70  1575.12  1582.31
                             1610.51  1618.10  1643.21  1643.75  1652.02
                             1660.94  1672.37  1678.46  1710.14  1715.71
                             1717.32  1745.08  1765.19  1782.34  1818.01
                             1827.11  1853.36  1865.57  1871.07  1878.23
                             1883.90  1891.63  1899.54  1912.74  1937.07
                             1942.63  1959.19  1968.64  1973.42  1977.82
                             1986.34  1994.48  2004.52  2022.28  2092.09
                             2111.01  2125.27  2141.80  2143.54  2190.80
                             2226.84  4669.71  4679.55  4682.57  4686.65
                             4701.61  4706.64  4718.70  4723.22  4726.81
                             4730.23  4736.30  4743.14  4755.21  4760.03
                             4763.03  4763.91  4835.45  4838.89  4854.81
                             4862.89  5594.40  5598.81

 Zero-point correction=                           0.371407 (Hartree/Particle)
 Thermal correction to Energy=                    0.390740
 Thermal correction to Enthalpy=                  0.391684
 Thermal correction to Gibbs Free Energy=         0.323413
 Sum of electronic and zero-point Energies=          -1297.591807
 Sum of electronic and thermal Energies=             -1297.572474
 Sum of electronic and thermal Enthalpies=           -1297.571530
 Sum of electronic and thermal Free Energies=        -1297.639801

                     E (Thermal)             CV                S
                      KCal/Mol        Cal/Mol-Kelvin    Cal/Mol-Kelvin
 Total                  245.193             77.828            143.688
 Electronic               0.000              0.000              0.000
 Translational            0.889              2.981             43.384
 Rotational               0.889              2.981             35.146
 Vibrational            243.415             71.866             65.158
 Vibration     1          0.593              1.984              6.065
 Vibration     2          0.595              1.980              5.096
 Vibration     3          0.595              1.978              4.874
 Vibration     4          0.598              1.968              4.120
 Vibration     5          0.604              1.950              3.473
 Vibration     6          0.608              1.936              3.171
 Vibration     7          0.617              1.905              2.697
 Vibration     8          0.621              1.892              2.560
 Vibration     9          0.632              1.857              2.253
 Vibration    10          0.637              1.842              2.147
 Vibration    11          0.648              1.809              1.950
 Vibration    12          0.672              1.735              1.619
 Vibration    13          0.676              1.723              1.577
 Vibration    14          0.683              1.700              1.499
 Vibration    15          0.690              1.682              1.442
 Vibration    16          0.698              1.658              1.371
 Vibration    17          0.701              1.648              1.344
 Vibration    18          0.708              1.628              1.290
 Vibration    19          0.712              1.618              1.265
 Vibration    20          0.735              1.553              1.118
 Vibration    21          0.744              1.529              1.070
 Vibration    22          0.768              1.464              0.953
 Vibration    23          0.780              1.433              0.902
 Vibration    24          0.791              1.405              0.858
 Vibration    25          0.800              1.382              0.825
 Vibration    26          0.824              1.324              0.746
 Vibration    27          0.850              1.263              0.673
 Vibration    28          0.857              1.246              0.654
 Vibration    29          0.883              1.188              0.592
 Vibration    30          0.919              1.110              0.517
 Vibration    31          0.945              1.058              0.471
 Vibration    32          0.950              1.048              0.463
 Vibration    33          0.974              1.002              0.426

 Normal termination of Gaussian 09 at Wed Mar 23 05:17:48 2016.
