 Gaussian 09, Revision B.01,
 Gaussian 09:  EM64L-G09RevB.01 12-Aug-2010

 ------------------------------------------------
 # freq=raman b3lyp/6-31+g(d,p) geom=connectivity
 ------------------------------------------------

 ------------
 500 6000.com
 ------------
 Symbolic Z-matrix:
 Charge =  0 Multiplicity = 1

                         Standard orientation:
 ---------------------------------------------------------------------
 Center     Atomic      Atomic             Coordinates (Angstroms)
 Number     Number       Type             X           Y           Z
 ---------------------------------------------------------------------
      1          8           0       -5.206120    0.642067   -0.367149
      2          6           0       -3.952692    0.233059    0.200712
      3          6           0       -3.582948   -1.164094   -0.267990
      4          8           0       -4.436609   -2.091683    0.416603
      5          1           0       -5.337433   -1.692109    0.588915
      6          6           0       -2.154405   -1.609325    0.002676
      7          8           0       -1.863720   -2.740922   -0.830228
      8          1           0       -1.945857   -3.576276   -0.284828
      9          6           0       -3.000081    2.596050    0.441293
     10          8           0       -1.958684    3.575946    0.313656
     11          1           0       -2.444561    4.396924    0.616250
     12          6           0       -2.859305    1.217739   -0.182626
     13          8           0       -1.546018    0.712608    0.101236
     14          6           0       -1.094209   -0.575756   -0.341099
     15          8           0        0.132354   -0.715450    0.390268
     16          6           0        1.450295   -0.307787   -0.002877
     17          6           0        1.938995    1.120693    0.170722
     18          8           0        0.998381    1.984316   -0.484197
     19          1           0        0.070420    1.770544   -0.176649
     20          6           0        3.320343    1.360181   -0.416255
     21          8           0        3.650924    2.741903   -0.616621
     22          1           0        2.836756    2.919183   -1.169434
     23          6           0        2.029080   -2.615375    0.588243
     24          8           0        2.630769   -3.246681   -0.551220
     25          1           0        2.314400   -4.194841   -0.577019
     26          6           0        2.502734   -1.173318    0.670085
     27          8           0        3.865381   -0.872459    0.334302
     28          6           0        4.270920    0.502582    0.404177
     29          8           0        5.606018    0.384497   -0.107568
     30          1           0       -5.897879    0.562882    0.293759
     31          1           0       -3.163462    2.449157    1.488493
     32          1           0       -3.889746    3.031974    0.037106
     33          1           0       -2.920292    1.349232   -1.242763
     34          1           0       -4.046530    0.223140    1.266543
     35          1           0       -3.770782   -1.234100   -1.319046
     36          1           0       -2.057821   -1.889857    1.030719
     37          1           0       -0.904952   -0.564886   -1.394172
     38          1           0        2.314754   -3.136529    1.478012
     39          1           0        0.964016   -2.636672    0.487819
     40          1           0        2.431341   -0.927368    1.708984
     41          1           0        6.183991    0.047584    0.580935
     42          1           0        4.289633    0.832847    1.421759
     43          1           0        3.304983    0.925346   -1.393794
     44          1           0        1.959540    1.356369    1.214242
     45          1           0        1.515714   -0.513583   -1.050860
 ---------------------------------------------------------------------

 SCF Done:  E(RB3LYP) =  -1297.91154167     A.U. after   14 cycles

 The electronic state is 1-A.
 Alpha  occ. eigenvalues --  -19.20548 -19.19086 -19.18900 -19.18707 -19.18584
 Alpha  occ. eigenvalues --  -19.18011 -19.16631 -19.15848 -19.15663 -19.15370
 Alpha  occ. eigenvalues --  -19.14742 -10.32384 -10.29584 -10.27973 -10.27271
 Alpha  occ. eigenvalues --  -10.27174 -10.26842 -10.25508 -10.24983 -10.24365
 Alpha  occ. eigenvalues --  -10.24131 -10.24023 -10.22798  -1.09857  -1.07871
 Alpha  occ. eigenvalues --   -1.07085  -1.05479  -1.04288  -1.03673  -1.03286
 Alpha  occ. eigenvalues --   -1.02747  -1.01309  -1.00230  -0.99654  -0.82990
 Alpha  occ. eigenvalues --   -0.81722  -0.79158  -0.77918  -0.72517  -0.69970
 Alpha  occ. eigenvalues --   -0.68573  -0.64712  -0.63810  -0.61721  -0.61003
 Alpha  occ. eigenvalues --   -0.59739  -0.57534  -0.56600  -0.55116  -0.54688
 Alpha  occ. eigenvalues --   -0.53398  -0.53134  -0.52821  -0.52566  -0.50952
 Alpha  occ. eigenvalues --   -0.50454  -0.50261  -0.48746  -0.47532  -0.47276
 Alpha  occ. eigenvalues --   -0.46333  -0.45394  -0.44629  -0.44225  -0.44088
 Alpha  occ. eigenvalues --   -0.43319  -0.42268  -0.40365  -0.40267  -0.38745
 Alpha  occ. eigenvalues --   -0.38580  -0.37690  -0.37336  -0.36652  -0.36547
 Alpha  occ. eigenvalues --   -0.35499  -0.35164  -0.34431  -0.33372  -0.33270
 Alpha  occ. eigenvalues --   -0.31756  -0.31271  -0.30875  -0.30659  -0.29688
 Alpha  occ. eigenvalues --   -0.29525  -0.28754  -0.27914  -0.27165  -0.26856
 Alpha  occ. eigenvalues --   -0.25782
 Alpha virt. eigenvalues --   -0.04385  -0.02239  -0.01874   0.00184   0.00450
 Alpha virt. eigenvalues --    0.00933   0.01419   0.01704   0.02123   0.02839
 Alpha virt. eigenvalues --    0.03582   0.04085   0.04755   0.05121   0.05424

 Mulliken atomic charges:
              1
     1  O   -0.515761
     2  C   -0.384523
     3  C    0.288055
     4  O   -0.541382
     5  H    0.339847
     6  C    0.042159
     7  O   -0.512389
     8  H    0.360607
     9  C   -0.308791
    10  O   -0.504674
    11  H    0.354801
    12  C    0.443532
    13  O   -0.384049
    14  C    0.317545
    15  O   -0.322984
    16  C   -0.230907
    17  C    0.185752
    18  O   -0.584317
    19  H    0.426355
    20  C   -0.279832
    21  O   -0.438461
    22  H    0.370778
    23  C   -0.179541
    24  O   -0.510524
    25  H    0.343596
    26  C   -0.051112
    27  O   -0.333076
    28  C    0.465221
    29  O   -0.484134
    30  H    0.356062
    31  H    0.125081
    32  H    0.146258
    33  H    0.136452
    34  H    0.140910
    35  H    0.162037
    36  H    0.157671
    37  H    0.137646
    38  H    0.117619
    39  H    0.145029
    40  H    0.117835
    41  H    0.349559
    42  H    0.113866
    43  H    0.150421
    44  H    0.129121
    45  H    0.142641
 Sum of Mulliken atomic charges =   0.00000

 Dipole moment (field-independent basis, Debye):
    X=             -8.9652    Y=             -1.5965    Z=              4.8993  Tot=             10.3406
 Quadrupole moment (field-independent basis, Debye-Ang):
   XX=           -129.7363   YY=           -133.4232   ZZ=           -136.4711
   XY=            -16.4339   XZ=              2.4535   YZ=             -1.0269

  Exact polarizability: 224.871   3.405 194.753  -0.923  -1.035 145.220
 Approx polarizability: 264.652   2.907 250.048  -2.505  -1.646 232.116

 ******    9 imaginary frequencies (negative Signs) ******

                     1                      2                      3
                     A                      A                      A
 Frequencies --  -338.9853              -306.4264              -272.0772
 Red. masses --     1.0733                 1.7300                 1.2232
 Frc consts  --     0.0727                 0.0957                 0.0533
 IR Inten    --   125.0657                 2.5315               100.7769
 Raman Activ --     2.0372                 0.1182                 0.6972

                     4                      5                      6
                     A                      A                      A
 Frequencies --  -206.3711               -83.4313               -76.6266
 Red. masses --     2.6062                 6.5011                 6.3184
 Frc consts  --     0.0654                 0.0267                 0.0219
 IR Inten    --     4.2646                 0.1478                 2.7299
 Raman Activ --     0.2346                 0.0669                 0.0608

                     7                      8                      9
                     A                      A                      A
 Frequencies --   -65.0830               -38.5920               -31.3016
 Red. masses --     6.1534                 5.8824                 5.8879
 Frc consts  --     0.0154                 0.0052                 0.0034
 IR Inten    --     0.4784                 2.3967                 0.9038
 Raman Activ --     0.0741                 0.0505                 0.0678

                    10                     11                     12
                     A                      A                      A
 Frequencies --    25.7923                48.8622                97.7874
 Red. masses --     6.6110                 6.7267                 5.9292
 Frc consts  --     0.0026                 0.0095                 0.0334
 IR Inten    --     0.8997                 0.6195                 0.3302
 Raman Activ --     0.0479                 0.0302                 0.1744

                    13                     14                     15
                     A                      A                      A
 Frequencies --   105.6011               125.4972               149.9439
 Red. masses --     6.1742                 5.9889                 6.7522
 Frc consts  --     0.0406                 0.0556                 0.0894
 IR Inten    --     1.4778                 6.0156                 0.8221
 Raman Activ --     0.1298                 0.1920                 1.5792

                    16                     17                     18
                     A                      A                      A
 Frequencies --   203.3852               207.8977               237.6680
 Red. masses --     6.0277                 5.8021                 4.9408
 Frc consts  --     0.1469                 0.1478                 0.1644
 IR Inten    --     1.1123                 0.3540                 9.2851
 Raman Activ --     1.2991                 1.4109                 0.8478

                    19                     20                     21
                     A                      A                      A
 Frequencies --   242.9183               262.1381               273.4839
 Red. masses --     4.6503                 4.7076                 4.4134
 Frc consts  --     0.1617                 0.1906                 0.1945
 IR Inten    --     7.4225                 0.8264                10.3247
 Raman Activ --     0.2551                 0.2663                 0.8169

                    22                     23                     24
                     A                      A                      A
 Frequencies --   295.9988               301.4033               318.6447
 Red. masses --     4.9123                 4.9958                 6.2544
 Frc consts  --     0.2536                 0.2674                 0.3742
 IR Inten    --     3.4101                 2.9082                 2.7454
 Raman Activ --     0.2462                 0.7042                 2.4990

                    25                     26                     27
                     A                      A                      A
 Frequencies --   331.3045               363.5051               377.1461
 Red. masses --     5.6063                 4.3045                 5.2195
 Frc consts  --     0.3626                 0.3351                 0.4374
 IR Inten    --     6.7659                 2.7888                 2.2944
 Raman Activ --     6.2925                 0.9701                 1.0721

                    28                     29                     30
                     A                      A                      A
 Frequencies --   395.9499               419.2336               430.7501
 Red. masses --     5.9080                 4.6708                 6.3505
 Frc consts  --     0.5457                 0.4837                 0.6942
 IR Inten    --    29.6070                 1.6140                 0.0750
 Raman Activ --     2.3972                 2.3673                 2.3428

                    31                     32                     33
                     A                      A                      A
 Frequencies --   451.8368               476.5806               504.4638
 Red. masses --     5.7244                 3.7220                 4.7433
 Frc consts  --     0.6886                 0.4981                 0.7112
 IR Inten    --     5.4582                 3.0275                 6.6687
 Raman Activ --     0.8182                 3.2761                 4.5430

                    34                     35                     36
                     A                      A                      A
 Frequencies --   532.0635               552.3828               566.5188
 Red. masses --     4.3284                 4.2692                 2.8057
 Frc consts  --     0.7219                 0.7675                 0.5305
 IR Inten    --    11.2461                34.2049                28.3173
 Raman Activ --     1.7272                 4.8199                 0.3948

                    37                     38                     39
                     A                      A                      A
 Frequencies --   571.3692               597.2002               619.1239
 Red. masses --     4.5472                 3.5263                 2.9961
 Frc consts  --     0.8746                 0.7410                 0.6766
 IR Inten    --    27.0820                13.1706                34.2262
 Raman Activ --     2.4823                 0.5102                 1.0532

                    40                     41                     42
                     A                      A                      A
 Frequencies --   643.3992               656.8966               684.4487
 Red. masses --     1.9919                 1.5761                 1.1340
 Frc consts  --     0.4858                 0.4007                 0.3130
 IR Inten    --    34.7678                74.1819               147.9568
 Raman Activ --     1.0395                 1.2865                 2.5746

                    43                     44                     45
                     A                      A                      A
 Frequencies --   696.0760               702.7078               705.3931
 Red. masses --     3.1380                 1.1359                 1.0910
 Frc consts  --     0.8958                 0.3305                 0.3198
 IR Inten    --     5.5262               155.7840                26.9793
 Raman Activ --     2.7929                 1.3421                 1.5522

                    46                     47                     48
                     A                      A                      A
 Frequencies --   710.6002               796.7769               834.8359
 Red. masses --     1.3359                 1.1035                 2.5200
 Frc consts  --     0.3974                 0.4128                 1.0348
 IR Inten    --   125.4353               102.6202                 5.6633
 Raman Activ --     0.7923                 3.5300                 5.1662

                    49                     50                     51
                     A                      A                      A
 Frequencies --   901.0364               905.3976               918.9400
 Red. masses --     3.9268                 2.4064                 3.0638
 Frc consts  --     1.8783                 1.1623                 1.5243
 IR Inten    --    35.2576                15.7154               133.8418
 Raman Activ --     2.9613                 1.7151                 3.0167

                    52                     53                     54
                     A                      A                      A
 Frequencies --   949.9252               985.9620               990.2827
 Red. masses --     6.1523                 5.0937                 5.9364
 Frc consts  --     3.2709                 2.9175                 3.4300
 IR Inten    --   269.7072                85.6612                45.4927
 Raman Activ --     2.9921                 1.0975                 0.8236

                    55                     56                     57
                     A                      A                      A
 Frequencies --  1010.3550              1019.1889              1026.1097
 Red. masses --     5.0016                 4.8700                 3.0963
 Frc consts  --     3.0082                 2.9805                 1.9208
 IR Inten    --   153.3857               130.3282                69.0436
 Raman Activ --     3.8966                 2.4668                 5.4762

                    58                     59                     60
                     A                      A                      A
 Frequencies --  1030.1420              1050.4844              1067.9833
 Red. masses --     2.6266                 2.8015                 5.5555
 Frc consts  --     1.6422                 1.8215                 3.7334
 IR Inten    --   419.3694                98.5586                30.4287
 Raman Activ --     1.9855                 1.7326                10.4952

                    61                     62                     63
                     A                      A                      A
 Frequencies --  1071.3709              1075.0751              1086.7481
 Red. masses --     6.2489                 5.6650                 4.6592
 Frc consts  --     4.2260                 3.8577                 3.2421
 IR Inten    --    89.0351                85.1609                48.6783
 Raman Activ --     3.1281                 2.9968                16.2211

                    64                     65                     66
                     A                      A                      A
 Frequencies --  1090.2179              1103.5096              1118.9977
 Red. masses --     3.2279                 2.7578                 2.7939
 Frc consts  --     2.2604                 1.9786                 2.0612
 IR Inten    --    39.3233                12.1845               130.4376
 Raman Activ --     2.8221                 3.6741                 7.6052

                    67                     68                     69
                     A                      A                      A
 Frequencies --  1126.6590              1137.9025              1141.3315
 Red. masses --     2.6464                 2.5016                 2.0958
 Frc consts  --     1.9792                 1.9084                 1.6085
 IR Inten    --    31.3278                 6.2629                38.2359
 Raman Activ --     2.8741                 1.6587                 3.2666

                    70                     71                     72
                     A                      A                      A
 Frequencies --  1148.1431              1160.9892              1165.5105
 Red. masses --     2.2246                 2.7991                 2.0657
 Frc consts  --     1.7278                 2.2229                 1.6533
 IR Inten    --     1.2746                69.8678                20.4519
 Raman Activ --     4.0946                 1.9768                 3.9202

                    73                     74                     75
                     A                      A                      A
 Frequencies --  1172.5679              1184.4980              1192.4027
 Red. masses --     1.9078                 1.6957                 2.4636
 Frc consts  --     1.5455                 1.4018                 2.0638
 IR Inten    --    13.8549                 2.7721                24.1986
 Raman Activ --     0.7430                 3.4481                 3.4479

                    76                     77                     78
                     A                      A                      A
 Frequencies --  1210.6683              1214.5440              1220.7795
 Red. masses --     1.3321                 1.4021                 1.3347
 Frc consts  --     1.1504                 1.2186                 1.1719
 IR Inten    --     8.2557                 0.8869                20.8272
 Raman Activ --     1.4612                 1.3566                 1.7494

                    79                     80                     81
                     A                      A                      A
 Frequencies --  1238.8515              1242.1937              1253.6173
 Red. masses --     1.1973                 1.2679                 1.2023
 Frc consts  --     1.0827                 1.1527                 1.1132
 IR Inten    --     2.5632                 6.3833                14.4907
 Raman Activ --     2.4570                 5.3253                 0.9282

                    82                     83                     84
                     A                      A                      A
 Frequencies --  1263.9769              1267.6970              1292.4611
 Red. masses --     1.2664                 1.3350                 1.3014
 Frc consts  --     1.1921                 1.2640                 1.2809
 IR Inten    --     8.2370                 6.2788                10.3459
 Raman Activ --     4.5362                 3.0094                 2.6640

                    85                     86                     87
                     A                      A                      A
 Frequencies --  1297.4209              1305.5348              1309.0067
 Red. masses --     1.2256                 1.2696                 1.2384
 Frc consts  --     1.2155                 1.2750                 1.2502
 IR Inten    --     1.5839                52.8461                32.4999
 Raman Activ --     4.2614                 5.1334                 4.4654

                    88                     89                     90
                     A                      A                      A
 Frequencies --  1316.9132              1328.1060              1337.1617
 Red. masses --     1.2769                 1.3665                 1.1928
 Frc consts  --     1.3047                 1.4201                 1.2565
 IR Inten    --     6.0494                31.8737                 7.6229
 Raman Activ --     3.5942                 4.3764                 1.5841

                    91                     92                     93
                     A                      A                      A
 Frequencies --  1346.7291              1354.6704              1355.9778
 Red. masses --     1.3584                 1.4183                 1.3772
 Frc consts  --     1.4516                 1.5335                 1.4920
 IR Inten    --    25.5474                37.5326                24.8187
 Raman Activ --     1.2916                 1.2947                 7.2377

                    94                     95                     96
                     A                      A                      A
 Frequencies --  1368.8087              1374.0524              1380.8295
 Red. masses --     1.4083                 1.1541                 1.2827
 Frc consts  --     1.5546                 1.2838                 1.4410
 IR Inten    --     5.3411                19.0455                18.5155
 Raman Activ --     9.3167                 5.5350                 1.6621

                    97                     98                     99
                     A                      A                      A
 Frequencies --  1390.5564              1398.6921              1400.3453
 Red. masses --     1.4477                 1.2177                 1.4348
 Frc consts  --     1.6494                 1.4035                 1.6577
 IR Inten    --     3.6509                11.5553                11.1661
 Raman Activ --     3.8465                 2.9960                 9.1236

                   100                    101                    102
                     A                      A                      A
 Frequencies --  1411.2383              1443.8908              1448.8484
 Red. masses --     1.5556                 1.4278                 1.3551
 Frc consts  --     1.8254                 1.7538                 1.6759
 IR Inten    --    32.0989                42.6581                23.7408
 Raman Activ --     3.6057                 4.3844                 1.3055

                   103                    104                    105
                     A                      A                      A
 Frequencies --  1459.4007              1470.3730              1493.6949
 Red. masses --     1.4580                 1.0783                 1.3402
 Frc consts  --     1.8297                 1.3735                 1.7617
 IR Inten    --    22.8422                 2.6247                15.2118
 Raman Activ --     2.3911                 5.8638                 1.3555

                   106                    107                    108
                     A                      A                      A
 Frequencies --  1501.2091              1548.1999              3255.3595
 Red. masses --     1.0843                 1.3081                 1.0752
 Frc consts  --     1.4398                 1.8474                 6.7135
 IR Inten    --     8.6955                72.6291                 8.2280
 Raman Activ --     4.6477                 1.5612                21.8839

                   109                    110                    111
                     A                      A                      A
 Frequencies --  3264.1232              3274.1645              3278.8330
 Red. masses --     1.0595                 1.0657                 1.0814
 Frc consts  --     6.6512                 6.7313                 6.8498
 IR Inten    --    49.8821                55.3513                18.5499
 Raman Activ --    93.0974               124.7412                73.8675

                   112                    113                    114
                     A                      A                      A
 Frequencies --  3281.8804              3282.0741              3291.7047
 Red. masses --     1.0822                 1.0824                 1.0850
 Frc consts  --     6.8676                 6.8693                 6.9267
 IR Inten    --    18.7163                 3.5881                 4.2790
 Raman Activ --    70.5788               149.3106                50.6258

                   115                    116                    117
                     A                      A                      A
 Frequencies --  3295.8941              3304.4092              3306.8749
 Red. masses --     1.0857                 1.0863                 1.0859
 Frc consts  --     6.9485                 6.9886                 6.9963
 IR Inten    --     9.7533               126.4908                 5.8845
 Raman Activ --    48.3142                25.7950                98.9907

                   118                    119                    120
                     A                      A                      A
 Frequencies --  3309.0543              3316.9919              3321.0055
 Red. masses --     1.0864                 1.1008                 1.0871
 Frc consts  --     7.0088                 7.1362                 7.0639
 IR Inten    --    13.2585                28.1672                71.6398
 Raman Activ --    10.4750                47.8486                 7.9389

                   121                    122                    123
                     A                      A                      A
 Frequencies --  3332.3710              3333.7979              3379.8349
 Red. masses --     1.0696                 1.1062                 1.0666
 Frc consts  --     6.9984                 7.2434                 7.1790
 IR Inten    --   497.3841                11.0776                21.2800
 Raman Activ --   209.4424                69.3627               119.4507

                   124                    125                    126
                     A                      A                      A
 Frequencies --  3382.9794              3386.5754              3387.7484
 Red. masses --     1.0664                 1.0668                 1.0680
 Frc consts  --     7.1908                 7.2088                 7.2219
 IR Inten    --    43.1722                10.0238                58.5706
 Raman Activ --   143.0066                99.5675               149.3452

                   127                    128                    129
                     A                      A                      A
 Frequencies --  3392.3693              3912.1591              3918.5519
 Red. masses --     1.0640                 1.0679                 1.0672
 Frc consts  --     7.2142                 9.6293                 9.6545
 IR Inten    --    43.7339                57.3907                64.6534
 Raman Activ --    40.7352               102.2472               132.2562

 - Thermochemistry -
 -------------------
 Temperature   298.150 Kelvin.  Pressure   1.00000 Atm.
 Atom     1 has atomic number  8 and mass  15.99491

 Molecular mass:   342.11621 amu.
 Principal axes and moments of inertia in atomic units:
                           1         2         3
     Eigenvalues --  4517.38261********************
           X            0.99997  -0.00805   0.00033
           Y            0.00805   0.99997  -0.00088
           Z           -0.00032   0.00089   1.00000
 This molecule is an asymmetric top.
 Rotational symmetry number  1.
 Warning -- assumption of classical behavior for rotation
           may cause significant error
 Rotational temperatures (Kelvin)      0.01917     0.00698     0.00530
 Rotational constants (GHZ):           0.39951     0.14548     0.11043
    9 imaginary frequencies ignored.
 Zero-point vibrational energy     973787.3 (Joules/Mol)
                                  232.74075 (Kcal/Mol)
 Warning -- explicit consideration of  30 degrees of freedom as
           vibrations may cause significant error
 Vibrational temperatures:     37.11    70.30   140.69   151.94   180.56
          (Kelvin)            215.74   292.63   299.12   341.95   349.50
                              377.16   393.48   425.88   433.65   458.46
                              476.67   523.00   542.63   569.68   603.18
                              619.75   650.09   685.69   725.81   765.52
                              794.75   815.09   822.07   859.24   890.78
                              925.71   945.13   984.77  1001.50  1011.04
                             1014.90  1022.39  1146.38  1201.14  1296.39
                             1302.66  1322.15  1366.73  1418.58  1424.79
                             1453.67  1466.38  1476.34  1482.14  1511.41
                             1536.59  1541.46  1546.79  1563.59  1568.58
                             1587.70  1609.99  1621.01  1637.19  1642.12
                             1651.92  1670.40  1676.91  1687.06  1704.23
                             1715.60  1741.88  1747.46  1756.43  1782.43
                             1787.24  1803.67  1818.58  1823.93  1859.56
                             1866.70  1878.37  1883.37  1894.74  1910.85
                             1923.88  1937.64  1949.07  1950.95  1969.41
                             1976.95  1986.70  2000.70  2012.40  2014.78
                             2030.45  2077.43  2084.57  2099.75  2115.54
                             2149.09  2159.90  2227.51  4683.73  4696.34
                             4710.79  4717.50  4721.89  4722.17  4736.02
                             4742.05  4754.30  4757.85  4760.99  4772.41
                             4778.18  4794.53  4796.59  4862.82  4867.35
                             4872.52  4874.21  4880.86  5628.72  5637.92

 Zero-point correction=                           0.370896 (Hartree/Particle)
 Thermal correction to Energy=                    0.388340
 Thermal correction to Enthalpy=                  0.389284
 Thermal correction to Gibbs Free Energy=         0.325620
 Sum of electronic and zero-point Energies=          -1297.540646
 Sum of electronic and thermal Energies=             -1297.523202
 Sum of electronic and thermal Enthalpies=           -1297.522258
 Sum of electronic and thermal Free Energies=        -1297.585921

                     E (Thermal)             CV                S
                      KCal/Mol        Cal/Mol-Kelvin    Cal/Mol-Kelvin
 Total                  243.687             72.726            133.991
 Electronic               0.000              0.000              0.000
 Translational            0.889              2.981             43.384
 Rotational               0.889              2.981             35.170
 Vibrational            241.909             66.764             55.437
 Vibration     1          0.593              1.985              6.129
 Vibration     2          0.595              1.978              4.863
 Vibration     3          0.603              1.951              3.498
 Vibration     4          0.605              1.945              3.348
 Vibration     5          0.610              1.928              3.014
 Vibration     6          0.618              1.903              2.673
 Vibration     7          0.639              1.835              2.102
 Vibration     8          0.641              1.829              2.062
 Vibration     9          0.656              1.783              1.820
 Vibration    10          0.659              1.774              1.781
 Vibration    11          0.669              1.742              1.647
 Vibration    12          0.676              1.722              1.574
 Vibration    13          0.690              1.681              1.439
 Vibration    14          0.693              1.671              1.409
 Vibration    15          0.705              1.638              1.317
 Vibration    16          0.714              1.613              1.254
 Vibration    17          0.737              1.547              1.107
 Vibration    18          0.748              1.519              1.051
 Vibration    19          0.763              1.479              0.978
 Vibration    20          0.782              1.428              0.895
 Vibration    21          0.792              1.403              0.856
 Vibration    22          0.811              1.357              0.790
 Vibration    23          0.833              1.302              0.719
 Vibration    24          0.860              1.240              0.647
 Vibration    25          0.887              1.179              0.583
 Vibration    26          0.908              1.134              0.539
 Vibration    27          0.922              1.104              0.511
 Vibration    28          0.928              1.093              0.502
 Vibration    29          0.955              1.038              0.454
 Vibration    30          0.979              0.992              0.418

 Normal termination of Gaussian 09 at Thu Jan 21 17:50:47 2016.
