 Gaussian 09, Revision B.01,
 Gaussian 09:  EM64L-G09RevB.01 12-Aug-2010

 ------------------------------------------------
 # freq=raman b3lyp/6-31+g(d,p) geom=connectivity
 ------------------------------------------------

 ------------------------------
 450K 10000ps Cellobiose Unit 1
 ------------------------------
 Symbolic Z-matrix:
 Charge =  0 Multiplicity = 1

                         Standard orientation:
 ---------------------------------------------------------------------
 Center     Atomic      Atomic             Coordinates (Angstroms)
 Number     Number       Type             X           Y           Z
 ---------------------------------------------------------------------
      1          8           0       -5.022738   -0.615413    0.796762
      2          6           0       -3.909118   -0.300135   -0.051400
      3          6           0       -3.687353    1.173829    0.242751
      4          8           0       -4.551656    1.961382   -0.588885
      5          1           0       -5.487959    1.895581   -0.244854
      6          6           0       -2.284814    1.597829   -0.162531
      7          8           0       -1.961759    2.599850    0.811630
      8          1           0       -2.438710    3.471994    0.699116
      9          6           0       -2.972346   -2.504920   -0.221587
     10          8           0       -1.992705   -3.542801   -0.369342
     11          1           0       -2.383538   -4.265243   -0.940992
     12          6           0       -2.695511   -1.123749    0.347908
     13          8           0       -1.528814   -0.701437   -0.372377
     14          6           0       -1.168736    0.601843    0.106677
     15          8           0        0.121672    0.656431   -0.518995
     16          6           0        1.404493    0.273759   -0.002328
     17          6           0        1.958876   -1.090027   -0.380632
     18          8           0        0.884061   -2.040920   -0.373763
     19          1           0        0.036838   -1.553803   -0.584224
     20          6           0        3.223637   -1.405287    0.401159
     21          8           0        3.661322   -2.746722    0.660854
     22          1           0        3.094960   -3.265639    1.301955
     23          6           0        2.100979    2.485927    0.116277
     24          8           0        2.916969    3.645843   -0.100660
     25          1           0        3.146766    3.890144   -1.043293
     26          6           0        2.508810    1.173765   -0.533107
     27          8           0        3.823725    0.875911   -0.042745
     28          6           0        4.274198   -0.479073   -0.190304
     29          8           0        5.576770   -0.514824    0.409047
     30          1           0        6.182632    0.019103   -0.110043
     31          1           0       -5.817222   -0.204991    0.447549
     32          1           0       -3.382725   -2.345321   -1.196788
     33          1           0       -3.754444   -2.920493    0.378848
     34          1           0       -2.540901   -1.143909    1.406487
     35          1           0       -4.156886   -0.452383   -1.081124
     36          1           0       -3.862478    1.385134    1.276957
     37          1           0       -1.024097    0.545177    1.165341
     38          1           0       -2.249191    1.987786   -1.158304
     39          1           0        1.380095    0.350584    1.064631
     40          1           0        2.266226   -1.009937   -1.402406
     41          1           0        3.032994   -1.009928    1.376990
     42          1           0        4.372127   -0.696460   -1.233401
     43          1           0        2.486458    1.241830   -1.600706
     44          1           0        2.051987    2.320358    1.172254
     45          1           0        1.113603    2.719456   -0.223505
 ---------------------------------------------------------------------

 SCF Done:  E(RB3LYP) =  -1297.86756573     A.U. after   13 cycles

 The electronic state is 1-A.
 Alpha  occ. eigenvalues --  -19.20451 -19.19829 -19.19448 -19.18667 -19.18260
 Alpha  occ. eigenvalues --  -19.17314 -19.16376 -19.16244 -19.15810 -19.14732
 Alpha  occ. eigenvalues --  -19.13158 -10.32592 -10.29611 -10.27579 -10.27184
 Alpha  occ. eigenvalues --  -10.27150 -10.27126 -10.26033 -10.24743 -10.24677
 Alpha  occ. eigenvalues --  -10.24340 -10.23573 -10.22343  -1.11029  -1.08035
 Alpha  occ. eigenvalues --   -1.07349  -1.05900  -1.04195  -1.03943  -1.01979
 Alpha  occ. eigenvalues --   -1.01480  -1.00962  -0.99760  -0.99221  -0.83268
 Alpha  occ. eigenvalues --   -0.82076  -0.79647  -0.78652  -0.72363  -0.69594
 Alpha  occ. eigenvalues --   -0.68306  -0.65334  -0.62952  -0.62637  -0.61923
 Alpha  occ. eigenvalues --   -0.60690  -0.57974  -0.57223  -0.55207  -0.54775
 Alpha  occ. eigenvalues --   -0.53409  -0.53272  -0.53098  -0.52551  -0.50412
 Alpha  occ. eigenvalues --   -0.50299  -0.49570  -0.49258  -0.48569  -0.46734
 Alpha  occ. eigenvalues --   -0.46114  -0.45043  -0.44441  -0.44125  -0.43058
 Alpha  occ. eigenvalues --   -0.42869  -0.42526  -0.40796  -0.40382  -0.40181
 Alpha  occ. eigenvalues --   -0.39456  -0.37672  -0.37096  -0.36526  -0.35457
 Alpha  occ. eigenvalues --   -0.34468  -0.34101  -0.33819  -0.33287  -0.33103
 Alpha  occ. eigenvalues --   -0.32793  -0.31418  -0.30678  -0.30499  -0.29462
 Alpha  occ. eigenvalues --   -0.29051  -0.28200  -0.27930  -0.27560  -0.25767
 Alpha  occ. eigenvalues --   -0.24896
 Alpha virt. eigenvalues --   -0.04567  -0.01551  -0.00854  -0.00716   0.00208
 Alpha virt. eigenvalues --    0.00777   0.01216   0.01574   0.01984   0.02635
 Alpha virt. eigenvalues --    0.02838   0.04005   0.04698   0.05151   0.05373

 Mulliken atomic charges:
              1
     1  O   -0.517032
     2  C    0.161948
     3  C   -0.070355
     4  O   -0.519912
     5  H    0.340219
     6  C    0.127304
     7  O   -0.541600
     8  H    0.370910
     9  C   -0.258923
    10  O   -0.525531
    11  H    0.349183
    12  C    0.184343
    13  O   -0.352271
    14  C    0.297805
    15  O   -0.407002
    16  C   -0.136948
    17  C    0.115377
    18  O   -0.518625
    19  H    0.435485
    20  C   -0.124734
    21  O   -0.487301
    22  H    0.364821
    23  C   -0.001528
    24  O   -0.540696
    25  H    0.336206
    26  C   -0.337771
    27  O   -0.302160
    28  C    0.413259
    29  O   -0.485403
    30  H    0.350887
    31  H    0.340092
    32  H    0.110429
    33  H    0.152267
    34  H    0.152128
    35  H    0.146252
    36  H    0.182687
    37  H    0.127109
    38  H    0.167929
    39  H    0.119545
    40  H    0.106761
    41  H    0.128760
    42  H    0.112920
    43  H    0.140752
    44  H    0.139693
    45  H    0.152721
 Sum of Mulliken atomic charges =   0.00000

 Dipole moment (field-independent basis, Debye):
    X=             -8.8041    Y=              2.0228    Z=             -2.2542  Tot=              9.3105
 Quadrupole moment (field-independent basis, Debye-Ang):
   XX=           -119.0693   YY=           -145.6104   ZZ=           -134.2725
   XY=              1.3424   XZ=             -9.7259   YZ=             -3.7702

  Exact polarizability: 225.194  -4.855 193.826  -1.737  -1.339 144.166
 Approx polarizability: 264.343  -6.182 247.458  -2.774  -1.879 234.114

 ******    8 imaginary frequencies (negative Signs) ******

                     1                      2                      3
                     A                      A                      A
 Frequencies --  -327.6096              -303.9580              -280.0746
 Red. masses --     1.6622                 1.0794                 1.1137
 Frc consts  --     0.1051                 0.0588                 0.0515
 IR Inten    --     3.3195               135.3933               133.6222
 Raman Activ --     0.1119                 1.6574                 1.1989

                     4                      5                      6
                     A                      A                      A
 Frequencies --  -188.4255               -98.8446               -93.1579
 Red. masses --     1.8026                 6.2783                 6.0058
 Frc consts  --     0.0377                 0.0361                 0.0307
 IR Inten    --     5.1528                 0.4410                 0.3842
 Raman Activ --     0.0647                 0.0290                 0.0408

                     7                      8                      9
                     A                      A                      A
 Frequencies --   -69.2601               -19.2367                20.6263
 Red. masses --     6.6559                 7.0541                 6.5611
 Frc consts  --     0.0188                 0.0015                 0.0016
 IR Inten    --     2.2252                 0.4699                 0.9355
 Raman Activ --     0.0760                 0.0878                 0.0413

                    10                     11                     12
                     A                      A                      A
 Frequencies --    70.2274                93.9695               114.0273
 Red. masses --     6.6501                 7.3030                 6.3440
 Frc consts  --     0.0193                 0.0380                 0.0486
 IR Inten    --     3.9678                 1.5861                 0.7644
 Raman Activ --     0.0831                 0.1634                 0.3031

                    13                     14                     15
                     A                      A                      A
 Frequencies --   128.4947               154.8267               162.6580
 Red. masses --     6.6278                 7.2238                 6.2133
 Frc consts  --     0.0645                 0.1020                 0.0969
 IR Inten    --     0.6143                 0.6143                 5.2240
 Raman Activ --     0.0541                 2.3331                 0.6289

                    16                     17                     18
                     A                      A                      A
 Frequencies --   185.8206               203.1428               251.0311
 Red. masses --     6.4499                 6.5339                 5.6402
 Frc consts  --     0.1312                 0.1589                 0.2094
 IR Inten    --     0.7485                 1.6521                13.4738
 Raman Activ --     1.3404                 0.6137                 0.2753

                    19                     20                     21
                     A                      A                      A
 Frequencies --   260.5226               272.9186               287.8147
 Red. masses --     6.6132                 5.3009                 5.2026
 Frc consts  --     0.2645                 0.2326                 0.2539
 IR Inten    --     3.8398                13.5552                 4.2612
 Raman Activ --     0.6015                 1.0605                 0.3954

                    22                     23                     24
                     A                      A                      A
 Frequencies --   296.6546               324.8809               343.2970
 Red. masses --     5.7098                 5.7449                 6.5786
 Frc consts  --     0.2961                 0.3573                 0.4568
 IR Inten    --     3.5071                 6.6846                 1.5091
 Raman Activ --     0.6785                 1.1657                 2.2684

                    25                     26                     27
                     A                      A                      A
 Frequencies --   352.0230               368.0401               391.0803
 Red. masses --     6.4136                 6.8010                 4.5085
 Frc consts  --     0.4683                 0.5428                 0.4063
 IR Inten    --     7.3993                 4.4235                 4.5855
 Raman Activ --     4.6121                 1.8763                 1.8186

                    28                     29                     30
                     A                      A                      A
 Frequencies --   416.3357               422.2725               446.1556
 Red. masses --     5.7388                 6.3881                 4.2079
 Frc consts  --     0.5861                 0.6711                 0.4935
 IR Inten    --     2.8876                 6.1145                 9.5613
 Raman Activ --     0.3048                 3.9933                 1.2774

                    31                     32                     33
                     A                      A                      A
 Frequencies --   468.2683               485.4734               510.4742
 Red. masses --     4.2835                 4.6920                 4.2093
 Frc consts  --     0.5534                 0.6515                 0.6463
 IR Inten    --    13.9726                 2.3365                 4.5912
 Raman Activ --     4.7990                 1.0000                 1.8488

                    34                     35                     36
                     A                      A                      A
 Frequencies --   519.5382               565.0417               582.7289
 Red. masses --     3.9073                 4.9395                 3.4711
 Frc consts  --     0.6214                 0.9292                 0.6945
 IR Inten    --    30.6197                12.7759                66.5281
 Raman Activ --     3.8528                 1.8190                 1.3124

                    37                     38                     39
                     A                      A                      A
 Frequencies --   598.7729               607.6530               617.0630
 Red. masses --     2.0432                 1.1911                 3.0694
 Frc consts  --     0.4316                 0.2591                 0.6886
 IR Inten    --    70.1917               130.9479                 9.5441
 Raman Activ --     2.9820                 1.0820                 0.5754

                    40                     41                     42
                     A                      A                      A
 Frequencies --   627.0295               629.2095               648.8345
 Red. masses --     2.5843                 1.5596                 2.6408
 Frc consts  --     0.5987                 0.3638                 0.6550
 IR Inten    --     6.9314                42.8017                37.6219
 Raman Activ --     0.3454                 2.0394                 1.7721

                    43                     44                     45
                     A                      A                      A
 Frequencies --   659.3404               678.6148               695.6533
 Red. masses --     1.1162                 2.2399                 1.3493
 Frc consts  --     0.2859                 0.6078                 0.3847
 IR Inten    --    82.7394                80.5528                59.9983
 Raman Activ --     1.7097                 0.5212                 0.6340

                    46                     47                     48
                     A                      A                      A
 Frequencies --   716.7056               770.8824               838.1670
 Red. masses --     1.1433                 1.0799                 2.5447
 Frc consts  --     0.3460                 0.3781                 1.0533
 IR Inten    --   109.8352               117.2122                10.3124
 Raman Activ --     2.5026                 2.1984                 1.7329

                    49                     50                     51
                     A                      A                      A
 Frequencies --   869.9966               920.3727               947.9652
 Red. masses --     2.7525                 4.6158                 6.1189
 Frc consts  --     1.2275                 2.3037                 3.2397
 IR Inten    --     2.3390                58.9307               174.5925
 Raman Activ --     6.0284                 3.9446                 1.2123

                    52                     53                     54
                     A                      A                      A
 Frequencies --   976.4779               979.6756               986.5934
 Red. masses --     3.8818                 4.4603                 5.6912
 Frc consts  --     2.1807                 2.5222                 3.2639
 IR Inten    --   105.4386                49.7381               164.5502
 Raman Activ --     3.5774                 2.0171                 1.7904

                    55                     56                     57
                     A                      A                      A
 Frequencies --  1011.0686              1015.9283              1021.0159
 Red. masses --     2.3574                 3.6679                 3.4709
 Frc consts  --     1.4199                 2.2304                 2.1319
 IR Inten    --    99.2811                29.2284                99.2455
 Raman Activ --     2.3855                 3.8576                 5.5948

                    58                     59                     60
                     A                      A                      A
 Frequencies --  1035.0492              1038.2800              1059.8089
 Red. masses --     5.2668                 3.0040                 3.1535
 Frc consts  --     3.3245                 1.9080                 2.0869
 IR Inten    --   345.2032               307.8325                15.3750
 Raman Activ --     2.9665                 4.8190                 3.6372

                    61                     62                     63
                     A                      A                      A
 Frequencies --  1065.8265              1074.6384              1081.0821
 Red. masses --     4.4584                 3.2912                 3.2847
 Frc consts  --     2.9840                 2.2394                 2.2618
 IR Inten    --    46.0085                23.0448                63.4928
 Raman Activ --     1.5716                 8.6601                 2.2164

                    64                     65                     66
                     A                      A                      A
 Frequencies --  1085.5647              1090.5886              1098.9233
 Red. masses --     2.5420                 3.5360                 2.4809
 Frc consts  --     1.7650                 2.4779                 1.7652
 IR Inten    --    18.5291               131.6631                40.6057
 Raman Activ --    19.6074                19.5893                 3.0281

                    67                     68                     69
                     A                      A                      A
 Frequencies --  1106.7085              1122.6747              1131.9604
 Red. masses --     3.4935                 2.1528                 2.2481
 Frc consts  --     2.5210                 1.5987                 1.6972
 IR Inten    --    27.8105                17.6915                81.0912
 Raman Activ --     3.6784                 1.4853                 1.4762

                    70                     71                     72
                     A                      A                      A
 Frequencies --  1139.2198              1147.7255              1156.4173
 Red. masses --     2.6797                 3.3248                 2.6149
 Frc consts  --     2.0490                 2.5804                 2.0603
 IR Inten    --    10.4836                43.0318                46.8511
 Raman Activ --     4.1790                 7.5634                 1.4548

                    73                     74                     75
                     A                      A                      A
 Frequencies --  1167.2906              1185.9193              1192.6307
 Red. masses --     1.9418                 1.3826                 4.2664
 Frc consts  --     1.5589                 1.1457                 3.5754
 IR Inten    --     3.9235                 5.8472                74.0503
 Raman Activ --     1.5493                 0.6769                 1.2388

                    76                     77                     78
                     A                      A                      A
 Frequencies --  1198.1809              1207.1966              1217.2085
 Red. masses --     1.4434                 1.3070                 1.2768
 Frc consts  --     1.2209                 1.1222                 1.1145
 IR Inten    --    12.5013                16.5688                28.4675
 Raman Activ --     2.5562                 1.0624                 2.5617

                    79                     80                     81
                     A                      A                      A
 Frequencies --  1217.9261              1240.5845              1246.7653
 Red. masses --     1.4185                 1.3698                 1.2105
 Frc consts  --     1.2397                 1.2421                 1.1086
 IR Inten    --    17.2063                34.7585                 6.6946
 Raman Activ --     2.5033                 2.2002                 2.4857

                    82                     83                     84
                     A                      A                      A
 Frequencies --  1266.8742              1271.0328              1276.3724
 Red. masses --     1.3033                 1.3648                 1.3157
 Frc consts  --     1.2324                 1.2990                 1.2629
 IR Inten    --    13.1584                10.6396                17.6653
 Raman Activ --     2.7654                 1.5766                 3.6354

                    85                     86                     87
                     A                      A                      A
 Frequencies --  1284.7459              1298.7291              1305.5126
 Red. masses --     1.1972                 1.4903                 1.4429
 Frc consts  --     1.1643                 1.4810                 1.4489
 IR Inten    --    18.6854                77.7689                17.0684
 Raman Activ --     3.1781                10.8731                 2.9315

                    88                     89                     90
                     A                      A                      A
 Frequencies --  1309.2783              1314.2103              1330.8864
 Red. masses --     1.3442                 1.3570                 1.2010
 Frc consts  --     1.3576                 1.3809                 1.2533
 IR Inten    --     8.1284                 4.7187                 3.1926
 Raman Activ --     7.2211                 2.7804                 3.7522

                    91                     92                     93
                     A                      A                      A
 Frequencies --  1337.0328              1348.3608              1355.4446
 Red. masses --     1.2830                 1.3221                 1.3240
 Frc consts  --     1.3513                 1.4162                 1.4332
 IR Inten    --    35.3232                39.0490                 0.4622
 Raman Activ --     3.4514                 3.1870                 1.4562

                    94                     95                     96
                     A                      A                      A
 Frequencies --  1362.8540              1368.9118              1375.0369
 Red. masses --     1.2740                 1.3495                 1.1524
 Frc consts  --     1.3941                 1.4900                 1.2838
 IR Inten    --    14.0203                47.9618                21.6370
 Raman Activ --     1.1125                10.4319                 5.8761

                    97                     98                     99
                     A                      A                      A
 Frequencies --  1387.4568              1399.1117              1401.2623
 Red. masses --     1.5937                 1.2792                 1.1561
 Frc consts  --     1.8075                 1.4753                 1.3374
 IR Inten    --     7.8324                39.4463                24.9503
 Raman Activ --     1.5081                 2.9104                 0.9137

                   100                    101                    102
                     A                      A                      A
 Frequencies --  1414.8411              1415.4481              1423.7551
 Red. masses --     1.5755                 1.3514                 1.4647
 Frc consts  --     1.8582                 1.5953                 1.7494
 IR Inten    --    23.3212                10.6833                28.0392
 Raman Activ --     7.3958                 5.8407                 3.0320

                   103                    104                    105
                     A                      A                      A
 Frequencies --  1445.3606              1469.6900              1470.0159
 Red. masses --     1.3744                 1.0791                 1.0942
 Frc consts  --     1.6916                 1.3732                 1.3931
 IR Inten    --     4.2042                 4.2486                 2.0197
 Raman Activ --     4.6928                 5.5094                 3.9099

                   106                    107                    108
                     A                      A                      A
 Frequencies --  1473.7567              1482.6675              3253.3986
 Red. masses --     1.3101                 1.2642                 1.0813
 Frc consts  --     1.6765                 1.6375                 6.7434
 IR Inten    --    48.2406                16.2829                47.2166
 Raman Activ --     1.5496                 1.6666                45.7002

                   109                    110                    111
                     A                      A                      A
 Frequencies --  3261.6113              3266.8834              3281.6202
 Red. masses --     1.0600                 1.0822                 1.0617
 Frc consts  --     6.6437                 6.8047                 6.7367
 IR Inten    --    42.9050                 5.8785                20.8549
 Raman Activ --    76.5606                55.1617                40.5365

                   112                    113                    114
                     A                      A                      A
 Frequencies --  3288.1553              3293.7577              3296.4996
 Red. masses --     1.0842                 1.0818                 1.0852
 Frc consts  --     6.9066                 6.9147                 6.9479
 IR Inten    --    47.9748                23.9828                19.6965
 Raman Activ --    87.4359                99.8752                34.1900

                   115                    116                    117
                     A                      A                      A
 Frequencies --  3304.1246              3305.9119              3308.9575
 Red. masses --     1.0971                 1.0863                 1.0859
 Frc consts  --     7.0568                 6.9949                 7.0054
 IR Inten    --     4.4264                64.1208                 6.7333
 Raman Activ --    43.6365                57.9962               126.5416

                   118                    119                    120
                     A                      A                      A
 Frequencies --  3316.4926              3322.7138              3327.4674
 Red. masses --     1.0893                 1.0890                 1.0872
 Frc consts  --     7.0589                 7.0837                 7.0926
 IR Inten    --     7.7410                18.0329                68.3568
 Raman Activ --    27.3611                50.0852                18.6258

                   121                    122                    123
                     A                      A                      A
 Frequencies --  3339.2678              3344.2775              3380.9281
 Red. masses --     1.0705                 1.1032                 1.0702
 Frc consts  --     7.0330                 7.2696                 7.2077
 IR Inten    --   537.7771                73.9953                24.9859
 Raman Activ --   178.5226                31.8355                82.8960

                   124                    125                    126
                     A                      A                      A
 Frequencies --  3381.6094              3387.6642              3389.8411
 Red. masses --     1.0675                 1.0665                 1.0682
 Frc consts  --     7.1922                 7.2114                 7.2320
 IR Inten    --    52.1668                15.1342                64.1642
 Raman Activ --   151.3416               166.5970               104.2041

                   127                    128                    129
                     A                      A                      A
 Frequencies --  3390.6423              3907.1312              3918.9560
 Red. masses --     1.0676                 1.0668                 1.0669
 Frc consts  --     7.2313                 9.5954                 9.6544
 IR Inten    --    44.6370                28.2299                66.9724
 Raman Activ --   156.3526               122.1449               125.6319

 - Thermochemistry -
 -------------------
 Temperature   298.150 Kelvin.  Pressure   1.00000 Atm.
 Atom     1 has atomic number  8 and mass  15.99491

 Molecular mass:   342.11621 amu.
 Principal axes and moments of inertia in atomic units:
                           1         2         3
     Eigenvalues --  4524.35974********************
           X            0.99999   0.00488  -0.00160
           Y           -0.00488   0.99999   0.00047
           Z            0.00161  -0.00047   1.00000
 This molecule is an asymmetric top.
 Rotational symmetry number  1.
 Warning -- assumption of classical behavior for rotation
           may cause significant error
 Rotational temperatures (Kelvin)      0.01914     0.00695     0.00528
 Rotational constants (GHZ):           0.39889     0.14490     0.11011
    8 imaginary frequencies ignored.
 Zero-point vibrational energy     973043.0 (Joules/Mol)
                                  232.56287 (Kcal/Mol)
 Warning -- explicit consideration of  31 degrees of freedom as
           vibrations may cause significant error
 Vibrational temperatures:     29.68   101.04   135.20   164.06   184.87
          (Kelvin)            222.76   234.03   267.35   292.28   361.18
                              374.83   392.67   414.10   426.82   467.43
                              493.93   506.48   529.53   562.68   599.01
                              607.56   641.92   673.73   698.49   734.46
                              747.50   812.97   838.42   861.50   874.28
                              887.81   902.15   905.29   933.53   948.64
                              976.37  1000.89  1031.18  1109.13  1205.93
                             1251.73  1324.21  1363.91  1404.93  1409.53
                             1419.49  1454.70  1461.69  1469.01  1489.20
                             1493.85  1524.83  1533.48  1546.16  1555.43
                             1561.88  1569.11  1581.10  1592.30  1615.28
                             1628.64  1639.08  1651.32  1663.82  1679.47
                             1706.27  1715.93  1723.91  1736.88  1751.29
                             1752.32  1784.92  1793.81  1822.75  1828.73
                             1836.41  1848.46  1868.58  1878.34  1883.76
                             1890.85  1914.85  1923.69  1939.99  1950.18
                             1960.84  1969.56  1978.37  1996.24  2013.01
                             2016.10  2035.64  2036.51  2048.46  2079.55
                             2114.55  2115.02  2120.40  2133.23  4680.91
                             4692.73  4700.31  4721.51  4730.92  4738.98
                             4742.92  4753.89  4756.46  4760.85  4771.69
                             4780.64  4787.48  4804.46  4811.66  4864.40
                             4865.38  4874.09  4877.22  4878.37  5621.48
                             5638.50

 Zero-point correction=                           0.370613 (Hartree/Particle)
 Thermal correction to Energy=                    0.388484
 Thermal correction to Enthalpy=                  0.389428
 Thermal correction to Gibbs Free Energy=         0.325076
 Sum of electronic and zero-point Energies=          -1297.496953
 Sum of electronic and thermal Energies=             -1297.479082
 Sum of electronic and thermal Enthalpies=           -1297.478138
 Sum of electronic and thermal Free Energies=        -1297.542490

                     E (Thermal)             CV                S
                      KCal/Mol        Cal/Mol-Kelvin    Cal/Mol-Kelvin
 Total                  243.777             74.632            135.441
 Electronic               0.000              0.000              0.000
 Translational            0.889              2.981             43.384
 Rotational               0.889              2.981             35.178
 Vibrational            242.000             68.670             56.878
 Vibration     1          0.593              1.986              6.573
 Vibration     2          0.598              1.968              4.147
 Vibration     3          0.603              1.954              3.576
 Vibration     4          0.607              1.938              3.199
 Vibration     5          0.611              1.925              2.968
 Vibration     6          0.620              1.897              2.612
 Vibration     7          0.623              1.888              2.519
 Vibration     8          0.632              1.859              2.269
 Vibration     9          0.639              1.835              2.104
 Vibration    10          0.663              1.761              1.723
 Vibration    11          0.669              1.745              1.658
 Vibration    12          0.676              1.723              1.578
 Vibration    13          0.685              1.696              1.487
 Vibration    14          0.690              1.680              1.436
 Vibration    15          0.709              1.626              1.285
 Vibration    16          0.722              1.589              1.197
 Vibration    17          0.729              1.571              1.157
 Vibration    18          0.741              1.538              1.088
 Vibration    19          0.759              1.489              0.996
 Vibration    20          0.780              1.435              0.905
 Vibration    21          0.785              1.422              0.884
 Vibration    22          0.805              1.369              0.807
 Vibration    23          0.825              1.320              0.742
 Vibration    24          0.842              1.282              0.695
 Vibration    25          0.866              1.227              0.632
 Vibration    26          0.875              1.207              0.611
 Vibration    27          0.921              1.107              0.514
 Vibration    28          0.940              1.069              0.480
 Vibration    29          0.957              1.034              0.452
 Vibration    30          0.966              1.016              0.437
 Vibration    31          0.977              0.996              0.421

 Normal termination of Gaussian 09 at Fri Oct 23 04:16:17 2015.
