 Gaussian 09, Revision B.01,
 Gaussian 09:  EM64L-G09RevB.01 12-Aug-2010

 --------------------------------------------------
 # freq=raman b3lyp/6-31+g(2df,p) geom=connectivity
 --------------------------------------------------

 ------------
 300 8000.com
 ------------
 Symbolic Z-matrix:
 Charge =  0 Multiplicity = 1

                         Standard orientation:
 ---------------------------------------------------------------------
 Center     Atomic      Atomic             Coordinates (Angstroms)
 Number     Number       Type             X           Y           Z
 ---------------------------------------------------------------------
      1          8           0       -5.150741   -0.389202    0.220652
      2          6           0       -3.792429   -0.100470   -0.143807
      3          6           0       -3.289298    1.255129    0.324184
      4          8           0       -4.134816    2.261944   -0.251804
      5          1           0       -5.068912    2.022763    0.013491
      6          6           0       -1.850138    1.542169   -0.067875
      7          8           0       -1.314883    2.733268    0.526299
      8          1           0       -0.491525    2.962867    0.006738
      9          6           0       -2.988719   -2.567205   -0.120645
     10          8           0       -4.175134   -3.321931    0.163534
     11          1           0       -3.979692   -4.298412    0.073781
     12          6           0       -2.780573   -1.130766    0.330327
     13          8           0       -1.473790   -0.815032   -0.173794
     14          6           0       -0.880620    0.417208    0.258916
     15          8           0        0.325007    0.524194   -0.512013
     16          6           0        1.576807    0.185387    0.103626
     17          6           0        2.026813   -1.167570   -0.423872
     18          8           0        0.973860   -2.119075   -0.217948
     19          1           0        0.138729   -1.596099   -0.387467
     20          6           0        3.377154   -1.547035    0.162264
     21          8           0        3.939002   -2.806401   -0.233832
     22          1           0        4.904750   -2.976920   -0.037811
     23          6           0        2.315937    2.689736    0.057950
     24          8           0        1.135833    3.390406   -0.363089
     25          1           0        1.296194    4.361130   -0.540269
     26          6           0        2.577427    1.244154   -0.330541
     27          8           0        3.878241    0.882420    0.156712
     28          6           0        4.386707   -0.437575   -0.085515
     29          8           0        5.523730   -0.602272    0.774867
     30          1           0        6.302977   -0.783397    0.244237
     31          1           0       -5.663769   -0.566396   -0.571185
     32          1           0       -3.754783   -0.095178   -1.213131
     33          1           0       -3.371808    1.303716    1.389891
     34          1           0       -1.833261    1.679556   -1.128883
     35          1           0       -0.664015    0.389265    1.306390
     36          1           0       -2.749604   -1.109936    1.399676
     37          1           0       -2.170818   -3.129875    0.278530
     38          1           0       -2.878939   -2.567789   -1.184998
     39          1           0        1.482814    0.165985    1.169313
     40          1           0        2.159594   -1.068267   -1.480947
     41          1           0        2.619682    1.212011   -1.399223
     42          1           0        3.152274    3.258214   -0.291727
     43          1           0        4.715172   -0.496032   -1.102173
     44          1           0        3.238552   -1.601173    1.221867
     45          1           0        2.331500    2.728434    1.127137
 ---------------------------------------------------------------------

 SCF Done:  E(RB3LYP) =  -1298.01483283     A.U. after   13 cycles

 The electronic state is 1-A.
 Alpha  occ. eigenvalues --  -19.18992 -19.18568 -19.18235 -19.18135 -19.17738
 Alpha  occ. eigenvalues --  -19.17056 -19.16045 -19.15757 -19.15128 -19.13827
 Alpha  occ. eigenvalues --  -19.13307 -10.30917 -10.30512 -10.26366 -10.25893
 Alpha  occ. eigenvalues --  -10.25676 -10.25579 -10.25108 -10.24914 -10.24461
 Alpha  occ. eigenvalues --  -10.24373 -10.24151 -10.23581  -1.10013  -1.08728
 Alpha  occ. eigenvalues --   -1.05462  -1.05113  -1.04127  -1.03332  -1.02367
 Alpha  occ. eigenvalues --   -1.02111  -1.01900  -1.00649  -1.00051  -0.82400
 Alpha  occ. eigenvalues --   -0.80103  -0.79772  -0.78240  -0.72244  -0.69922
 Alpha  occ. eigenvalues --   -0.67440  -0.64707  -0.63470  -0.62396  -0.61382
 Alpha  occ. eigenvalues --   -0.59958  -0.56311  -0.55982  -0.55308  -0.55157
 Alpha  occ. eigenvalues --   -0.53978  -0.53280  -0.52785  -0.51676  -0.51364
 Alpha  occ. eigenvalues --   -0.50766  -0.50348  -0.49033  -0.48519  -0.46942
 Alpha  occ. eigenvalues --   -0.46368  -0.44896  -0.44403  -0.43621  -0.43340
 Alpha  occ. eigenvalues --   -0.42501  -0.42127  -0.41518  -0.40474  -0.38830
 Alpha  occ. eigenvalues --   -0.38492  -0.37641  -0.37523  -0.35857  -0.35624
 Alpha  occ. eigenvalues --   -0.34744  -0.34401  -0.34146  -0.33962  -0.33449
 Alpha  occ. eigenvalues --   -0.33026  -0.31660  -0.31029  -0.30673  -0.29815
 Alpha  occ. eigenvalues --   -0.29580  -0.28301  -0.28001  -0.27577  -0.26787
 Alpha  occ. eigenvalues --   -0.26336
 Alpha virt. eigenvalues --   -0.02282  -0.02209  -0.01615  -0.00040   0.00329
 Alpha virt. eigenvalues --    0.00972   0.02088   0.02267   0.03073   0.03580
 Alpha virt. eigenvalues --    0.03848   0.04266   0.04649   0.05380   0.05718

 Mulliken atomic charges:
              1
     1  O   -0.454469
     2  C   -0.188961
     3  C    0.141853
     4  O   -0.460838
     5  H    0.348922
     6  C   -0.258793
     7  O   -0.476127
     8  H    0.426916
     9  C   -0.318938
    10  O   -0.463486
    11  H    0.347368
    12  C    0.116152
    13  O   -0.020971
    14  C   -0.049979
    15  O   -0.038515
    16  C   -0.069230
    17  C    0.235629
    18  O   -0.476657
    19  H    0.419429
    20  C   -0.080311
    21  O   -0.477240
    22  H    0.348421
    23  C   -0.419775
    24  O   -0.505650
    25  H    0.377368
    26  C   -0.068446
    27  O   -0.057972
    28  C   -0.025557
    29  O   -0.452691
    30  H    0.347666
    31  H    0.355232
    32  H    0.124536
    33  H    0.132050
    34  H    0.141467
    35  H    0.132562
    36  H    0.113948
    37  H    0.155952
    38  H    0.146265
    39  H    0.127589
    40  H    0.119155
    41  H    0.125316
    42  H    0.152395
    43  H    0.128528
    44  H    0.134032
    45  H    0.165856
 Sum of Mulliken atomic charges =   0.00000

 Dipole moment (field-independent basis, Debye):
    X=              3.1715    Y=              0.7276    Z=             -2.1992  Tot=              3.9274
 Quadrupole moment (field-independent basis, Debye-Ang):
   XX=           -118.7463   YY=           -135.5889   ZZ=           -138.5097
   XY=             11.3354   XZ=             -1.4169   YZ=             -2.8706

  Exact polarizability: 236.315  -2.169 198.614   1.047   0.054 143.897
 Approx polarizability: 277.062  -1.603 257.143   0.517  -0.971 238.381

 ******    7 imaginary frequencies (negative Signs) ******

                     1                      2                      3
                     A                      A                      A
 Frequencies --  -304.9450              -289.7052              -174.0017
 Red. masses --     1.7074                 1.6905                 1.2222
 Frc consts  --     0.0935                 0.0836                 0.0218
 IR Inten    --     4.0285                 2.3343                57.9155
 Raman Activ --     0.0503                 0.0230                 0.8479

                     4                      5                      6
                     A                      A                      A
 Frequencies --  -171.8427               -77.1188               -54.8686
 Red. masses --     1.2547                 7.3512                 6.7586
 Frc consts  --     0.0218                 0.0258                 0.0120
 IR Inten    --   143.6370                 1.0996                 0.4135
 Raman Activ --     0.6740                 0.0303                 0.0332

                     7                      8                      9
                     A                      A                      A
 Frequencies --   -18.0724                40.5638                56.1376
 Red. masses --     6.9038                 6.5647                 6.8232
 Frc consts  --     0.0013                 0.0064                 0.0127
 IR Inten    --     0.4613                 0.7501                 0.8949
 Raman Activ --     0.0277                 0.0316                 0.0890

                    10                     11                     12
                     A                      A                      A
 Frequencies --    82.0678                89.3830                93.5551
 Red. masses --     6.1388                 5.3611                 6.4320
 Frc consts  --     0.0244                 0.0252                 0.0332
 IR Inten    --     2.5161                 8.0126                 0.9536
 Raman Activ --     0.2484                 0.0500                 0.1611

                    13                     14                     15
                     A                      A                      A
 Frequencies --   147.0745               164.0495               178.3891
 Red. masses --     5.8801                 6.3214                 7.9584
 Frc consts  --     0.0749                 0.1002                 0.1492
 IR Inten    --     6.5420                 1.6734                 0.3447
 Raman Activ --     0.1643                 0.3153                 1.3047

                    16                     17                     18
                     A                      A                      A
 Frequencies --   207.5108               235.0534               260.1801
 Red. masses --     6.8517                 5.5642                 4.4165
 Frc consts  --     0.1738                 0.1811                 0.1761
 IR Inten    --     0.1965                 2.2258                19.8181
 Raman Activ --     2.4173                 0.2322                 0.2679

                    19                     20                     21
                     A                      A                      A
 Frequencies --   269.6366               287.4332               299.6577
 Red. masses --     4.7880                 4.5934                 4.2814
 Frc consts  --     0.2051                 0.2236                 0.2265
 IR Inten    --     1.7569                 2.4491                 5.4164
 Raman Activ --     0.1288                 0.1832                 0.3266

                    22                     23                     24
                     A                      A                      A
 Frequencies --   305.7593               312.6427               324.4584
 Red. masses --     6.4109                 4.3440                 6.1252
 Frc consts  --     0.3531                 0.2502                 0.3799
 IR Inten    --     4.3697                 7.3479                 3.3947
 Raman Activ --     3.0130                 1.2651                 3.6994

                    25                     26                     27
                     A                      A                      A
 Frequencies --   337.1779               351.6822               380.4237
 Red. masses --     6.4197                 5.9404                 6.3643
 Frc consts  --     0.4300                 0.4329                 0.5427
 IR Inten    --    10.6153                 6.2348                 0.8312
 Raman Activ --     3.5701                 0.4515                 1.1134

                    28                     29                     30
                     A                      A                      A
 Frequencies --   394.6317               409.4731               427.4391
 Red. masses --     4.1529                 6.5134                 5.0922
 Frc consts  --     0.3811                 0.6434                 0.5482
 IR Inten    --    22.9670                 2.1908                 1.9610
 Raman Activ --     2.3724                 8.4358                 1.7191

                    31                     32                     33
                     A                      A                      A
 Frequencies --   429.5382               465.9118               478.8673
 Red. masses --     5.3397                 4.3992                 3.7067
 Frc consts  --     0.5805                 0.5626                 0.5008
 IR Inten    --     3.5780                 8.3349                 7.3028
 Raman Activ --     1.6384                 0.6568                 1.8748

                    34                     35                     36
                     A                      A                      A
 Frequencies --   503.3975               520.5090               561.1788
 Red. masses --     4.4915                 3.2804                 3.8682
 Frc consts  --     0.6706                 0.5236                 0.7177
 IR Inten    --     3.8125                10.7435                18.1468
 Raman Activ --     3.1024                 4.2665                 1.8577

                    37                     38                     39
                     A                      A                      A
 Frequencies --   574.3772               584.3687               602.2385
 Red. masses --     2.7839                 4.0885                 5.8831
 Frc consts  --     0.5411                 0.8226                 1.2572
 IR Inten    --    39.2122                11.5421                34.4256
 Raman Activ --     0.2313                 0.9319                 1.0278

                    40                     41                     42
                     A                      A                      A
 Frequencies --   622.1900               630.3628               649.8199
 Red. masses --     1.8006                 1.7512                 1.1145
 Frc consts  --     0.4107                 0.4100                 0.2773
 IR Inten    --    27.6412                49.9177               103.5632
 Raman Activ --     2.1949                 1.7225                 1.5591

                    43                     44                     45
                     A                      A                      A
 Frequencies --   676.3601               690.2938               766.1091
 Red. masses --     4.6222                 1.0846                 1.0767
 Frc consts  --     1.2458                 0.3045                 0.3723
 IR Inten    --    20.2356               101.5461               101.3210
 Raman Activ --     0.3283                 1.9649                 1.7872

                    46                     47                     48
                     A                      A                      A
 Frequencies --   821.7869               835.4985               841.4038
 Red. masses --     1.1645                 1.3058                 1.7701
 Frc consts  --     0.4634                 0.5371                 0.7383
 IR Inten    --    68.4812                40.2131                 4.6078
 Raman Activ --     1.2219                 1.9943                 0.5487

                    49                     50                     51
                     A                      A                      A
 Frequencies --   868.4826               913.2406               942.9951
 Red. masses --     1.3305                 4.7851                 5.3554
 Frc consts  --     0.5913                 2.3513                 2.8058
 IR Inten    --    40.7702               139.0463                74.5355
 Raman Activ --     1.0033                 2.4325                 0.2833

                    52                     53                     54
                     A                      A                      A
 Frequencies --   962.4808               978.0446               984.9754
 Red. masses --     5.6954                 5.0511                 5.8506
 Frc consts  --     3.1085                 2.8468                 3.3442
 IR Inten    --    53.3391                24.6315               164.7671
 Raman Activ --     2.4082                 1.1128                 1.6405

                    55                     56                     57
                     A                      A                      A
 Frequencies --   997.4715              1013.6427              1020.3123
 Red. masses --     5.9650                 6.4131                 6.2030
 Frc consts  --     3.4967                 3.8823                 3.8047
 IR Inten    --   390.8350                41.2739               113.6347
 Raman Activ --     2.6927                 1.2500                 4.3083

                    58                     59                     60
                     A                      A                      A
 Frequencies --  1036.7415              1047.6807              1066.4562
 Red. masses --     6.1871                 5.5643                 4.1268
 Frc consts  --     3.9181                 3.5985                 2.7654
 IR Inten    --   473.9306                99.9916                14.9208
 Raman Activ --     2.3301                 1.9158                 2.1610

                    61                     62                     63
                     A                      A                      A
 Frequencies --  1069.5227              1075.8234              1079.8301
 Red. masses --     3.5849                 4.4090                 6.6055
 Frc consts  --     2.4161                 3.0065                 4.5381
 IR Inten    --    12.5268                20.8643               144.5805
 Raman Activ --    15.2801                14.8712                 1.9045

                    64                     65                     66
                     A                      A                      A
 Frequencies --  1099.5650              1106.1910              1110.2891
 Red. masses --     3.0238                 2.4960                 3.1561
 Frc consts  --     2.1540                 1.7995                 2.2923
 IR Inten    --    39.7381                 4.8584                51.1720
 Raman Activ --    12.9042                 4.2724                 5.5656

                    67                     68                     69
                     A                      A                      A
 Frequencies --  1113.2964              1126.9941              1133.6012
 Red. masses --     2.4514                 2.5428                 2.7480
 Frc consts  --     1.7901                 1.9028                 2.0806
 IR Inten    --    46.2924                32.0039                94.8308
 Raman Activ --     7.3116                 3.2876                 3.6338

                    70                     71                     72
                     A                      A                      A
 Frequencies --  1139.0443              1152.1618              1157.4119
 Red. masses --     2.4673                 2.5646                 1.7311
 Frc consts  --     1.8861                 2.0058                 1.3663
 IR Inten    --    49.9347                 9.3403                 4.8182
 Raman Activ --     6.0792                 3.0950                 2.7895

                    73                     74                     75
                     A                      A                      A
 Frequencies --  1163.2219              1184.1155              1186.4771
 Red. masses --     1.7502                 1.5958                 1.8678
 Frc consts  --     1.3953                 1.3183                 1.5492
 IR Inten    --    13.1778                 1.7551                20.6606
 Raman Activ --     2.4046                 0.9570                 2.5286

                    76                     77                     78
                     A                      A                      A
 Frequencies --  1210.7859              1213.4627              1228.3130
 Red. masses --     1.3319                 1.3828                 1.2698
 Frc consts  --     1.1504                 1.1997                 1.1288
 IR Inten    --    11.7719                 4.0887                 6.7121
 Raman Activ --     0.7706                 2.0748                 2.8806

                    79                     80                     81
                     A                      A                      A
 Frequencies --  1234.8103              1255.0037              1258.9075
 Red. masses --     1.2312                 1.2176                 1.2480
 Frc consts  --     1.1061                 1.1299                 1.1654
 IR Inten    --     0.4537                 7.1783                17.3769
 Raman Activ --     1.2799                 2.6794                 1.7071

                    82                     83                     84
                     A                      A                      A
 Frequencies --  1264.4339              1273.6973              1283.0786
 Red. masses --     1.2466                 1.3608                 1.2167
 Frc consts  --     1.1743                 1.3007                 1.1802
 IR Inten    --    45.4757                16.8881                 9.8772
 Raman Activ --     1.6438                 3.2897                 3.1683

                    85                     86                     87
                     A                      A                      A
 Frequencies --  1289.4394              1292.9406              1301.2926
 Red. masses --     1.2546                 1.3065                 1.3846
 Frc consts  --     1.2290                 1.2868                 1.3814
 IR Inten    --     6.5723                 0.3350                44.9113
 Raman Activ --     2.6636                 3.8295                 1.1438

                    88                     89                     90
                     A                      A                      A
 Frequencies --  1312.8936              1315.5252              1323.3098
 Red. masses --     1.3260                 1.2171                 1.3807
 Frc consts  --     1.3467                 1.2410                 1.4246
 IR Inten    --    13.3892                 4.9254                 8.4428
 Raman Activ --    11.8519                 7.5429                 0.5058

                    91                     92                     93
                     A                      A                      A
 Frequencies --  1329.4686              1331.0396              1339.9417
 Red. masses --     1.2497                 1.2954                 1.0993
 Frc consts  --     1.3014                 1.3522                 1.1628
 IR Inten    --    10.0935                48.1370                34.9451
 Raman Activ --     7.2925                 2.1914                 2.9818

                    94                     95                     96
                     A                      A                      A
 Frequencies --  1356.3102              1362.6638              1370.9388
 Red. masses --     1.2058                 1.3815                 1.2582
 Frc consts  --     1.3069                 1.5114                 1.3932
 IR Inten    --    40.8081                 1.3445                 2.0016
 Raman Activ --     1.9902                11.0068                 3.3591

                    97                     98                     99
                     A                      A                      A
 Frequencies --  1377.2350              1381.1191              1392.7828
 Red. masses --     1.5646                 1.5198                 1.6418
 Frc consts  --     1.7485                 1.7080                 1.8765
 IR Inten    --    11.8063                19.7578                15.3258
 Raman Activ --     3.5696                 2.5683                 4.8298

                   100                    101                    102
                     A                      A                      A
 Frequencies --  1400.3414              1442.6272              1446.8137
 Red. masses --     1.3902                 1.3559                 1.3485
 Frc consts  --     1.6062                 1.6625                 1.6632
 IR Inten    --     2.8351                51.1005                20.6824
 Raman Activ --     4.3030                 1.3897                 0.4807

                   103                    104                    105
                     A                      A                      A
 Frequencies --  1458.1131              1460.1938              1466.0408
 Red. masses --     1.2102                 1.0920                 1.2160
 Frc consts  --     1.5160                 1.3718                 1.5399
 IR Inten    --    13.7815                 3.1157                 3.5558
 Raman Activ --     4.3555                 4.0831                 1.2182

                   106                    107                    108
                     A                      A                      A
 Frequencies --  1496.2619              1503.2025              3251.1486
 Red. masses --     1.2737                 1.2679                 1.0669
 Frc consts  --     1.6801                 1.6880                 6.6441
 IR Inten    --    34.7497                84.8926               454.6735
 Raman Activ --     2.2043                 3.1103                83.1576

                   109                    110                    111
                     A                      A                      A
 Frequencies --  3253.5186              3258.7796              3263.6595
 Red. masses --     1.0584                 1.0795                 1.0662
 Frc consts  --     6.6011                 6.7543                 6.6913
 IR Inten    --    36.4431               183.2859                46.3351
 Raman Activ --    77.1463                17.7454               311.2122

                   112                    113                    114
                     A                      A                      A
 Frequencies --  3266.6681              3267.5748              3268.5304
 Red. masses --     1.0812                 1.0825                 1.0769
 Frc consts  --     6.7979                 6.8100                 6.7784
 IR Inten    --    23.4865                 3.8151                38.0159
 Raman Activ --   123.0941               101.3792                53.7402

                   115                    116                    117
                     A                      A                      A
 Frequencies --  3270.4920              3278.6428              3282.9227
 Red. masses --     1.0812                 1.0834                 1.0858
 Frc consts  --     6.8135                 6.8619                 6.8946
 IR Inten    --    33.2747                21.4800                56.7528
 Raman Activ --    73.8639                55.3379                28.5724

                   118                    119                    120
                     A                      A                      A
 Frequencies --  3286.6149              3293.9267              3295.7277
 Red. masses --     1.0859                 1.0750                 1.0873
 Frc consts  --     6.9111                 6.8718                 6.9583
 IR Inten    --    19.1708               484.8230                 9.9657
 Raman Activ --    13.5768                44.7621                 8.1002

                   121                    122                    123
                     A                      A                      A
 Frequencies --  3301.4954              3307.1134              3314.9802
 Red. masses --     1.0824                 1.1001                 1.1042
 Frc consts  --     6.9514                 7.0891                 7.1490
 IR Inten    --   238.0705               122.0182                52.6091
 Raman Activ --    69.1567                46.7800                37.6799

                   124                    125                    126
                     A                      A                      A
 Frequencies --  3356.2862              3356.9619              3358.5783
 Red. masses --     1.0654                 1.0673                 1.0681
 Frc consts  --     7.0708                 7.0863                 7.0986
 IR Inten    --    38.8969                46.9505                54.2257
 Raman Activ --    93.3475               169.7067               164.0355

                   127                    128                    129
                     A                      A                      A
 Frequencies --  3366.9112              3875.7602              3875.8768
 Red. masses --     1.0691                 1.0676                 1.0677
 Frc consts  --     7.1403                 9.4488                 9.4498
 IR Inten    --    75.4033               132.2199                31.0350
 Raman Activ --   162.8284                40.1771               157.8608

 - Thermochemistry -
 -------------------
 Temperature   298.150 Kelvin.  Pressure   1.00000 Atm.
 Atom     1 has atomic number  8 and mass  15.99491

 Molecular mass:   342.11621 amu.
 Principal axes and moments of inertia in atomic units:
                           1         2         3
     Eigenvalues --  4482.01536********************
           X            0.99998   0.00642  -0.00034
           Y           -0.00642   0.99998   0.00016
           Z            0.00034  -0.00016   1.00000
 This molecule is an asymmetric top.
 Rotational symmetry number  1.
 Warning -- assumption of classical behavior for rotation
           may cause significant error
 Rotational temperatures (Kelvin)      0.01932     0.00692     0.00521
 Rotational constants (GHZ):           0.40266     0.14425     0.10864
    7 imaginary frequencies ignored.
 Zero-point vibrational energy     970553.2 (Joules/Mol)
                                  231.96777 (Kcal/Mol)
 Warning -- explicit consideration of  32 degrees of freedom as
           vibrations may cause significant error
 Vibrational temperatures:     58.36    80.77   118.08   128.60   134.60
          (Kelvin)            211.61   236.03   256.66   298.56   338.19
                              374.34   387.95   413.55   431.14   439.92
                              449.82   466.82   485.12   505.99   547.34
                              567.79   589.14   614.99   618.01   670.34
                              688.98   724.28   748.90   807.41   826.40
                              840.78   866.49   895.19   906.95   934.94
                              973.13   993.18  1102.26  1182.37  1202.09
                             1210.59  1249.55  1313.95  1356.76  1384.79
                             1407.19  1417.16  1435.14  1458.40  1468.00
                             1491.64  1507.38  1534.39  1538.80  1547.87
                             1553.63  1582.03  1591.56  1597.46  1601.78
                             1621.49  1631.00  1638.83  1657.70  1665.26
                             1673.61  1703.68  1707.07  1742.05  1745.90
                             1767.27  1776.61  1805.67  1811.28  1819.24
                             1832.56  1846.06  1855.21  1860.25  1872.27
                             1888.96  1892.74  1903.95  1912.81  1915.07
                             1927.87  1951.43  1960.57  1972.47  1981.53
                             1987.12  2003.90  2014.78  2075.62  2081.64
                             2097.90  2100.89  2109.30  2152.78  2162.77
                             4677.67  4681.08  4688.65  4695.67  4700.00
                             4701.31  4702.68  4705.50  4717.23  4723.39
                             4728.70  4739.22  4741.81  4750.11  4758.19
                             4769.51  4828.94  4829.91  4832.24  4844.23
                             5576.35  5576.52

 Zero-point correction=                           0.369664 (Hartree/Particle)
 Thermal correction to Energy=                    0.388310
 Thermal correction to Enthalpy=                  0.389254
 Thermal correction to Gibbs Free Energy=         0.323533
 Sum of electronic and zero-point Energies=          -1297.645169
 Sum of electronic and thermal Energies=             -1297.626523
 Sum of electronic and thermal Enthalpies=           -1297.625579
 Sum of electronic and thermal Free Energies=        -1297.691300

                     E (Thermal)             CV                S
                      KCal/Mol        Cal/Mol-Kelvin    Cal/Mol-Kelvin
 Total                  243.668             76.658            138.321
 Electronic               0.000              0.000              0.000
 Translational            0.889              2.981             43.384
 Rotational               0.889              2.981             35.187
 Vibrational            241.891             70.697             59.750
 Vibration     1          0.594              1.981              5.231
 Vibration     2          0.596              1.975              4.589
 Vibration     3          0.600              1.961              3.841
 Vibration     4          0.602              1.957              3.674
 Vibration     5          0.603              1.954              3.584
 Vibration     6          0.617              1.906              2.710
 Vibration     7          0.623              1.887              2.503
 Vibration     8          0.629              1.869              2.345
 Vibration     9          0.641              1.829              2.065
 Vibration    10          0.655              1.787              1.840
 Vibration    11          0.668              1.746              1.661
 Vibration    12          0.674              1.729              1.599
 Vibration    13          0.685              1.697              1.489
 Vibration    14          0.692              1.674              1.419
 Vibration    15          0.696              1.663              1.385
 Vibration    16          0.701              1.650              1.348
 Vibration    17          0.709              1.627              1.288
 Vibration    18          0.718              1.601              1.225
 Vibration    19          0.728              1.572              1.159
 Vibration    20          0.750              1.512              1.037
 Vibration    21          0.762              1.482              0.983
 Vibration    22          0.774              1.450              0.928
 Vibration    23          0.789              1.411              0.867
 Vibration    24          0.791              1.406              0.860
 Vibration    25          0.823              1.326              0.749
 Vibration    26          0.835              1.297              0.713
 Vibration    27          0.859              1.242              0.650
 Vibration    28          0.875              1.205              0.609
 Vibration    29          0.917              1.115              0.521
 Vibration    30          0.931              1.087              0.496
 Vibration    31          0.941              1.065              0.477
 Vibration    32          0.961              1.027              0.446

 Normal termination of Gaussian 09 at Fri Feb 12 11:20:37 2016.
