 Gaussian 09, Revision B.01,
 Gaussian 09:  EM64L-G09RevB.01 12-Aug-2010

 ------------------------------------------------
 # freq=raman b3lyp/6-31+g(d,p) geom=connectivity
 ------------------------------------------------

 -------------
 290 10000.com
 -------------
 Symbolic Z-matrix:
 Charge =  0 Multiplicity = 1

                         Standard orientation:
 ---------------------------------------------------------------------
 Center     Atomic      Atomic             Coordinates (Angstroms)
 Number     Number       Type             X           Y           Z
 ---------------------------------------------------------------------
      1          8           0       -4.982135   -0.220480    0.406690
      2          6           0       -3.707392   -0.040202   -0.226822
      3          6           0       -3.134092    1.286755    0.242693
      4          8           0       -4.001690    2.322581   -0.242268
      5          1           0       -4.878211    2.297258    0.239548
      6          6           0       -1.732540    1.563370   -0.276540
      7          8           0       -1.118978    2.743791    0.261773
      8          1           0       -0.184166    2.774930   -0.091430
      9          6           0       -3.070139   -2.535370   -0.209792
     10          8           0       -4.251499   -3.253520    0.175907
     11          1           0       -4.012574   -4.224275    0.148086
     12          6           0       -2.785224   -1.130414    0.295035
     13          8           0       -1.444976   -0.854754   -0.138436
     14          6           0       -0.901691    0.411392    0.264369
     15          8           0        0.348915    0.559677   -0.422854
     16          6           0        1.532918    0.246151    0.325061
     17          6           0        1.867807   -1.101347   -0.290808
     18          8           0        0.894789   -2.143555   -0.124945
     19          1           0        0.005175   -1.688980   -0.170401
     20          6           0        3.263939   -1.566577    0.093007
     21          8           0        3.631184   -2.847832   -0.436403
     22          1           0        4.530174   -3.021850   -0.033552
     23          6           0        2.349667    2.621283    0.149412
     24          8           0        1.281858    3.400264   -0.408983
     25          1           0        1.544326    4.355520   -0.275610
     26          6           0        2.607423    1.170461   -0.223517
     27          8           0        3.889622    0.820361    0.318755
     28          6           0        4.289826   -0.472674   -0.158053
     29          8           0        5.416833   -0.813582    0.661873
     30          1           0        6.142244   -1.103824    0.104075
     31          1           0       -5.647977   -0.403141   -0.260310
     32          1           0       -0.778973    0.473701    1.325481
     33          1           0       -1.715033    1.575331   -1.346330
     34          1           0       -3.123924    1.307397    1.312445
     35          1           0       -3.791111   -0.075493   -1.292958
     36          1           0       -2.814510   -1.130462    1.364634
     37          1           0       -2.234740   -3.140547    0.074407
     38          1           0       -3.075649   -2.483878   -1.278538
     39          1           0        3.253950    3.152821   -0.061871
     40          1           0        2.215186    2.641151    1.210742
     41          1           0        2.638899    1.080689   -1.289280
     42          1           0        1.417765    0.246381    1.388846
     43          1           0        1.908670   -0.923446   -1.345124
     44          1           0        3.239232   -1.696299    1.154827
     45          1           0        4.566854   -0.433576   -1.190830
 ---------------------------------------------------------------------

 SCF Done:  E(RB3LYP) =  -1297.93483886     A.U. after   13 cycles

 The electronic state is 1-A.
 Alpha  occ. eigenvalues --  -19.20134 -19.19657 -19.19533 -19.19219 -19.18923
 Alpha  occ. eigenvalues --  -19.17536 -19.17150 -19.17115 -19.15539 -19.13643
 Alpha  occ. eigenvalues --  -19.13570 -10.31280 -10.30956 -10.26995 -10.26185
 Alpha  occ. eigenvalues --  -10.26065 -10.25840 -10.25345 -10.24452 -10.24357
 Alpha  occ. eigenvalues --  -10.24326 -10.24199 -10.23791  -1.10649  -1.09602
 Alpha  occ. eigenvalues --   -1.06272  -1.05519  -1.04513  -1.03961  -1.02783
 Alpha  occ. eigenvalues --   -1.02686  -1.01610  -1.00073  -0.99449  -0.82945
 Alpha  occ. eigenvalues --   -0.80328  -0.79364  -0.78466  -0.72122  -0.69886
 Alpha  occ. eigenvalues --   -0.67198  -0.64657  -0.63486  -0.62740  -0.61421
 Alpha  occ. eigenvalues --   -0.60585  -0.57024  -0.56379  -0.55433  -0.54481
 Alpha  occ. eigenvalues --   -0.54047  -0.53731  -0.53054  -0.51626  -0.51090
 Alpha  occ. eigenvalues --   -0.50882  -0.50225  -0.49283  -0.48256  -0.47085
 Alpha  occ. eigenvalues --   -0.45907  -0.45321  -0.44480  -0.43872  -0.43275
 Alpha  occ. eigenvalues --   -0.42591  -0.41881  -0.41046  -0.40876  -0.39554
 Alpha  occ. eigenvalues --   -0.39072  -0.38228  -0.37706  -0.37096  -0.36232
 Alpha  occ. eigenvalues --   -0.35539  -0.35216  -0.34167  -0.33771  -0.33383
 Alpha  occ. eigenvalues --   -0.33080  -0.31486  -0.30774  -0.30458  -0.29581
 Alpha  occ. eigenvalues --   -0.29330  -0.28728  -0.27903  -0.27474  -0.26397
 Alpha  occ. eigenvalues --   -0.26173
 Alpha virt. eigenvalues --   -0.02258  -0.02028  -0.01586  -0.00118   0.00183
 Alpha virt. eigenvalues --    0.00895   0.01830   0.01939   0.03047   0.03423
 Alpha virt. eigenvalues --    0.03819   0.04509   0.04831   0.05306   0.05672

 Mulliken atomic charges:
              1
     1  O   -0.551571
     2  C   -0.012624
     3  C    0.036050
     4  O   -0.512161
     5  H    0.356785
     6  C   -0.077934
     7  O   -0.547529
     8  H    0.475559
     9  C   -0.176000
    10  O   -0.532326
    11  H    0.354153
    12  C    0.231887
    13  O   -0.407065
    14  C    0.158998
    15  O   -0.392995
    16  C   -0.062785
    17  C   -0.005328
    18  O   -0.569808
    19  H    0.450385
    20  C    0.207855
    21  O   -0.491237
    22  H    0.342043
    23  C   -0.185402
    24  O   -0.588494
    25  H    0.384240
    26  C    0.074111
    27  O   -0.312287
    28  C    0.217910
    29  O   -0.557597
    30  H    0.363285
    31  H    0.367626
    32  H    0.134742
    33  H    0.146709
    34  H    0.136596
    35  H    0.139591
    36  H    0.140183
    37  H    0.139698
    38  H    0.136305
    39  H    0.140372
    40  H    0.149342
    41  H    0.144126
    42  H    0.145841
    43  H    0.126875
    44  H    0.146284
    45  H    0.135589
 Sum of Mulliken atomic charges =   0.00000

 Dipole moment (field-independent basis, Debye):
    X=              2.5373    Y=              0.5618    Z=             -0.9186  Tot=              2.7563
 Quadrupole moment (field-independent basis, Debye-Ang):
   XX=           -119.2192   YY=           -137.2534   ZZ=           -138.8834
   XY=             12.0000   XZ=             -2.3447   YZ=              0.4654

  Exact polarizability: 226.611  -0.917 193.288   0.148   0.492 140.339
 Approx polarizability: 263.396   0.312 248.889   0.473   0.463 230.172

 ******    7 imaginary frequencies (negative Signs) ******

                     1                      2                      3
                     A                      A                      A
 Frequencies --  -321.3077              -306.2656              -296.2012
 Red. masses --     1.2073                 1.1910                 1.7084
 Frc consts  --     0.0734                 0.0658                 0.0883
 IR Inten    --    95.5491               132.4810                 2.7197
 Raman Activ --     0.7639                 1.3886                 0.0415

                     4                      5                      6
                     A                      A                      A
 Frequencies --  -289.2699               -67.3661               -61.2358
 Red. masses --     1.5087                 6.9145                 6.0010
 Frc consts  --     0.0744                 0.0185                 0.0133
 IR Inten    --    23.6240                 1.5666                 0.1795
 Raman Activ --     0.3225                 0.0434                 0.0270

                     7                      8                      9
                     A                      A                      A
 Frequencies --   -24.2050                40.3793                74.3786
 Red. masses --     6.4956                 6.2612                 6.6993
 Frc consts  --     0.0022                 0.0060                 0.0218
 IR Inten    --     0.4736                 1.1609                 0.8171
 Raman Activ --     0.0096                 0.0294                 0.2383

                    10                     11                     12
                     A                      A                      A
 Frequencies --    75.6298                92.8455               121.4409
 Red. masses --     6.7732                 6.5176                 5.8710
 Frc consts  --     0.0228                 0.0331                 0.0510
 IR Inten    --     0.4016                 1.7224                 0.9597
 Raman Activ --     0.0347                 0.0263                 0.0527

                    13                     14                     15
                     A                      A                      A
 Frequencies --   159.6507               184.8748               190.2169
 Red. masses --     6.7283                 6.3891                 6.4395
 Frc consts  --     0.1010                 0.1287                 0.1373
 IR Inten    --     2.8809                 3.5538                 2.2914
 Raman Activ --     0.1442                 0.6029                 0.6744

                    16                     17                     18
                     A                      A                      A
 Frequencies --   222.5339               240.1553               268.5312
 Red. masses --     7.4583                 6.0579                 4.2473
 Frc consts  --     0.2176                 0.2059                 0.1804
 IR Inten    --     0.4992                 2.6981                21.4346
 Raman Activ --     3.1639                 0.0442                 0.2930

                    19                     20                     21
                     A                      A                      A
 Frequencies --   278.3132               288.9552               309.3993
 Red. masses --     4.5710                 5.4093                 5.1309
 Frc consts  --     0.2086                 0.2661                 0.2894
 IR Inten    --     0.7031                 1.7365                 2.7653
 Raman Activ --     0.1962                 0.0353                 1.4223

                    22                     23                     24
                     A                      A                      A
 Frequencies --   315.7419               323.7746               329.6120
 Red. masses --     5.5917                 5.7925                 5.9537
 Frc consts  --     0.3284                 0.3578                 0.3811
 IR Inten    --    13.5876                 1.2172                 6.3172
 Raman Activ --     0.7176                 2.1200                 5.8177

                    25                     26                     27
                     A                      A                      A
 Frequencies --   358.1092               370.0682               388.6776
 Red. masses --     6.7383                 4.7977                 5.2826
 Frc consts  --     0.5091                 0.3871                 0.4702
 IR Inten    --     7.2955                 0.6100                 1.5511
 Raman Activ --     0.7137                 0.0376                 0.4252

                    28                     29                     30
                     A                      A                      A
 Frequencies --   412.0271               429.0923               441.2136
 Red. masses --     5.6792                 5.6691                 4.6559
 Frc consts  --     0.5680                 0.6150                 0.5340
 IR Inten    --    17.8824                 2.1174                 6.3227
 Raman Activ --     2.2557                 9.6065                 1.7956

                    31                     32                     33
                     A                      A                      A
 Frequencies --   452.0114               489.1279               500.1658
 Red. masses --     6.2136                 4.0747                 4.2278
 Frc consts  --     0.7480                 0.5744                 0.6231
 IR Inten    --     3.3191                 3.9959                12.6799
 Raman Activ --     0.5146                 3.0135                 0.1358

                    34                     35                     36
                     A                      A                      A
 Frequencies --   517.9792               536.4181               573.5935
 Red. masses --     3.6662                 3.3560                 4.2884
 Frc consts  --     0.5795                 0.5690                 0.8313
 IR Inten    --     4.8998                13.4067                24.0404
 Raman Activ --     3.5194                 2.1567                 1.7650

                    37                     38                     39
                     A                      A                      A
 Frequencies --   599.0779               601.7975               625.9347
 Red. masses --     4.6818                 4.2746                 3.8292
 Frc consts  --     0.9900                 0.9121                 0.8839
 IR Inten    --     2.7009                23.9346                34.0442
 Raman Activ --     0.3860                 0.7303                 0.7154

                    40                     41                     42
                     A                      A                      A
 Frequencies --   640.2253               679.3825               690.5103
 Red. masses --     3.8448                 1.1087                 3.8726
 Frc consts  --     0.9285                 0.3015                 1.0879
 IR Inten    --    28.7570               101.2993                 7.1725
 Raman Activ --     1.6259                 1.5685                 0.9806

                    43                     44                     45
                     A                      A                      A
 Frequencies --   697.8778               716.2567               749.3980
 Red. masses --     1.1145                 1.1021                 1.0910
 Frc consts  --     0.3198                 0.3331                 0.3610
 IR Inten    --   132.2912               110.2233                92.4202
 Raman Activ --     1.6619                 2.0990                 1.8835

                    46                     47                     48
                     A                      A                      A
 Frequencies --   799.6130               841.9995               853.2694
 Red. masses --     1.0748                 1.7658                 1.5797
 Frc consts  --     0.4049                 0.7376                 0.6776
 IR Inten    --    62.2071                 2.4130                 8.1192
 Raman Activ --     0.9318                 0.8009                 0.3047

                    49                     50                     51
                     A                      A                      A
 Frequencies --   900.7751               940.9336               965.6369
 Red. masses --     1.2464                 3.8214                 4.0801
 Frc consts  --     0.5959                 1.9934                 2.2415
 IR Inten    --    85.0208                76.8171                55.8841
 Raman Activ --     0.4556                 2.1728                 0.4543

                    52                     53                     54
                     A                      A                      A
 Frequencies --   988.4680               991.0847               996.5459
 Red. masses --     4.8984                 4.3389                 6.1569
 Frc consts  --     2.8198                 2.5110                 3.6025
 IR Inten    --    43.3638                 3.2788               105.7289
 Raman Activ --     4.9049                 1.2620                 1.0325

                    55                     56                     57
                     A                      A                      A
 Frequencies --  1022.4060              1028.1482              1037.8246
 Red. masses --     5.4196                 5.3854                 4.8062
 Frc consts  --     3.3379                 3.3541                 3.0500
 IR Inten    --   117.6034               146.2833                24.5133
 Raman Activ --     3.4585                 1.6689                 3.8822

                    58                     59                     60
                     A                      A                      A
 Frequencies --  1047.0439              1061.4139              1069.2337
 Red. masses --     4.0351                 4.5720                 2.8016
 Frc consts  --     2.6064                 3.0347                 1.8871
 IR Inten    --   421.7093               284.0743                61.1943
 Raman Activ --     3.5056                 1.7347                13.6177

                    61                     62                     63
                     A                      A                      A
 Frequencies --  1071.0957              1079.8139              1087.5043
 Red. masses --     2.6282                 2.8156                 4.3550
 Frc consts  --     1.7765                 1.9343                 3.0346
 IR Inten    --    48.3013                 8.8122               100.9566
 Raman Activ --     2.7630                 7.6267                 2.1204

                    64                     65                     66
                     A                      A                      A
 Frequencies --  1093.7045              1102.6697              1113.0515
 Red. masses --     2.9681                 3.5009                 3.3858
 Frc consts  --     2.0918                 2.5079                 2.4714
 IR Inten    --   169.5038                 1.0116                10.7159
 Raman Activ --     1.6845                 4.8934                22.8891

                    67                     68                     69
                     A                      A                      A
 Frequencies --  1115.6882              1124.7252              1132.6629
 Red. masses --     2.2732                 2.0416                 2.1966
 Frc consts  --     1.6672                 1.5216                 1.6603
 IR Inten    --    42.7398                 6.2972                20.3198
 Raman Activ --    11.2655                 1.4549                 7.4898

                    70                     71                     72
                     A                      A                      A
 Frequencies --  1135.0787              1144.1591              1154.6365
 Red. masses --     2.3145                 1.8779                 2.2821
 Frc consts  --     1.7569                 1.4484                 1.7926
 IR Inten    --    24.8667                 4.4976                91.7176
 Raman Activ --     4.2559                 1.3445                 3.6999

                    73                     74                     75
                     A                      A                      A
 Frequencies --  1163.3773              1170.8629              1177.5342
 Red. masses --     1.9193                 1.9236                 2.4028
 Frc consts  --     1.5305                 1.5537                 1.9629
 IR Inten    --     3.3654                28.6689                34.7341
 Raman Activ --     2.5830                 2.9574                 2.6012

                    76                     77                     78
                     A                      A                      A
 Frequencies --  1192.5752              1200.5476              1209.6649
 Red. masses --     1.3264                 1.4326                 1.7349
 Frc consts  --     1.1115                 1.2166                 1.4957
 IR Inten    --    26.1547                14.3747                19.8878
 Raman Activ --     0.0472                 0.6848                 5.2569

                    79                     80                     81
                     A                      A                      A
 Frequencies --  1237.0897              1242.6746              1245.3241
 Red. masses --     1.3119                 1.2430                 1.3804
 Frc consts  --     1.1829                 1.1309                 1.2613
 IR Inten    --     6.7004                14.8117                 8.4597
 Raman Activ --     1.5254                 1.7619                 1.4050

                    82                     83                     84
                     A                      A                      A
 Frequencies --  1261.4359              1281.8440              1296.6797
 Red. masses --     1.3857                 1.2839                 1.2607
 Frc consts  --     1.2991                 1.2429                 1.2489
 IR Inten    --    18.3509                 3.4051                27.4433
 Raman Activ --     1.2670                 0.9638                 7.0523

                    85                     86                     87
                     A                      A                      A
 Frequencies --  1298.9759              1302.2721              1304.6548
 Red. masses --     1.3273                 1.3081                 1.2483
 Frc consts  --     1.3195                 1.3070                 1.2519
 IR Inten    --    15.7297                19.4452                10.2614
 Raman Activ --     2.3008                 6.6720                 5.0630

                    88                     89                     90
                     A                      A                      A
 Frequencies --  1311.9269              1323.4839              1324.4239
 Red. masses --     1.2981                 1.3163                 1.3778
 Frc consts  --     1.3164                 1.3584                 1.4239
 IR Inten    --    39.6043                25.9366                 5.3724
 Raman Activ --     5.3510                 2.9269                 8.4911

                    91                     92                     93
                     A                      A                      A
 Frequencies --  1347.0542              1351.0876              1358.3407
 Red. masses --     1.3404                 1.4984                 1.1506
 Frc consts  --     1.4331                 1.6115                 1.2509
 IR Inten    --    18.2824                 7.3577                39.7331
 Raman Activ --     1.7451                18.3192                 2.6066

                    94                     95                     96
                     A                      A                      A
 Frequencies --  1364.3797              1366.5611              1369.1066
 Red. masses --     1.3938                 1.2833                 1.3087
 Frc consts  --     1.5287                 1.4120                 1.4453
 IR Inten    --     8.1867                57.0941                 6.6771
 Raman Activ --     5.6563                 7.5252                 3.7602

                    97                     98                     99
                     A                      A                      A
 Frequencies --  1384.3142              1390.8206              1397.9567
 Red. masses --     1.2353                 1.4597                 1.5982
 Frc consts  --     1.3948                 1.6637                 1.8402
 IR Inten    --    20.2062                 3.9657                 7.7214
 Raman Activ --     4.2056                 1.2522                 2.7954

                   100                    101                    102
                     A                      A                      A
 Frequencies --  1409.8816              1448.4057              1455.7908
 Red. masses --     1.3467                 1.5180                 1.3937
 Frc consts  --     1.5772                 1.8763                 1.7403
 IR Inten    --    50.5219                52.9013                31.4280
 Raman Activ --     2.8943                 2.6338                 1.8346

                   103                    104                    105
                     A                      A                      A
 Frequencies --  1468.3441              1473.7251              1479.0611
 Red. masses --     1.2981                 1.3236                 1.1411
 Frc consts  --     1.6489                 1.6938                 1.4707
 IR Inten    --    12.5698                16.0158                 4.9945
 Raman Activ --     3.1583                 3.1353                 2.9926

                   106                    107                    108
                     A                      A                      A
 Frequencies --  1483.8658              1531.9368              3262.8234
 Red. masses --     1.1272                 1.2615                 1.0769
 Frc consts  --     1.4624                 1.7443                 6.7549
 IR Inten    --     5.3112                49.4757                25.6348
 Raman Activ --     3.5778                 1.7083                77.2312

                   109                    110                    111
                     A                      A                      A
 Frequencies --  3266.5620              3267.9856              3282.3489
 Red. masses --     1.0585                 1.0636                 1.0711
 Frc consts  --     6.6544                 6.6923                 6.7991
 IR Inten    --    20.2956               264.3927               112.5361
 Raman Activ --    75.4623                84.2341               222.2818

                   112                    113                    114
                     A                      A                      A
 Frequencies --  3286.0357              3293.8855              3295.9430
 Red. masses --     1.0823                 1.0743                 1.0827
 Frc consts  --     6.8854                 6.8673                 6.9300
 IR Inten    --    45.5589               957.4021                90.4326
 Raman Activ --   148.9507                98.8807                 8.7381

                   115                    116                    117
                     A                      A                      A
 Frequencies --  3297.5697              3300.8358              3305.8217
 Red. masses --     1.0847                 1.0830                 1.0868
 Frc consts  --     6.9497                 6.9524                 6.9976
 IR Inten    --    54.4725               251.1697                65.8250
 Raman Activ --    69.6379                73.3495                71.9532

                   118                    119                    120
                     A                      A                      A
 Frequencies --  3311.5532              3315.0814              3320.7545
 Red. masses --     1.0850                 1.0894                 1.0975
 Frc consts  --     7.0105                 7.0536                 7.1310
 IR Inten    --   182.1993                16.7075                27.3987
 Raman Activ --    50.2562                49.6732                13.5893

                   121                    122                    123
                     A                      A                      A
 Frequencies --  3322.6253              3325.8971              3329.9672
 Red. masses --     1.1032                 1.0916                 1.0891
 Frc consts  --     7.1755                 7.1145                 7.1155
 IR Inten    --    30.6858                54.6175                70.1440
 Raman Activ --    52.0268                23.1948                32.4403

                   124                    125                    126
                     A                      A                      A
 Frequencies --  3383.4581              3386.4831              3390.6369
 Red. masses --     1.0652                 1.0663                 1.0681
 Frc consts  --     7.1848                 7.2047                 7.2350
 IR Inten    --    23.8204                31.2982                43.7056
 Raman Activ --   126.7132               146.2386               140.8419

                   127                    128                    129
                     A                      A                      A
 Frequencies --  3403.6011              3920.3467              3921.6921
 Red. masses --     1.0672                 1.0675                 1.0676
 Frc consts  --     7.2842                 9.6662                 9.6744
 IR Inten    --    74.7480                67.6490                69.7875
 Raman Activ --   152.2231               115.5911               103.9068

 - Thermochemistry -
 -------------------
 Temperature   298.150 Kelvin.  Pressure   1.00000 Atm.
 Atom     1 has atomic number  8 and mass  15.99491

 Molecular mass:   342.11621 amu.
 Principal axes and moments of inertia in atomic units:
                           1         2         3
     Eigenvalues --  4472.28064********************
           X            0.99998   0.00697  -0.00043
           Y           -0.00697   0.99997   0.00200
           Z            0.00044  -0.00199   1.00000
 This molecule is an asymmetric top.
 Rotational symmetry number  1.
 Warning -- assumption of classical behavior for rotation
           may cause significant error
 Rotational temperatures (Kelvin)      0.01937     0.00723     0.00538
 Rotational constants (GHZ):           0.40354     0.15059     0.11218
    7 imaginary frequencies ignored.
 Zero-point vibrational energy     979158.1 (Joules/Mol)
                                  234.02440 (Kcal/Mol)
 Warning -- explicit consideration of  31 degrees of freedom as
           vibrations may cause significant error
 Vibrational temperatures:     58.10   107.01   108.81   133.58   174.73
          (Kelvin)            229.70   265.99   273.68   320.18   345.53
                              386.36   400.43   415.74   445.16   454.28
                              465.84   474.24   515.24   532.44   559.22
                              592.81   617.37   634.81   650.34   703.75
                              719.63   745.26   771.78   825.27   861.94
                              865.85   900.58   921.14   977.48   993.49
                             1004.09  1030.53  1078.22  1150.46  1211.45
                             1227.66  1296.01  1353.79  1389.33  1422.18
                             1425.95  1433.81  1471.01  1479.27  1493.20
                             1506.46  1527.14  1538.39  1541.07  1553.61
                             1564.67  1573.59  1586.49  1601.43  1605.22
                             1618.23  1629.65  1633.12  1646.19  1661.26
                             1673.84  1684.61  1694.21  1715.85  1727.32
                             1740.44  1779.89  1787.93  1791.74  1814.92
                             1844.29  1865.63  1868.93  1873.68  1877.10
                             1887.57  1904.20  1905.55  1938.11  1943.91
                             1954.35  1963.04  1966.17  1969.84  1991.72
                             2001.08  2011.35  2028.50  2083.93  2094.56
                             2112.62  2120.36  2128.04  2134.95  2204.11
                             4694.47  4699.85  4701.90  4722.56  4727.87
                             4739.16  4742.12  4744.46  4749.16  4756.33
                             4764.58  4769.66  4777.82  4780.51  4785.22
                             4791.07  4868.04  4872.39  4878.36  4897.02
                             5640.50  5642.43

 Zero-point correction=                           0.372942 (Hartree/Particle)
 Thermal correction to Energy=                    0.391015
 Thermal correction to Enthalpy=                  0.391959
 Thermal correction to Gibbs Free Energy=         0.327699
 Sum of electronic and zero-point Energies=          -1297.561897
 Sum of electronic and thermal Energies=             -1297.543824
 Sum of electronic and thermal Enthalpies=           -1297.542880
 Sum of electronic and thermal Free Energies=        -1297.607140

                     E (Thermal)             CV                S
                      KCal/Mol        Cal/Mol-Kelvin    Cal/Mol-Kelvin
 Total                  245.366             75.308            135.247
 Electronic               0.000              0.000              0.000
 Translational            0.889              2.981             43.384
 Rotational               0.889              2.981             35.110
 Vibrational            243.588             69.346             56.753
 Vibration     1          0.594              1.981              5.240
 Vibration     2          0.599              1.966              4.034
 Vibration     3          0.599              1.965              4.001
 Vibration     4          0.602              1.954              3.599
 Vibration     5          0.609              1.931              3.077
 Vibration     6          0.622              1.892              2.554
 Vibration     7          0.631              1.860              2.279
 Vibration     8          0.634              1.853              2.226
 Vibration     9          0.648              1.807              1.938
 Vibration    10          0.657              1.779              1.802
 Vibration    11          0.673              1.731              1.606
 Vibration    12          0.679              1.714              1.544
 Vibration    13          0.686              1.694              1.480
 Vibration    14          0.699              1.656              1.366
 Vibration    15          0.703              1.644              1.332
 Vibration    16          0.708              1.628              1.291
 Vibration    17          0.712              1.616              1.262
 Vibration    18          0.733              1.559              1.130
 Vibration    19          0.742              1.534              1.080
 Vibration    20          0.757              1.494              1.005
 Vibration    21          0.776              1.444              0.919
 Vibration    22          0.790              1.407              0.862
 Vibration    23          0.801              1.380              0.823
 Vibration    24          0.811              1.356              0.790
 Vibration    25          0.845              1.274              0.686
 Vibration    26          0.856              1.250              0.658
 Vibration    27          0.873              1.210              0.615
 Vibration    28          0.891              1.169              0.573
 Vibration    29          0.930              1.088              0.497
 Vibration    30          0.957              1.034              0.451
 Vibration    31          0.960              1.028              0.447

 Normal termination of Gaussian 09 at Tue Mar  1 03:30:44 2016.
