 Gaussian 09, Revision B.01,
 Gaussian 09:  EM64L-G09RevB.01 12-Aug-2010

 -------------------------------------------------
 # freq=raman b3lyp/6-31+g(2d,p) geom=connectivity
 -------------------------------------------------

 -----------------
 500 7116/7116.com
 -----------------
 Symbolic Z-matrix:
 Charge =  0 Multiplicity = 1

                         Standard orientation:
 ---------------------------------------------------------------------
 Center     Atomic      Atomic             Coordinates (Angstroms)
 Number     Number       Type             X           Y           Z
 ---------------------------------------------------------------------
      1          8           0        5.061455   -0.437781   -0.489578
      2          6           0        3.837510   -0.023815    0.134072
      3          6           0        3.286674    1.291684   -0.391654
      4          8           0        4.303690    2.301095   -0.324884
      5          1           0        5.211925    1.900883   -0.451088
      6          6           0        1.928713    1.692296    0.163064
      7          8           0        1.533291    2.993548   -0.296227
      8          1           0        2.344618    3.566077   -0.176976
      9          6           0        3.194746   -2.405063    0.547103
     10          8           0        2.373045   -3.501675    0.120580
     11          1           0        2.775128   -4.319430    0.531920
     12          6           0        2.787560   -1.095064   -0.108036
     13          8           0        1.500328   -0.717927    0.400430
     14          6           0        1.019081    0.515929   -0.152679
     15          8           0       -0.163515    0.563681    0.659099
     16          6           0       -1.361938    0.249320   -0.065210
     17          6           0       -1.669484   -1.196875    0.288337
     18          8           0       -0.733229   -2.197974   -0.135745
     19          1           0        0.184494   -2.206600    0.260783
     20          6           0       -3.038769   -1.574829   -0.253413
     21          8           0       -3.327886   -2.980058   -0.309989
     22          1           0       -2.450261   -3.420159   -0.501069
     23          6           0       -2.295439    2.560649    0.025582
     24          8           0       -3.178427    3.575595    0.525195
     25          1           0       -2.812621    4.443474    0.188524
     26          6           0       -2.542135    1.100712    0.371291
     27          8           0       -3.788296    0.692163   -0.211220
     28          6           0       -4.168373   -0.642306    0.153574
     29          8           0       -5.364908   -0.636944   -0.638189
     30          1           0       -6.103865   -0.345032   -0.099365
     31          1           0       -4.386824   -0.711486    1.198750
     32          1           0       -2.931881   -1.339240   -1.291667
     33          1           0       -1.724472   -1.252221    1.355489
     34          1           0       -1.198601    0.348503   -1.118009
     35          1           0       -2.631798    1.021620    1.434590
     36          1           0       -2.297154    2.637485   -1.041654
     37          1           0       -1.310199    2.803767    0.364840
     38          1           0        5.776071   -0.397816    0.150209
     39          1           0        3.112491   -2.302290    1.608975
     40          1           0        4.213234   -2.616569    0.296408
     41          1           0        2.702676   -1.254449   -1.162688
     42          1           0        4.001321    0.067566    1.187503
     43          1           0        3.120864    1.129259   -1.436175
     44          1           0        2.019745    1.747537    1.227753
     45          1           0        0.791845    0.433507   -1.195018
 ---------------------------------------------------------------------

 SCF Done:  E(RB3LYP) =  -1297.97018331     A.U. after   13 cycles

 The electronic state is 1-A.
 Alpha  occ. eigenvalues --  -19.20162 -19.19162 -19.18234 -19.17908 -19.17689
 Alpha  occ. eigenvalues --  -19.17334 -19.15250 -19.14780 -19.14718 -19.14596
 Alpha  occ. eigenvalues --  -19.13776 -10.31731 -10.28918 -10.27621 -10.26863
 Alpha  occ. eigenvalues --  -10.26522 -10.26445 -10.25347 -10.24863 -10.24138
 Alpha  occ. eigenvalues --  -10.23952 -10.23128 -10.22171  -1.10972  -1.08165
 Alpha  occ. eigenvalues --   -1.07234  -1.05539  -1.04570  -1.03562  -1.03338
 Alpha  occ. eigenvalues --   -1.02138  -1.01180  -0.99581  -0.99230  -0.82934
 Alpha  occ. eigenvalues --   -0.82399  -0.78993  -0.77560  -0.72326  -0.69391
 Alpha  occ. eigenvalues --   -0.67707  -0.64843  -0.63933  -0.62866  -0.61241
 Alpha  occ. eigenvalues --   -0.59831  -0.57703  -0.56160  -0.55346  -0.54585
 Alpha  occ. eigenvalues --   -0.53887  -0.53480  -0.52683  -0.51969  -0.51363
 Alpha  occ. eigenvalues --   -0.50950  -0.49877  -0.48416  -0.47990  -0.46962
 Alpha  occ. eigenvalues --   -0.46340  -0.45078  -0.44813  -0.44326  -0.43598
 Alpha  occ. eigenvalues --   -0.42902  -0.42340  -0.40895  -0.40220  -0.39641
 Alpha  occ. eigenvalues --   -0.38377  -0.38278  -0.37703  -0.37138  -0.36078
 Alpha  occ. eigenvalues --   -0.35797  -0.34685  -0.34558  -0.34121  -0.33615
 Alpha  occ. eigenvalues --   -0.32501  -0.31570  -0.30455  -0.30310  -0.29898
 Alpha  occ. eigenvalues --   -0.29470  -0.28998  -0.27983  -0.26880  -0.26460
 Alpha  occ. eigenvalues --   -0.25627
 Alpha virt. eigenvalues --   -0.04055  -0.02272  -0.00948  -0.00179   0.00485
 Alpha virt. eigenvalues --    0.00992   0.01402   0.02159   0.02615   0.03186
 Alpha virt. eigenvalues --    0.03356   0.04193   0.05298   0.05412   0.05634

 Mulliken atomic charges:
              1
     1  O   -0.545699
     2  C   -0.176405
     3  C    0.247167
     4  O   -0.606112
     5  H    0.348386
     6  C   -0.051505
     7  O   -0.551778
     8  H    0.361056
     9  C   -0.407697
    10  O   -0.521257
    11  H    0.337626
    12  C    0.301093
    13  O   -0.269106
    14  C    0.340071
    15  O   -0.212376
    16  C    0.212661
    17  C    0.210674
    18  O   -0.606598
    19  H    0.393382
    20  C   -0.044066
    21  O   -0.565816
    22  H    0.356918
    23  C   -0.357735
    24  O   -0.514204
    25  H    0.325532
    26  C    0.010486
    27  O   -0.207644
    28  C    0.211907
    29  O   -0.485932
    30  H    0.325334
    31  H    0.117854
    32  H    0.118315
    33  H    0.110837
    34  H    0.107765
    35  H    0.116047
    36  H    0.136540
    37  H    0.163507
    38  H    0.341556
    39  H    0.145071
    40  H    0.154362
    41  H    0.125900
    42  H    0.122875
    43  H    0.114824
    44  H    0.130784
    45  H    0.135400
 Sum of Mulliken atomic charges =   0.00000

 Dipole moment (field-independent basis, Debye):
    X=              9.5677    Y=              0.3076    Z=              2.7297  Tot=              9.9542
 Quadrupole moment (field-independent basis, Debye-Ang):
   XX=           -124.3056   YY=           -138.5826   ZZ=           -139.0948
   XY=            -12.1881   XZ=              1.5130   YZ=             -8.9613

  Exact polarizability: 226.935  -0.272 203.626   0.480  -1.488 144.001
 Approx polarizability: 271.831  -2.405 263.395   1.374  -1.952 240.034

 ******    6 imaginary frequencies (negative Signs) ******

                     1                      2                      3
                     A                      A                      A
 Frequencies --  -365.4628              -273.3526              -213.2077
 Red. masses --     1.0987                 1.7219                 1.9629
 Frc consts  --     0.0865                 0.0758                 0.0526
 IR Inten    --   104.7044                 3.2513                 3.7192
 Raman Activ --     2.5194                 0.0917                 0.0591

                     4                      5                      6
                     A                      A                      A
 Frequencies --   -84.3929               -51.1526               -29.5885
 Red. masses --     6.1895                 6.6384                 6.0022
 Frc consts  --     0.0260                 0.0102                 0.0031
 IR Inten    --     0.0310                 0.4672                 1.3539
 Raman Activ --     0.0630                 0.0332                 0.1052

                     7                      8                      9
                     A                      A                      A
 Frequencies --    46.0710                53.5252                66.1984
 Red. masses --     6.5114                 6.8123                 6.6440
 Frc consts  --     0.0081                 0.0115                 0.0172
 IR Inten    --     0.9903                 0.6233                 0.8824
 Raman Activ --     0.0174                 0.0115                 0.0586

                    10                     11                     12
                     A                      A                      A
 Frequencies --    81.2031                96.1492               101.0897
 Red. masses --     4.6132                 6.6369                 1.7085
 Frc consts  --     0.0179                 0.0361                 0.0103
 IR Inten    --    12.6879                 1.1481                78.2435
 Raman Activ --     0.2699                 0.0658                 0.4303

                    13                     14                     15
                     A                      A                      A
 Frequencies --   114.8370               163.0222               182.5739
 Red. masses --     4.7207                 6.1324                 5.8940
 Frc consts  --     0.0367                 0.0960                 0.1158
 IR Inten    --    19.1739                 1.1472                 2.2740
 Raman Activ --     0.3329                 0.7348                 0.3741

                    16                     17                     18
                     A                      A                      A
 Frequencies --   194.4009               210.9336               260.8652
 Red. masses --     5.7606                 6.4430                 4.5681
 Frc consts  --     0.1283                 0.1689                 0.1832
 IR Inten    --     1.4505                 0.7230                 8.1527
 Raman Activ --     0.5310                 1.9672                 0.3004

                    19                     20                     21
                     A                      A                      A
 Frequencies --   264.0851               287.4565               293.2407
 Red. masses --     5.4229                 5.7854                 3.8732
 Frc consts  --     0.2228                 0.2817                 0.1962
 IR Inten    --     2.0553                 3.6096                 8.6631
 Raman Activ --     0.2811                 0.3097                 0.8221

                    22                     23                     24
                     A                      A                      A
 Frequencies --   306.2013               321.9689               331.8032
 Red. masses --     4.6226                 5.1902                 5.3229
 Frc consts  --     0.2554                 0.3170                 0.3453
 IR Inten    --     6.3575                 3.4060                 1.5725
 Raman Activ --     1.8371                 1.9679                 2.0289

                    25                     26                     27
                     A                      A                      A
 Frequencies --   343.7103               358.6890               369.4830
 Red. masses --     5.0879                 4.6295                 4.9450
 Frc consts  --     0.3541                 0.3509                 0.3977
 IR Inten    --     5.0211                 7.6699                 0.9291
 Raman Activ --     4.5605                 1.5037                 0.5012

                    28                     29                     30
                     A                      A                      A
 Frequencies --   404.5102               416.2610               428.0910
 Red. masses --     5.9480                 4.9488                 3.8416
 Frc consts  --     0.5734                 0.5052                 0.4148
 IR Inten    --     4.6222                 9.6552                 2.5573
 Raman Activ --     5.4453                 4.3312                 2.6162

                    31                     32                     33
                     A                      A                      A
 Frequencies --   434.5329               480.3665               491.2011
 Red. masses --     5.7311                 3.8416                 4.0106
 Frc consts  --     0.6376                 0.5223                 0.5701
 IR Inten    --     1.4389                20.3727                 9.7233
 Raman Activ --     1.1783                 0.6675                 0.8292

                    34                     35                     36
                     A                      A                      A
 Frequencies --   527.2128               537.3494               579.3595
 Red. masses --     4.4135                 5.1997                 3.4791
 Frc consts  --     0.7228                 0.8846                 0.6880
 IR Inten    --     6.1629                10.0319                14.2799
 Raman Activ --     4.8310                 2.4198                 0.8177

                    37                     38                     39
                     A                      A                      A
 Frequencies --   585.2258               605.7381               610.8298
 Red. masses --     3.3070                 3.8007                 3.2784
 Frc consts  --     0.6673                 0.8216                 0.7207
 IR Inten    --    29.2227                13.7876                 3.8491
 Raman Activ --     0.6331                 2.4069                 0.2202

                    40                     41                     42
                     A                      A                      A
 Frequencies --   643.1712               664.9711               687.3802
 Red. masses --     3.2994                 2.1693                 1.3630
 Frc consts  --     0.8042                 0.5652                 0.3794
 IR Inten    --    64.5910                20.9025               112.7672
 Raman Activ --     0.2522                 0.9218                 3.2905

                    43                     44                     45
                     A                      A                      A
 Frequencies --   695.9005               708.7628               718.7819
 Red. masses --     1.1280                 1.0940                 1.0738
 Frc consts  --     0.3218                 0.3238                 0.3269
 IR Inten    --   108.6988               103.8623                54.8343
 Raman Activ --     2.0148                 1.5158                 1.2076

                    46                     47                     48
                     A                      A                      A
 Frequencies --   730.2350               736.1033               842.6578
 Red. masses --     1.0954                 1.0746                 2.7476
 Frc consts  --     0.3441                 0.3431                 1.1495
 IR Inten    --   116.9348               116.1624                17.2567
 Raman Activ --     1.3151                 1.7288                 3.9501

                    49                     50                     51
                     A                      A                      A
 Frequencies --   855.7091               925.7870               929.4484
 Red. masses --     2.6740                 6.3709                 6.1323
 Frc consts  --     1.1536                 3.2172                 3.1212
 IR Inten    --     3.1885               162.5395               137.9199
 Raman Activ --     7.8847                 1.8423                 1.4466

                    52                     53                     54
                     A                      A                      A
 Frequencies --   970.1229               975.1104               986.9722
 Red. masses --     3.7481                 5.9585                 5.5062
 Frc consts  --     2.0783                 3.3381                 3.1602
 IR Inten    --    67.6558                26.3962               180.2677
 Raman Activ --     3.5002                 5.1144                 1.7753

                    55                     56                     57
                     A                      A                      A
 Frequencies --   992.1557              1013.3529              1017.2584
 Red. masses --     4.5946                 4.2282                 5.6425
 Frc consts  --     2.6648                 2.5581                 3.4402
 IR Inten    --    18.0492                99.5458               143.3190
 Raman Activ --     1.6487                 1.1789                 0.9240

                    58                     59                     60
                     A                      A                      A
 Frequencies --  1039.2759              1056.6487              1059.9900
 Red. masses --     3.6057                 6.3455                 3.2516
 Frc consts  --     2.2946                 4.1742                 2.1525
 IR Inten    --   245.2689                91.2249                 9.0947
 Raman Activ --     0.5182                13.5781                 2.1122

                    61                     62                     63
                     A                      A                      A
 Frequencies --  1063.8065              1074.5342              1087.2809
 Red. masses --     3.8305                 5.0410                 3.3452
 Frc consts  --     2.5541                 3.4293                 2.3300
 IR Inten    --   164.7182                59.7761                16.1836
 Raman Activ --    15.8199                 3.0621                 3.1803

                    64                     65                     66
                     A                      A                      A
 Frequencies --  1096.7658              1109.1230              1116.2386
 Red. masses --     2.7880                 3.0345                 3.0578
 Frc consts  --     1.9759                 2.1994                 2.2448
 IR Inten    --    42.6161                47.5702                12.7173
 Raman Activ --    10.2673                 1.2992                 8.9831

                    67                     68                     69
                     A                      A                      A
 Frequencies --  1120.0780              1130.8273              1136.1506
 Red. masses --     2.8013                 2.3227                 2.1569
 Frc consts  --     2.0707                 1.7500                 1.6404
 IR Inten    --     4.2460                22.9872                81.2260
 Raman Activ --     3.1251                 4.2118                 2.0178

                    70                     71                     72
                     A                      A                      A
 Frequencies --  1143.6387              1148.4418              1157.0949
 Red. masses --     2.2143                 2.2384                 2.4920
 Frc consts  --     1.7064                 1.7394                 1.9658
 IR Inten    --    70.4401                11.8031                34.6338
 Raman Activ --     2.3368                 6.3094                 3.7209

                    73                     74                     75
                     A                      A                      A
 Frequencies --  1159.5417              1162.8266              1177.6845
 Red. masses --     2.0830                 1.6907                 2.3072
 Frc consts  --     1.6501                 1.3470                 1.8853
 IR Inten    --    25.1392                35.8288                 1.1865
 Raman Activ --     2.1667                 3.9604                 2.4065

                    76                     77                     78
                     A                      A                      A
 Frequencies --  1202.7290              1207.4605              1214.1804
 Red. masses --     1.3798                 1.4979                 1.3820
 Frc consts  --     1.1760                 1.2867                 1.2004
 IR Inten    --     4.4335                 4.7795                11.5152
 Raman Activ --     4.6524                 0.8416                 3.8164

                    79                     80                     81
                     A                      A                      A
 Frequencies --  1224.1418              1248.6141              1255.0372
 Red. masses --     1.2163                 1.3035                 1.1763
 Frc consts  --     1.0738                 1.1973                 1.0916
 IR Inten    --    14.3923                 1.1018                10.5128
 Raman Activ --     2.2348                 2.9693                 4.5103

                    82                     83                     84
                     A                      A                      A
 Frequencies --  1257.6995              1285.3615              1293.1826
 Red. masses --     1.2565                 1.2690                 1.2778
 Frc consts  --     1.1711                 1.2353                 1.2590
 IR Inten    --    11.5005                 6.9758                 8.3265
 Raman Activ --     2.5584                 0.8612                 4.8318

                    85                     86                     87
                     A                      A                      A
 Frequencies --  1302.2632              1307.7282              1317.5071
 Red. masses --     1.2304                 1.2458                 1.3794
 Frc consts  --     1.2294                 1.2553                 1.4107
 IR Inten    --     9.8491                 4.0949                23.3857
 Raman Activ --     1.7472                 1.8599                 5.2883

                    88                     89                     90
                     A                      A                      A
 Frequencies --  1327.4291              1331.0562              1333.9542
 Red. masses --     1.1993                 1.2138                 1.5357
 Frc consts  --     1.2451                 1.2670                 1.6101
 IR Inten    --    16.9741                33.5937                 6.1639
 Raman Activ --     3.8294                 6.6516                 2.2936

                    91                     92                     93
                     A                      A                      A
 Frequencies --  1342.3221              1346.1121              1350.1312
 Red. masses --     1.2495                 1.2623                 1.4238
 Frc consts  --     1.3265                 1.3477                 1.5292
 IR Inten    --    15.7042                38.6052                23.3614
 Raman Activ --     1.4201                 3.7853                 5.7620

                    94                     95                     96
                     A                      A                      A
 Frequencies --  1354.4747              1369.0442              1372.5797
 Red. masses --     1.2687                 1.2949                 1.2455
 Frc consts  --     1.3714                 1.4299                 1.3825
 IR Inten    --    55.7159                10.8777                54.5883
 Raman Activ --     1.4009                 3.8021                 6.1067

                    97                     98                     99
                     A                      A                      A
 Frequencies --  1381.9921              1386.4977              1389.0780
 Red. masses --     1.3986                 1.3604                 1.3995
 Frc consts  --     1.5738                 1.5409                 1.5910
 IR Inten    --     5.0075                 7.5437                 5.6896
 Raman Activ --     4.2872                 3.9163                13.4336

                   100                    101                    102
                     A                      A                      A
 Frequencies --  1403.0291              1420.5426              1460.5401
 Red. masses --     1.1466                 1.5014                 1.1219
 Frc consts  --     1.3298                 1.7851                 1.4100
 IR Inten    --     2.4216                25.7051                 6.4833
 Raman Activ --     1.7361                 1.9981                 3.2090

                   103                    104                    105
                     A                      A                      A
 Frequencies --  1461.6508              1474.0728              1474.6520
 Red. masses --     1.1842                 1.2863                 1.4713
 Frc consts  --     1.4906                 1.6468                 1.8851
 IR Inten    --     8.7805                23.9069               116.1455
 Raman Activ --     1.9307                 6.2833                 1.7092

                   106                    107                    108
                     A                      A                      A
 Frequencies --  1476.1505              1482.8847              3245.7827
 Red. masses --     1.3457                 1.2944                 1.0788
 Frc consts  --     1.7277                 1.6770                 6.6960
 IR Inten    --    22.5545                20.2522                11.2339
 Raman Activ --     1.9973                 2.6243                92.2639

                   109                    110                    111
                     A                      A                      A
 Frequencies --  3257.5323              3258.9023              3261.2994
 Red. masses --     1.0790                 1.0601                 1.0579
 Frc consts  --     6.7463                 6.6334                 6.6295
 IR Inten    --    20.2368                25.9248                23.2194
 Raman Activ --    54.6233               104.7096               127.7400

                   112                    113                    114
                     A                      A                      A
 Frequencies --  3268.8560              3273.0119              3276.6015
 Red. masses --     1.0824                 1.0812                 1.0831
 Frc consts  --     6.8142                 6.8242                 6.8510
 IR Inten    --     0.7694                10.7631                 1.4787
 Raman Activ --     7.7638                51.6335                12.4108

                   115                    116                    117
                     A                      A                      A
 Frequencies --  3282.3121              3285.3361              3292.0017
 Red. masses --     1.0838                 1.0862                 1.0866
 Frc consts  --     6.8797                 6.9076                 6.9378
 IR Inten    --     4.1736                42.0672                57.9735
 Raman Activ --    90.0520               126.1909                18.0139

                   118                    119                    120
                     A                      A                      A
 Frequencies --  3295.4251              3303.8009              3313.1815
 Red. masses --     1.0868                 1.0864                 1.1038
 Frc consts  --     6.9540                 6.9864                 7.1390
 IR Inten    --     6.0646                64.2929                40.0950
 Raman Activ --     9.4780                23.4212                39.7843

                   121                    122                    123
                     A                      A                      A
 Frequencies --  3319.0922              3360.2136              3360.4378
 Red. masses --     1.1068                 1.0661                 1.0661
 Frc consts  --     7.1838                 7.0924                 7.0932
 IR Inten    --    35.7452               426.0113                 3.0684
 Raman Activ --    41.7751               303.5878                31.8139

                   124                    125                    126
                     A                      A                      A
 Frequencies --  3365.5062              3366.4803              3370.2825
 Red. masses --     1.0658                 1.0665                 1.0659
 Frc consts  --     7.1128                 7.1217                 7.1336
 IR Inten    --    85.7030                39.9975                69.7536
 Raman Activ --    41.9818               138.7548                70.4980

                   127                    128                    129
                     A                      A                      A
 Frequencies --  3374.2629              3885.9186              3891.5352
 Red. masses --     1.0665                 1.0677                 1.0673
 Frc consts  --     7.1544                 9.4991                 9.5234
 IR Inten    --    39.7243                76.1983                74.7489
 Raman Activ --   154.5073                93.8259               126.1918

 - Thermochemistry -
 -------------------
 Temperature   298.150 Kelvin.  Pressure   1.00000 Atm.
 Atom     1 has atomic number  8 and mass  15.99491

 Molecular mass:   342.11621 amu.
 Principal axes and moments of inertia in atomic units:
                           1         2         3
     Eigenvalues --  4776.05905********************
           X            0.99997  -0.00806   0.00051
           Y            0.00806   0.99995  -0.00510
           Z           -0.00047   0.00510   0.99999
 This molecule is an asymmetric top.
 Rotational symmetry number  1.
 Warning -- assumption of classical behavior for rotation
           may cause significant error
 Rotational temperatures (Kelvin)      0.01813     0.00735     0.00537
 Rotational constants (GHZ):           0.37787     0.15307     0.11189
    6 imaginary frequencies ignored.
 Zero-point vibrational energy     972826.5 (Joules/Mol)
                                  232.51111 (Kcal/Mol)
 Warning -- explicit consideration of  33 degrees of freedom as
           vibrations may cause significant error
 Vibrational temperatures:     66.29    77.01    95.24   116.83   138.34
          (Kelvin)            145.45   165.22   234.55   262.68   279.70
                              303.49   375.33   379.96   413.59   421.91
                              440.55   463.24   477.39   494.52   516.07
                              531.60   582.00   598.91   615.93   625.20
                              691.14   706.73   758.54   773.12   833.57
                              842.01   871.52   878.85   925.38   956.74
                              988.99  1001.24  1019.75  1034.17  1050.64
                             1059.09  1212.40  1231.17  1332.00  1337.27
                             1395.79  1402.96  1420.03  1427.49  1457.99
                             1463.61  1495.28  1520.28  1525.09  1530.58
                             1546.01  1564.35  1578.00  1595.78  1606.02
                             1611.54  1627.01  1634.67  1645.44  1652.35
                             1664.80  1668.32  1673.05  1694.42  1730.46
                             1737.26  1746.93  1761.26  1796.47  1805.72
                             1809.55  1849.35  1860.60  1873.66  1881.53
                             1895.60  1909.87  1915.09  1919.26  1931.30
                             1936.75  1942.54  1948.78  1969.75  1974.83
                             1988.38  1994.86  1998.57  2018.64  2043.84
                             2101.39  2102.99  2120.86  2121.69  2123.85
                             2133.54  4669.95  4686.86  4688.83  4692.28
                             4703.15  4709.13  4714.29  4722.51  4726.86
                             4736.45  4741.38  4753.43  4766.92  4775.43
                             4834.59  4834.91  4842.21  4843.61  4849.08
                             4854.81  5590.96  5599.04

 Zero-point correction=                           0.370530 (Hartree/Particle)
 Thermal correction to Energy=                    0.389957
 Thermal correction to Enthalpy=                  0.390901
 Thermal correction to Gibbs Free Energy=         0.323177
 Sum of electronic and zero-point Energies=          -1297.599653
 Sum of electronic and thermal Energies=             -1297.580226
 Sum of electronic and thermal Enthalpies=           -1297.579282
 Sum of electronic and thermal Free Energies=        -1297.647007

                     E (Thermal)             CV                S
                      KCal/Mol        Cal/Mol-Kelvin    Cal/Mol-Kelvin
 Total                  244.702             78.495            142.538
 Electronic               0.000              0.000              0.000
 Translational            0.889              2.981             43.384
 Rotational               0.889              2.981             35.162
 Vibrational            242.924             72.534             63.993
 Vibration     1          0.595              1.979              4.979
 Vibration     2          0.596              1.976              4.683
 Vibration     3          0.598              1.970              4.263
 Vibration     4          0.600              1.962              3.862
 Vibration     5          0.603              1.952              3.531
 Vibration     6          0.604              1.948              3.433
 Vibration     7          0.608              1.937              3.185
 Vibration     8          0.623              1.888              2.514
 Vibration     9          0.630              1.864              2.302
 Vibration    10          0.635              1.848              2.185
 Vibration    11          0.643              1.824              2.036
 Vibration    12          0.669              1.744              1.656
 Vibration    13          0.671              1.739              1.635
 Vibration    14          0.685              1.697              1.489
 Vibration    15          0.688              1.686              1.455
 Vibration    16          0.697              1.662              1.383
 Vibration    17          0.707              1.631              1.300
 Vibration    18          0.714              1.612              1.251
 Vibration    19          0.722              1.588              1.195
 Vibration    20          0.734              1.557              1.128
 Vibration    21          0.742              1.535              1.082
 Vibration    22          0.770              1.460              0.946
 Vibration    23          0.779              1.435              0.905
 Vibration    24          0.790              1.409              0.865
 Vibration    25          0.795              1.395              0.844
 Vibration    26          0.837              1.294              0.709
 Vibration    27          0.847              1.270              0.680
 Vibration    28          0.882              1.190              0.593
 Vibration    29          0.892              1.167              0.571
 Vibration    30          0.936              1.076              0.487
 Vibration    31          0.942              1.063              0.476
 Vibration    32          0.964              1.020              0.440
 Vibration    33          0.970              1.009              0.431

 Normal termination of Gaussian 09 at Fri Apr  1 12:55:54 2016.
