 Gaussian 09, Revision B.01,
 Gaussian 09:  EM64L-G09RevB.01 12-Aug-2010

 -------------------------------------------------
 # freq=raman b3lyp/6-31+g(2d,p) geom=connectivity
 -------------------------------------------------

 -----------------
 310 8571/8571.com
 -----------------
 Symbolic Z-matrix:
 Charge =  0 Multiplicity = 1

                         Standard orientation:
 ---------------------------------------------------------------------
 Center     Atomic      Atomic             Coordinates (Angstroms)
 Number     Number       Type             X           Y           Z
 ---------------------------------------------------------------------
      1          8           0        4.918851   -0.363164   -0.385533
      2          6           0        3.704572   -0.088196    0.327984
      3          6           0        3.288069    1.308112   -0.100799
      4          8           0        4.292157    2.278603    0.232116
      5          1           0        5.139508    1.826239   -0.045401
      6          6           0        1.811985    1.576151    0.143655
      7          8           0        1.378667    2.665189   -0.684077
      8          1           0        0.407432    2.877136   -0.572085
      9          6           0        2.955531   -2.583346    0.264603
     10          8           0        4.121609   -3.327978   -0.116171
     11          1           0        3.957063   -4.312894   -0.079418
     12          6           0        2.764908   -1.153928   -0.214299
     13          8           0        1.434650   -0.835344    0.222070
     14          6           0        0.909766    0.415332   -0.244581
     15          8           0       -0.294081    0.603883    0.514073
     16          6           0       -1.538521    0.293240   -0.130066
     17          6           0       -1.935543   -1.119997    0.266839
     18          8           0       -0.961301   -2.005766   -0.304800
     19          1           0       -0.045789   -1.772295    0.022744
     20          6           0       -3.299298   -1.589851   -0.210625
     21          8           0       -3.788003   -2.777991    0.428816
     22          1           0       -4.711580   -2.900663    0.064494
     23          6           0       -2.406340    2.708292   -0.053369
     24          8           0       -1.200016    3.343902    0.396235
     25          1           0       -1.445607    4.011156    1.099230
     26          6           0       -2.654380    1.244219    0.269712
     27          8           0       -3.936956    0.886328   -0.266737
     28          6           0       -4.276884   -0.462984    0.084497
     29          8           0       -5.545672   -0.727729   -0.530392
     30          1           0       -6.188302   -0.953296    0.146178
     31          1           0       -3.226844    3.265063    0.348723
     32          1           0       -2.439239    2.807916   -1.118213
     33          1           0       -2.739345    1.177731    1.334259
     34          1           0       -1.404704    0.335571   -1.190821
     35          1           0       -1.895795   -1.203005    1.332874
     36          1           0       -3.262015   -1.752602   -1.267518
     37          1           0       -4.436767   -0.470994    1.142454
     38          1           0        2.104407   -3.141598   -0.065308
     39          1           0        2.931189   -2.562486    1.334123
     40          1           0        5.604543   -0.618142    0.236088
     41          1           0        2.796738   -1.136299   -1.283680
     42          1           0        3.836333   -0.165810    1.387000
     43          1           0        3.345012    1.266939   -1.168489
     44          1           0        1.656939    1.823360    1.173096
     45          1           0        0.714388    0.397247   -1.296437
 ---------------------------------------------------------------------

 SCF Done:  E(RB3LYP) =  -1297.98937554     A.U. after   13 cycles

 The electronic state is 1-A.
 Alpha  occ. eigenvalues --  -19.18488 -19.18405 -19.18227 -19.18106 -19.17961
 Alpha  occ. eigenvalues --  -19.17063 -19.16771 -19.16331 -19.15336 -19.13911
 Alpha  occ. eigenvalues --  -19.13319 -10.30718 -10.30270 -10.25815 -10.25738
 Alpha  occ. eigenvalues --  -10.25513 -10.25241 -10.25167 -10.24883 -10.24561
 Alpha  occ. eigenvalues --  -10.24441 -10.24202 -10.24020  -1.10099  -1.09083
 Alpha  occ. eigenvalues --   -1.05843  -1.05044  -1.04127  -1.03956  -1.02852
 Alpha  occ. eigenvalues --   -1.02591  -1.02016  -1.00765  -1.00237  -0.82214
 Alpha  occ. eigenvalues --   -0.80083  -0.79180  -0.78355  -0.72090  -0.70059
 Alpha  occ. eigenvalues --   -0.67395  -0.65107  -0.63389  -0.63073  -0.61115
 Alpha  occ. eigenvalues --   -0.60019  -0.56350  -0.55700  -0.55602  -0.54877
 Alpha  occ. eigenvalues --   -0.54245  -0.52969  -0.52772  -0.52483  -0.51412
 Alpha  occ. eigenvalues --   -0.50744  -0.50067  -0.49277  -0.48698  -0.46501
 Alpha  occ. eigenvalues --   -0.46058  -0.45270  -0.44336  -0.43993  -0.43045
 Alpha  occ. eigenvalues --   -0.42665  -0.42055  -0.41286  -0.40524  -0.39522
 Alpha  occ. eigenvalues --   -0.39063  -0.37850  -0.37383  -0.36685  -0.35831
 Alpha  occ. eigenvalues --   -0.35690  -0.35003  -0.34454  -0.33936  -0.33323
 Alpha  occ. eigenvalues --   -0.33074  -0.31608  -0.30963  -0.30348  -0.29886
 Alpha  occ. eigenvalues --   -0.29350  -0.28901  -0.28622  -0.27636  -0.26946
 Alpha  occ. eigenvalues --   -0.26228
 Alpha virt. eigenvalues --   -0.02129  -0.01969  -0.01759  -0.00139   0.00450
 Alpha virt. eigenvalues --    0.01091   0.01962   0.02338   0.03112   0.03357
 Alpha virt. eigenvalues --    0.03675   0.04079   0.04904   0.05261   0.05469

 Mulliken atomic charges:
              1
     1  O   -0.549611
     2  C    0.116938
     3  C    0.107883
     4  O   -0.575298
     5  H    0.348524
     6  C    0.119914
     7  O   -0.545039
     8  H    0.379269
     9  C   -0.254488
    10  O   -0.554756
    11  H    0.341629
    12  C    0.106367
    13  O   -0.245282
    14  C    0.027120
    15  O   -0.179621
    16  C    0.136159
    17  C    0.263546
    18  O   -0.588874
    19  H    0.389726
    20  C    0.023093
    21  O   -0.533640
    22  H    0.335205
    23  C   -0.280640
    24  O   -0.519066
    25  H    0.348136
    26  C   -0.064670
    27  O   -0.259132
    28  C    0.130362
    29  O   -0.555950
    30  H    0.338820
    31  H    0.142995
    32  H    0.163250
    33  H    0.109690
    34  H    0.118269
    35  H    0.128240
    36  H    0.138742
    37  H    0.119201
    38  H    0.146890
    39  H    0.142418
    40  H    0.339567
    41  H    0.121443
    42  H    0.124333
    43  H    0.121303
    44  H    0.131343
    45  H    0.145691
 Sum of Mulliken atomic charges =   0.00000

 Dipole moment (field-independent basis, Debye):
    X=             -2.1908    Y=             -0.8678    Z=              3.2022  Tot=              3.9758
 Quadrupole moment (field-independent basis, Debye-Ang):
   XX=           -122.8949   YY=           -138.6180   ZZ=           -137.4743
   XY=            -16.0478   XZ=             -2.9075   YZ=              4.3551

  Exact polarizability: 232.716   1.690 197.411   0.091   0.299 144.405
 Approx polarizability: 274.147   0.917 255.819  -0.127   0.915 241.003

 ******    7 imaginary frequencies (negative Signs) ******

                     1                      2                      3
                     A                      A                      A
 Frequencies --  -282.3669              -250.4207              -178.9562
 Red. masses --     1.7357                 1.6621                 1.2940
 Frc consts  --     0.0815                 0.0614                 0.0244
 IR Inten    --     6.2373                 1.4997               101.7232
 Raman Activ --     0.0724                 0.0549                 0.7989

                     4                      5                      6
                     A                      A                      A
 Frequencies --  -164.8631               -65.8211               -47.8184
 Red. masses --     1.2781                 5.9753                 6.7324
 Frc consts  --     0.0205                 0.0153                 0.0091
 IR Inten    --   104.0511                 1.7869                 0.4149
 Raman Activ --     0.7160                 0.0604                 0.0865

                     7                      8                      9
                     A                      A                      A
 Frequencies --   -41.8443                27.3790                75.1249
 Red. masses --     5.1953                 6.7874                 5.7034
 Frc consts  --     0.0054                 0.0030                 0.0190
 IR Inten    --     4.9453                 2.4443                 7.8992
 Raman Activ --     0.0768                 0.0272                 0.2974

                    10                     11                     12
                     A                      A                      A
 Frequencies --    82.2751                92.7262               107.9526
 Red. masses --     5.8966                 6.6116                 5.5952
 Frc consts  --     0.0235                 0.0335                 0.0384
 IR Inten    --     2.7038                 4.7082                 1.8472
 Raman Activ --     0.0556                 0.2052                 0.0946

                    13                     14                     15
                     A                      A                      A
 Frequencies --   144.4340               172.2216               177.5084
 Red. masses --     6.1898                 5.9274                 7.4399
 Frc consts  --     0.0761                 0.1036                 0.1381
 IR Inten    --     2.6991                 3.1829                 0.5927
 Raman Activ --     0.3246                 0.1820                 0.3106

                    16                     17                     18
                     A                      A                      A
 Frequencies --   194.0093               219.9059               257.8316
 Red. masses --     6.8019                 6.7341                 4.6911
 Frc consts  --     0.1508                 0.1919                 0.1837
 IR Inten    --     0.4299                 0.4691                13.4811
 Raman Activ --     2.3198                 1.1845                 0.4139

                    19                     20                     21
                     A                      A                      A
 Frequencies --   278.8536               296.2670               306.4300
 Red. masses --     5.2433                 5.0971                 4.9764
 Frc consts  --     0.2402                 0.2636                 0.2753
 IR Inten    --     3.4750                 1.6923                 4.4038
 Raman Activ --     0.1383                 0.1240                 0.4058

                    22                     23                     24
                     A                      A                      A
 Frequencies --   316.3287               322.9222               327.0385
 Red. masses --     5.5851                 4.8397                 5.8214
 Frc consts  --     0.3293                 0.2973                 0.3668
 IR Inten    --     2.6123                11.3630                 4.4348
 Raman Activ --     2.2052                 0.5419                 2.5293

                    25                     26                     27
                     A                      A                      A
 Frequencies --   339.1135               356.3497               378.3540
 Red. masses --     6.3247                 4.7959                 5.7038
 Frc consts  --     0.4285                 0.3588                 0.4811
 IR Inten    --     2.3717                 5.3807                 0.7473
 Raman Activ --     7.8225                 0.0867                 0.3388

                    28                     29                     30
                     A                      A                      A
 Frequencies --   409.0276               422.2729               431.5424
 Red. masses --     4.8008                 5.6807                 5.0303
 Frc consts  --     0.4732                 0.5968                 0.5519
 IR Inten    --    23.4539                 5.9140                 2.5081
 Raman Activ --     2.8775                 3.1123                 2.7028

                    31                     32                     33
                     A                      A                      A
 Frequencies --   443.4118               479.9076               485.5808
 Red. masses --     5.5623                 4.5581                 3.8210
 Frc consts  --     0.6443                 0.6185                 0.5308
 IR Inten    --     1.7657                 4.7669                11.0188
 Raman Activ --     2.4921                 2.6302                 0.9859

                    34                     35                     36
                     A                      A                      A
 Frequencies --   511.7897               530.0348               569.3391
 Red. masses --     4.2389                 3.3796                 3.7601
 Frc consts  --     0.6542                 0.5594                 0.7181
 IR Inten    --     6.4331                10.2479                 8.9675
 Raman Activ --     3.8855                 3.4025                 1.0915

                    37                     38                     39
                     A                      A                      A
 Frequencies --   581.8465               595.5715               615.8716
 Red. masses --     2.8958                 4.6718                 6.2673
 Frc consts  --     0.5776                 0.9763                 1.4006
 IR Inten    --    34.3897                 3.2307                22.6348
 Raman Activ --     0.3832                 0.9868                 0.5294

                    40                     41                     42
                     A                      A                      A
 Frequencies --   640.5139               660.7691               662.5695
 Red. masses --     4.4962                 1.1121                 1.0935
 Frc consts  --     1.0868                 0.2861                 0.2828
 IR Inten    --    33.7062                38.1222               162.6122
 Raman Activ --     1.0565                 1.8871                 1.0792

                    43                     44                     45
                     A                      A                      A
 Frequencies --   687.8352               762.2877               769.5382
 Red. masses --     4.8749                 1.0777                 1.0683
 Frc consts  --     1.3589                 0.3690                 0.3727
 IR Inten    --    16.2201                82.0027                82.8473
 Raman Activ --     1.0581                 1.5683                 1.4412

                    46                     47                     48
                     A                      A                      A
 Frequencies --   782.6539               841.3307               857.1498
 Red. masses --     1.0733                 1.7575                 1.4663
 Frc consts  --     0.3873                 0.7330                 0.6347
 IR Inten    --   107.9677                 4.2680                30.7801
 Raman Activ --     1.2262                 0.9390                 1.6864

                    49                     50                     51
                     A                      A                      A
 Frequencies --   866.6069               911.6674               967.5299
 Red. masses --     1.2269                 6.1000                 4.4223
 Frc consts  --     0.5429                 2.9871                 2.4391
 IR Inten    --    79.5953                91.8441                88.5891
 Raman Activ --     1.6754                 2.0696                 0.8926

                    52                     53                     54
                     A                      A                      A
 Frequencies --   972.5879               985.8772               987.6050
 Red. masses --     6.4934                 6.6113                 4.8026
 Frc consts  --     3.6189                 3.7860                 2.7599
 IR Inten    --    46.1830                20.5670                83.8676
 Raman Activ --     2.1552                 2.4610                 1.0906

                    55                     56                     57
                     A                      A                      A
 Frequencies --  1001.9843              1008.2133              1032.3353
 Red. masses --     6.3009                 6.8160                 6.5409
 Frc consts  --     3.7271                 4.0821                 4.1071
 IR Inten    --   403.5786               186.3308               258.5503
 Raman Activ --     3.7305                 2.4430                 3.3670

                    58                     59                     60
                     A                      A                      A
 Frequencies --  1035.1838              1046.8047              1053.7934
 Red. masses --     5.7722                 5.0182                 5.0612
 Frc consts  --     3.6444                 3.2399                 3.3114
 IR Inten    --   173.2247                78.2843                38.4381
 Raman Activ --     0.8277                13.1851                 5.0364

                    61                     62                     63
                     A                      A                      A
 Frequencies --  1060.7402              1073.1046              1079.1058
 Red. masses --     4.8765                 6.1207                 4.0429
 Frc consts  --     3.2328                 4.1527                 2.7738
 IR Inten    --   112.0262                29.3981                39.0969
 Raman Activ --     2.1581                 0.7277                21.7033

                    64                     65                     66
                     A                      A                      A
 Frequencies --  1091.2604              1100.2502              1110.5657
 Red. masses --     3.5649                 2.9132                 2.7611
 Frc consts  --     2.5012                 2.0778                 2.0064
 IR Inten    --    37.8544                47.2007                 9.1907
 Raman Activ --    12.0010                 1.4690                 2.3106

                    67                     68                     69
                     A                      A                      A
 Frequencies --  1117.8676              1124.0132              1130.3926
 Red. masses --     2.6120                 2.2033                 2.9043
 Frc consts  --     1.9231                 1.6401                 2.1865
 IR Inten    --     4.1202                21.0149                14.8624
 Raman Activ --     2.6542                 1.0160                13.4230

                    70                     71                     72
                     A                      A                      A
 Frequencies --  1139.0204              1143.5909              1157.6121
 Red. masses --     1.7992                 1.9031                 2.0927
 Frc consts  --     1.3753                 1.4664                 1.6523
 IR Inten    --    37.1466                16.3910                35.8857
 Raman Activ --     3.2350                 1.8504                 3.6073

                    73                     74                     75
                     A                      A                      A
 Frequencies --  1168.8553              1173.4475              1188.0021
 Red. masses --     1.3008                 1.8114                 1.4188
 Frc consts  --     1.0471                 1.4696                 1.1798
 IR Inten    --    26.9983                 4.9237                 5.1160
 Raman Activ --     1.9493                 2.5890                 0.8405

                    76                     77                     78
                     A                      A                      A
 Frequencies --  1189.8107              1209.4491              1226.4685
 Red. masses --     1.3886                 1.7030                 1.3555
 Frc consts  --     1.1582                 1.4677                 1.2013
 IR Inten    --     6.4824                 3.8458                 3.0179
 Raman Activ --     1.6972                 2.3336                 0.9186

                    79                     80                     81
                     A                      A                      A
 Frequencies --  1242.0797              1248.6930              1265.7253
 Red. masses --     1.1866                 1.2671                 1.3310
 Frc consts  --     1.0786                 1.1641                 1.2563
 IR Inten    --     3.4616                10.4431                17.0910
 Raman Activ --     2.2243                 0.5985                 1.7263

                    82                     83                     84
                     A                      A                      A
 Frequencies --  1267.4575              1279.2849              1287.4792
 Red. masses --     1.2541                 1.2859                 1.1833
 Frc consts  --     1.1870                 1.2399                 1.1557
 IR Inten    --     2.9833                25.3236                 5.6718
 Raman Activ --     0.7623                 1.7541                 6.3879

                    85                     86                     87
                     A                      A                      A
 Frequencies --  1291.0919              1297.7304              1305.4510
 Red. masses --     1.3727                 1.2894                 1.3441
 Frc consts  --     1.3481                 1.2794                 1.3496
 IR Inten    --    56.8913                12.0874                 3.4183
 Raman Activ --     1.0595                 1.0907                 7.6923

                    88                     89                     90
                     A                      A                      A
 Frequencies --  1315.2276              1321.3476              1328.1287
 Red. masses --     1.2022                 1.4608                 1.3115
 Frc consts  --     1.2253                 1.5027                 1.3630
 IR Inten    --    23.0246                30.8121                44.6908
 Raman Activ --     7.7047                 1.2786                10.2323

                    91                     92                     93
                     A                      A                      A
 Frequencies --  1337.0879              1350.1317              1357.4841
 Red. masses --     1.1234                 1.2385                 1.4223
 Frc consts  --     1.1833                 1.3302                 1.5442
 IR Inten    --    28.8435                 8.7342                 3.9149
 Raman Activ --     1.1965                 2.1849                13.0388

                    94                     95                     96
                     A                      A                      A
 Frequencies --  1360.9173              1380.1222              1384.6564
 Red. masses --     1.4628                 1.3203                 1.6753
 Frc consts  --     1.5962                 1.4817                 1.8924
 IR Inten    --     2.4083                12.2995                12.5268
 Raman Activ --     2.8125                 2.9962                 4.2579

                    97                     98                     99
                     A                      A                      A
 Frequencies --  1391.2942              1393.7529              1398.1244
 Red. masses --     1.1514                 1.3455                 1.4864
 Frc consts  --     1.3131                 1.5399                 1.7119
 IR Inten    --    40.0620                 6.8104                 3.8442
 Raman Activ --     2.5468                 3.7404                 5.2866

                   100                    101                    102
                     A                      A                      A
 Frequencies --  1425.8048              1450.4924              1454.4834
 Red. masses --     1.3831                 1.3717                 1.3345
 Frc consts  --     1.6567                 1.7004                 1.6633
 IR Inten    --    22.9305                35.2286                20.7820
 Raman Activ --     0.7155                 2.1412                 0.3838

                   103                    104                    105
                     A                      A                      A
 Frequencies --  1458.6808              1466.0894              1468.8254
 Red. masses --     1.2065                 1.1111                 1.1014
 Frc consts  --     1.5125                 1.4071                 1.4000
 IR Inten    --    11.2343                11.8664                 3.7213
 Raman Activ --     3.7805                 3.3385                 3.4226

                   106                    107                    108
                     A                      A                      A
 Frequencies --  1480.4531              1496.7580              3256.8623
 Red. masses --     1.4402                 1.2923                 1.0690
 Frc consts  --     1.8598                 1.7058                 6.6810
 IR Inten    --    60.5382                39.7711                22.5335
 Raman Activ --     1.8803                 2.3417                 5.1783

                   109                    110                    111
                     A                      A                      A
 Frequencies --  3257.9822              3258.1236              3263.1971
 Red. masses --     1.0716                 1.0785                 1.0594
 Frc consts  --     6.7019                 6.7454                 6.6466
 IR Inten    --    33.7039                 9.6008                39.8407
 Raman Activ --    82.4258               149.1035                86.4632

                   112                    113                    114
                     A                      A                      A
 Frequencies --  3265.5827              3267.0555              3280.4599
 Red. masses --     1.0784                 1.0751                 1.0823
 Frc consts  --     6.7759                 6.7613                 6.8624
 IR Inten    --   232.9042               395.0751                28.1146
 Raman Activ --    70.4789               191.9807               112.9561

                   115                    116                    117
                     A                      A                      A
 Frequencies --  3285.8856              3288.0626              3290.4315
 Red. masses --     1.0840                 1.0852                 1.0844
 Frc consts  --     6.8959                 6.9123                 6.9176
 IR Inten    --     6.6767                12.1282                 6.1718
 Raman Activ --    59.8147                55.3458                52.7464

                   118                    119                    120
                     A                      A                      A
 Frequencies --  3299.9526              3301.3286              3305.5817
 Red. masses --     1.0875                 1.0872                 1.0878
 Frc consts  --     6.9777                 6.9811                 7.0029
 IR Inten    --    30.6273                14.2093                70.8733
 Raman Activ --    29.4419                37.6065                10.5900

                   121                    122                    123
                     A                      A                      A
 Frequencies --  3313.6763              3320.9121              3331.1897
 Red. masses --     1.1024                 1.1048                 1.0674
 Frc consts  --     7.1317                 7.1789                 6.9787
 IR Inten    --    59.4256                55.0628               434.0788
 Raman Activ --    27.2293                36.9908               147.7665

                   124                    125                    126
                     A                      A                      A
 Frequencies --  3362.0677              3363.0292              3377.0293
 Red. masses --     1.0645                 1.0651                 1.0702
 Frc consts  --     7.0894                 7.0974                 7.1912
 IR Inten    --    48.4515                37.6131                48.2718
 Raman Activ --    83.8624               117.6518               116.8002

                   127                    128                    129
                     A                      A                      A
 Frequencies --  3379.0834              3888.9887              3889.8008
 Red. masses --     1.0682                 1.0676                 1.0674
 Frc consts  --     7.1862                 9.5130                 9.5155
 IR Inten    --    55.5665                83.1182                59.4844
 Raman Activ --   163.5369                89.6934               107.8385

 - Thermochemistry -
 -------------------
 Temperature   298.150 Kelvin.  Pressure   1.00000 Atm.
 Atom     1 has atomic number  8 and mass  15.99491

 Molecular mass:   342.11621 amu.
 Principal axes and moments of inertia in atomic units:
                           1         2         3
     Eigenvalues --  4456.37198********************
           X            0.99997  -0.00789  -0.00104
           Y            0.00789   0.99997  -0.00006
           Z            0.00104   0.00005   1.00000
 This molecule is an asymmetric top.
 Rotational symmetry number  1.
 Warning -- assumption of classical behavior for rotation
           may cause significant error
 Rotational temperatures (Kelvin)      0.01944     0.00704     0.00529
 Rotational constants (GHZ):           0.40498     0.14662     0.11026
    7 imaginary frequencies ignored.
 Zero-point vibrational energy     974470.5 (Joules/Mol)
                                  232.90405 (Kcal/Mol)
 Warning -- explicit consideration of  32 degrees of freedom as
           vibrations may cause significant error
 Vibrational temperatures:     39.39   108.09   118.38   133.41   155.32
          (Kelvin)            207.81   247.79   255.39   279.14   316.40
                              370.96   401.21   426.26   440.88   455.13
                              464.61   470.53   487.91   512.71   544.37
                              588.50   607.56   620.89   637.97   690.48
                              698.64   736.35   762.60   819.15   837.15
                              856.89   886.10   921.56   950.70   953.29
                              989.64  1096.76  1107.19  1126.06  1210.49
                             1233.25  1246.85  1311.68  1392.06  1399.34
                             1418.46  1420.94  1441.63  1450.59  1485.30
                             1489.40  1506.12  1516.17  1526.17  1543.96
                             1552.59  1570.08  1583.01  1597.85  1608.36
                             1617.20  1626.38  1638.79  1645.37  1665.54
                             1681.72  1688.33  1709.27  1711.87  1740.13
                             1764.61  1787.07  1796.59  1821.09  1823.59
                             1840.60  1852.39  1857.59  1867.14  1878.25
                             1892.32  1901.12  1910.88  1923.77  1942.54
                             1953.11  1958.05  1985.69  1992.21  2001.76
                             2005.30  2011.59  2051.41  2086.93  2092.67
                             2098.71  2109.37  2113.31  2130.04  2153.50
                             4685.89  4687.50  4687.71  4695.01  4698.44
                             4700.56  4719.84  4727.65  4730.78  4734.19
                             4747.89  4749.87  4755.99  4767.64  4778.05
                             4792.83  4837.26  4838.64  4858.79  4861.74
                             5595.38  5596.55

 Zero-point correction=                           0.371156 (Hartree/Particle)
 Thermal correction to Energy=                    0.389573
 Thermal correction to Enthalpy=                  0.390517
 Thermal correction to Gibbs Free Energy=         0.325166
 Sum of electronic and zero-point Energies=          -1297.618219
 Sum of electronic and thermal Energies=             -1297.599802
 Sum of electronic and thermal Enthalpies=           -1297.598858
 Sum of electronic and thermal Free Energies=        -1297.664209

                     E (Thermal)             CV                S
                      KCal/Mol        Cal/Mol-Kelvin    Cal/Mol-Kelvin
 Total                  244.461             75.980            137.542
 Electronic               0.000              0.000              0.000
 Translational            0.889              2.981             43.384
 Rotational               0.889              2.981             35.150
 Vibrational            242.683             70.019             59.008
 Vibration     1          0.593              1.984              6.011
 Vibration     2          0.599              1.966              4.014
 Vibration     3          0.600              1.961              3.836
 Vibration     4          0.602              1.954              3.602
 Vibration     5          0.606              1.943              3.305
 Vibration     6          0.616              1.909              2.744
 Vibration     7          0.626              1.877              2.411
 Vibration     8          0.628              1.870              2.354
 Vibration     9          0.635              1.848              2.189
 Vibration    10          0.647              1.811              1.960
 Vibration    11          0.667              1.750              1.676
 Vibration    12          0.679              1.713              1.541
 Vibration    13          0.690              1.681              1.438
 Vibration    14          0.697              1.661              1.382
 Vibration    15          0.703              1.642              1.329
 Vibration    16          0.708              1.630              1.295
 Vibration    17          0.711              1.621              1.275
 Vibration    18          0.719              1.597              1.216
 Vibration    19          0.732              1.562              1.138
 Vibration    20          0.749              1.516              1.046
 Vibration    21          0.773              1.451              0.930
 Vibration    22          0.785              1.422              0.884
 Vibration    23          0.793              1.402              0.854
 Vibration    24          0.803              1.375              0.816
 Vibration    25          0.836              1.295              0.710
 Vibration    26          0.842              1.282              0.695
 Vibration    27          0.867              1.224              0.629
 Vibration    28          0.885              1.184              0.587
 Vibration    29          0.925              1.098              0.506
 Vibration    30          0.939              1.071              0.482
 Vibration    31          0.953              1.041              0.457
 Vibration    32          0.975              0.998              0.423

 Normal termination of Gaussian 09 at Thu Mar 24 12:34:58 2016.
