 Gaussian 09, Revision B.01,
 Gaussian 09:  EM64L-G09RevB.01 12-Aug-2010

 -------------------------------------------------
 # freq=raman b3lyp/6-31+g(2d,p) geom=connectivity
 -------------------------------------------------

 -----------------
 280 8952/8952.com
 -----------------
 Symbolic Z-matrix:
 Charge =  0 Multiplicity = 1

                         Standard orientation:
 ---------------------------------------------------------------------
 Center     Atomic      Atomic             Coordinates (Angstroms)
 Number     Number       Type             X           Y           Z
 ---------------------------------------------------------------------
      1          8           0       -5.051395   -0.416902    0.192502
      2          6           0       -3.718574   -0.041826   -0.186650
      3          6           0       -3.176696    1.271309    0.354934
      4          8           0       -4.067434    2.390006    0.234115
      5          1           0       -4.910033    2.192532    0.735439
      6          6           0       -1.797518    1.590531   -0.197115
      7          8           0       -1.219912    2.774720    0.370879
      8          1           0       -0.303778    2.843912   -0.024794
      9          6           0       -3.010093   -2.578115   -0.364460
     10          8           0       -4.143794   -3.214706    0.242128
     11          1           0       -4.036856   -4.208675    0.249290
     12          6           0       -2.806135   -1.188295    0.215828
     13          8           0       -1.466062   -0.872972   -0.191232
     14          6           0       -0.925256    0.403477    0.178482
     15          8           0        0.271939    0.474659   -0.610818
     16          6           0        1.489302    0.235171    0.111087
     17          6           0        2.023914   -1.126535   -0.301007
     18          8           0        0.981072   -2.106304   -0.187199
     19          1           0        0.150761   -1.720306   -0.588761
     20          6           0        3.315695   -1.566186    0.367697
     21          8           0        3.820979   -2.785150   -0.197182
     22          1           0        4.708961   -2.982906    0.216100
     23          6           0        2.304751    2.599819   -0.044919
     24          8           0        1.143170    3.356806   -0.415357
     25          1           0        1.433785    4.311128   -0.481278
     26          6           0        2.574893    1.153389   -0.426496
     27          8           0        3.883958    0.859970    0.082486
     28          6           0        4.315276   -0.502465   -0.052544
     29          8           0        5.419084   -0.554143    0.862210
     30          1           0        6.234946   -0.680844    0.372398
     31          1           0        4.654789   -0.686049   -1.050506
     32          1           0        3.219194   -1.624092    1.431762
     33          1           0        2.246896   -1.050968   -1.344783
     34          1           0        1.366595    0.322578    1.170428
     35          1           0        2.594261    1.075561   -1.493486
     36          1           0        3.144150    3.158327   -0.403218
     37          1           0        2.346697    2.632950    1.023745
     38          1           0       -5.553987   -0.648654   -0.591904
     39          1           0       -3.171653   -2.499982   -1.419303
     40          1           0       -2.135687   -3.167803   -0.183954
     41          1           0       -2.824091   -1.267254    1.282760
     42          1           0       -3.699078    0.024484   -1.254415
     43          1           0       -3.043158    1.118673    1.405538
     44          1           0       -1.844872    1.683727   -1.261996
     45          1           0       -0.688053    0.424134    1.221654
 ---------------------------------------------------------------------

 SCF Done:  E(RB3LYP) =  -1297.98397068     A.U. after   13 cycles

 The electronic state is 1-A.
 Alpha  occ. eigenvalues --  -19.19189 -19.18285 -19.18031 -19.17752 -19.17219
 Alpha  occ. eigenvalues --  -19.16619 -19.16078 -19.15643 -19.14946 -19.13078
 Alpha  occ. eigenvalues --  -19.12780 -10.30454 -10.29976 -10.26015 -10.25511
 Alpha  occ. eigenvalues --  -10.25203 -10.25053 -10.24687 -10.24656 -10.24141
 Alpha  occ. eigenvalues --  -10.23930 -10.23876 -10.23858  -1.09813  -1.09092
 Alpha  occ. eigenvalues --   -1.06041  -1.04636  -1.03690  -1.03423  -1.02618
 Alpha  occ. eigenvalues --   -1.02038  -1.01608  -1.00107  -0.99545  -0.82383
 Alpha  occ. eigenvalues --   -0.79990  -0.79581  -0.78250  -0.71834  -0.69697
 Alpha  occ. eigenvalues --   -0.67019  -0.64454  -0.62953  -0.62317  -0.61484
 Alpha  occ. eigenvalues --   -0.59853  -0.56448  -0.56337  -0.55033  -0.54622
 Alpha  occ. eigenvalues --   -0.53695  -0.53094  -0.52823  -0.51554  -0.51158
 Alpha  occ. eigenvalues --   -0.50466  -0.49714  -0.49081  -0.48220  -0.46717
 Alpha  occ. eigenvalues --   -0.46245  -0.44945  -0.44121  -0.43387  -0.42910
 Alpha  occ. eigenvalues --   -0.42394  -0.41996  -0.40666  -0.40351  -0.39043
 Alpha  occ. eigenvalues --   -0.38299  -0.37905  -0.37523  -0.36417  -0.35400
 Alpha  occ. eigenvalues --   -0.35075  -0.34612  -0.34302  -0.33308  -0.33187
 Alpha  occ. eigenvalues --   -0.32543  -0.31320  -0.30722  -0.30230  -0.29526
 Alpha  occ. eigenvalues --   -0.28745  -0.28490  -0.28321  -0.27291  -0.26313
 Alpha  occ. eigenvalues --   -0.26076
 Alpha virt. eigenvalues --   -0.02202  -0.01914  -0.01260   0.00127   0.00440
 Alpha virt. eigenvalues --    0.00853   0.01796   0.01959   0.03050   0.03529
 Alpha virt. eigenvalues --    0.03884   0.04243   0.05125   0.05380   0.05498

 Mulliken atomic charges:
              1
     1  O   -0.533557
     2  C    0.012890
     3  C    0.162574
     4  O   -0.546023
     5  H    0.338831
     6  C   -0.082389
     7  O   -0.575624
     8  H    0.442112
     9  C   -0.217864
    10  O   -0.528282
    11  H    0.338929
    12  C    0.132459
    13  O   -0.234824
    14  C    0.206266
    15  O   -0.237493
    16  C    0.159247
    17  C    0.147162
    18  O   -0.578056
    19  H    0.373032
    20  C    0.091189
    21  O   -0.523029
    22  H    0.333495
    23  C   -0.363250
    24  O   -0.572508
    25  H    0.362532
    26  C    0.050153
    27  O   -0.240907
    28  C    0.156061
    29  O   -0.520892
    30  H    0.330056
    31  H    0.137147
    32  H    0.135166
    33  H    0.108526
    34  H    0.118608
    35  H    0.122547
    36  H    0.138455
    37  H    0.158581
    38  H    0.337076
    39  H    0.137901
    40  H    0.153402
    41  H    0.110916
    42  H    0.104883
    43  H    0.104100
    44  H    0.126237
    45  H    0.124163
 Sum of Mulliken atomic charges =   0.00000

 Dipole moment (field-independent basis, Debye):
    X=              3.4220    Y=             -0.2003    Z=             -1.8237  Tot=              3.8828
 Quadrupole moment (field-independent basis, Debye-Ang):
   XX=           -119.4556   YY=           -135.8734   ZZ=           -136.5146
   XY=             13.3796   XZ=              0.4762   YZ=             -2.2665

  Exact polarizability: 232.700  -1.244 198.253   0.369   0.353 143.916
 Approx polarizability: 273.308  -0.740 258.327  -0.279   0.082 239.525

 ******    7 imaginary frequencies (negative Signs) ******

                     1                      2                      3
                     A                      A                      A
 Frequencies --  -305.7470              -281.7876              -190.5915
 Red. masses --     1.6791                 1.1530                 1.8794
 Frc consts  --     0.0925                 0.0539                 0.0402
 IR Inten    --     1.4220                98.1248                 3.9869
 Raman Activ --     0.0149                 0.9277                 0.2215

                     4                      5                      6
                     A                      A                      A
 Frequencies --  -186.9767               -77.3460               -66.5809
 Red. masses --     1.2058                 6.8353                 6.3545
 Frc consts  --     0.0248                 0.0241                 0.0166
 IR Inten    --    99.4140                 0.8474                 0.9203
 Raman Activ --     1.0513                 0.0757                 0.0288

                     7                      8                      9
                     A                      A                      A
 Frequencies --   -48.3144                19.8296                61.3265
 Red. masses --     6.3220                 6.1120                 6.6677
 Frc consts  --     0.0087                 0.0014                 0.0148
 IR Inten    --     0.1755                 0.6024                 0.0974
 Raman Activ --     0.0664                 0.0265                 0.0774

                    10                     11                     12
                     A                      A                      A
 Frequencies --    79.6962                96.4476               101.7282
 Red. masses --     6.4447                 6.6293                 6.0698
 Frc consts  --     0.0241                 0.0363                 0.0370
 IR Inten    --     1.1023                 0.9841                 1.6024
 Raman Activ --     0.2333                 0.0690                 0.0410

                    13                     14                     15
                     A                      A                      A
 Frequencies --   166.7274               179.2761               183.9655
 Red. masses --     5.9974                 6.8926                 5.9321
 Frc consts  --     0.0982                 0.1305                 0.1183
 IR Inten    --     2.1916                 4.7399                 0.8414
 Raman Activ --     0.5303                 0.5069                 0.4395

                    16                     17                     18
                     A                      A                      A
 Frequencies --   221.7908               235.4909               255.3711
 Red. masses --     6.7021                 5.2984                 4.6786
 Frc consts  --     0.1942                 0.1731                 0.1798
 IR Inten    --     0.5425                 4.3467                15.6604
 Raman Activ --     2.7966                 0.2222                 0.2785

                    19                     20                     21
                     A                      A                      A
 Frequencies --   265.4841               280.0357               310.2697
 Red. masses --     5.5748                 5.0286                 6.6675
 Frc consts  --     0.2315                 0.2323                 0.3782
 IR Inten    --     2.4887                 1.5499                 5.2616
 Raman Activ --     0.1606                 0.1336                 4.1283

                    22                     23                     24
                     A                      A                      A
 Frequencies --   317.3252               327.2493               338.1750
 Red. masses --     4.3654                 5.5277                 5.7308
 Frc consts  --     0.2590                 0.3488                 0.3861
 IR Inten    --     1.1641                 0.8549                 1.2965
 Raman Activ --     0.8682                 2.1809                 1.5687

                    25                     26                     27
                     A                      A                      A
 Frequencies --   363.1746               371.9804               386.5851
 Red. masses --     5.3275                 5.6241                 6.4255
 Frc consts  --     0.4140                 0.4585                 0.5658
 IR Inten    --    10.4701                 0.7525                 4.1283
 Raman Activ --     0.9760                 2.4269                 0.6811

                    28                     29                     30
                     A                      A                      A
 Frequencies --   395.2332               428.2407               436.6581
 Red. masses --     4.7534                 5.2769                 6.8273
 Frc consts  --     0.4375                 0.5702                 0.7670
 IR Inten    --    22.8770                 0.2997                 0.2866
 Raman Activ --     1.9153                 7.9717                 0.8952

                    31                     32                     33
                     A                      A                      A
 Frequencies --   449.0890               476.5620               489.6757
 Red. masses --     4.4587                 4.9887                 3.7639
 Frc consts  --     0.5298                 0.6675                 0.5317
 IR Inten    --     3.5014                 3.1200                17.2417
 Raman Activ --     0.3825                 4.4844                 0.6368

                    34                     35                     36
                     A                      A                      A
 Frequencies --   516.7443               529.4986               569.9657
 Red. masses --     4.1870                 3.3175                 3.8565
 Frc consts  --     0.6587                 0.5480                 0.7381
 IR Inten    --     4.8684                 9.8557                22.3210
 Raman Activ --     3.4802                 2.4074                 1.7979

                    37                     38                     39
                     A                      A                      A
 Frequencies --   603.2258               607.5176               626.7388
 Red. masses --     3.7160                 4.5582                 5.1527
 Frc consts  --     0.7967                 0.9912                 1.1925
 IR Inten    --    26.2451                18.1230                23.9896
 Raman Activ --     0.1441                 0.9546                 0.7365

                    40                     41                     42
                     A                      A                      A
 Frequencies --   642.7419               677.0767               686.3698
 Red. masses --     3.8617                 1.0804                 2.0391
 Frc consts  --     0.9400                 0.2918                 0.5660
 IR Inten    --    24.5346               105.9800                69.1288
 Raman Activ --     1.0221                 1.8781                 0.7659

                    43                     44                     45
                     A                      A                      A
 Frequencies --   698.7563               718.6133               731.3665
 Red. masses --     1.5938                 1.0819                 1.0762
 Frc consts  --     0.4585                 0.3292                 0.3392
 IR Inten    --    52.6597               107.0202               102.5809
 Raman Activ --     1.6588                 1.8205                 1.7614

                    46                     47                     48
                     A                      A                      A
 Frequencies --   793.0013               848.6583               851.8175
 Red. masses --     1.1044                 1.6618                 1.7369
 Frc consts  --     0.4092                 0.7052                 0.7426
 IR Inten    --   149.8515                 7.3409                 1.7330
 Raman Activ --     4.3494                 0.7441                 0.4528

                    49                     50                     51
                     A                      A                      A
 Frequencies --   908.2871               920.6475               944.4043
 Red. masses --     1.2165                 4.4903                 5.5845
 Frc consts  --     0.5913                 2.2424                 2.9346
 IR Inten    --    54.2979               148.1368                44.2155
 Raman Activ --     0.3851                 2.8721                 0.2591

                    52                     53                     54
                     A                      A                      A
 Frequencies --   972.0001               973.4540               990.0821
 Red. masses --     5.8038                 5.7518                 4.2748
 Frc consts  --     3.2307                 3.2113                 2.4689
 IR Inten    --     1.9942               173.6182               145.6820
 Raman Activ --     3.8122                 0.7014                 0.4459

                    55                     56                     57
                     A                      A                      A
 Frequencies --   998.6296              1005.7977              1017.4998
 Red. masses --     6.3168                 4.7804                 6.0093
 Frc consts  --     3.7116                 2.8493                 3.6656
 IR Inten    --    90.9267               177.1617                75.0769
 Raman Activ --     1.2157                 5.1328                 2.5300

                    58                     59                     60
                     A                      A                      A
 Frequencies --  1037.5075              1047.8319              1055.5103
 Red. masses --     5.6110                 5.1536                 4.6968
 Frc consts  --     3.5586                 3.3338                 3.0831
 IR Inten    --   405.1914                79.6027                94.9498
 Raman Activ --     3.7394                12.8966                 5.0576

                    61                     62                     63
                     A                      A                      A
 Frequencies --  1065.8455              1074.4277              1086.2765
 Red. masses --     4.6078                 2.8171                 4.6385
 Frc consts  --     3.0841                 1.9161                 3.2248
 IR Inten    --    55.1520                15.2868                66.7177
 Raman Activ --     5.3207                19.7725                 1.7767

                    64                     65                     66
                     A                      A                      A
 Frequencies --  1094.0854              1099.1047              1104.2679
 Red. masses --     2.7874                 2.7853                 2.3942
 Frc consts  --     1.9658                 1.9824                 1.7201
 IR Inten    --     4.5703                75.9994               103.3424
 Raman Activ --     4.8905                 5.2451                 5.8012

                    67                     68                     69
                     A                      A                      A
 Frequencies --  1106.8681              1125.3210              1129.9884
 Red. masses --     2.2260                 2.6979                 2.7775
 Frc consts  --     1.6069                 2.0129                 2.0896
 IR Inten    --    62.6556                22.3558                42.0651
 Raman Activ --     8.5746                 1.6412                 8.8007

                    70                     71                     72
                     A                      A                      A
 Frequencies --  1142.7941              1145.0262              1159.4212
 Red. masses --     2.4674                 2.7482                 1.6084
 Frc consts  --     1.8985                 2.1229                 1.2738
 IR Inten    --    16.2934                11.3489                 4.8140
 Raman Activ --     1.9613                 6.1226                 2.9046

                    73                     74                     75
                     A                      A                      A
 Frequencies --  1165.3497              1174.3188              1178.0959
 Red. masses --     2.0370                 1.8153                 2.0194
 Frc consts  --     1.6299                 1.4749                 1.6513
 IR Inten    --    12.8030                 7.6408                15.5913
 Raman Activ --     3.3121                 1.7217                 3.4091

                    76                     77                     78
                     A                      A                      A
 Frequencies --  1203.1133              1205.5907              1231.9162
 Red. masses --     1.4576                 1.5094                 1.2114
 Frc consts  --     1.2431                 1.2925                 1.0832
 IR Inten    --     7.2824                 6.2988                10.8291
 Raman Activ --     2.4406                 2.0387                 1.3927

                    79                     80                     81
                     A                      A                      A
 Frequencies --  1235.8077              1246.3421              1253.4309
 Red. masses --     1.2381                 1.2907                 1.1907
 Frc consts  --     1.1140                 1.1813                 1.1022
 IR Inten    --     2.3425                32.7929                16.4930
 Raman Activ --     1.0718                 2.0985                 3.4262

                    82                     83                     84
                     A                      A                      A
 Frequencies --  1261.1050              1275.0398              1278.9422
 Red. masses --     1.1900                 1.3131                 1.3690
 Frc consts  --     1.1150                 1.2578                 1.3194
 IR Inten    --     1.1013                 2.0396                40.3937
 Raman Activ --     5.3061                 1.3399                 0.9916

                    85                     86                     87
                     A                      A                      A
 Frequencies --  1279.6351              1299.5748              1306.5787
 Red. masses --     1.2989                 1.2864                 1.4104
 Frc consts  --     1.2531                 1.2800                 1.4187
 IR Inten    --     6.8882                 8.2206                 5.0241
 Raman Activ --     1.1237                 1.0473                 1.2961

                    88                     89                     90
                     A                      A                      A
 Frequencies --  1312.1054              1320.2661              1323.3938
 Red. masses --     1.2382                 1.2146                 1.2461
 Frc consts  --     1.2560                 1.2474                 1.2858
 IR Inten    --    22.1100                70.0014                20.9998
 Raman Activ --     6.2898                 4.8362                 4.5011

                    91                     92                     93
                     A                      A                      A
 Frequencies --  1331.1940              1357.9318              1362.8996
 Red. masses --     1.2619                 1.2434                 1.1959
 Frc consts  --     1.3175                 1.3509                 1.3088
 IR Inten    --    12.1794                24.6787                30.7439
 Raman Activ --     9.8255                 2.2850                 2.7643

                    94                     95                     96
                     A                      A                      A
 Frequencies --  1365.3266              1373.1152              1377.2672
 Red. masses --     1.3878                 1.3911                 1.2691
 Frc consts  --     1.5242                 1.5454                 1.4183
 IR Inten    --     6.1454                 5.7377                38.5269
 Raman Activ --    11.2823                 5.3917                 4.4166

                    97                     98                     99
                     A                      A                      A
 Frequencies --  1383.4413              1397.5484              1403.8812
 Red. masses --     1.4919                 1.3108                 1.4870
 Frc consts  --     1.6824                 1.5084                 1.7267
 IR Inten    --     3.7054                 0.5452                 9.2111
 Raman Activ --     4.0990                 3.9044                 3.7478

                   100                    101                    102
                     A                      A                      A
 Frequencies --  1425.8799              1442.8091              1448.5245
 Red. masses --     1.3839                 1.3193                 1.4277
 Frc consts  --     1.6578                 1.6181                 1.7650
 IR Inten    --    37.6371                46.2637                 8.7681
 Raman Activ --     1.4899                 1.2288                 2.4507

                   103                    104                    105
                     A                      A                      A
 Frequencies --  1469.1136              1471.2745              1480.2152
 Red. masses --     1.0942                 1.0836                 1.3135
 Frc consts  --     1.3914                 1.3820                 1.6957
 IR Inten    --     4.7742                 2.9258                13.2474
 Raman Activ --     5.2402                 3.9915                 1.2804

                   106                    107                    108
                     A                      A                      A
 Frequencies --  1484.7806              1486.4495              3227.4752
 Red. masses --     1.3529                 1.3462                 1.0677
 Frc consts  --     1.7573                 1.7525                 6.5525
 IR Inten    --    91.8235                34.6457              1093.6600
 Raman Activ --     0.9841                 3.5031               148.2806

                   109                    110                    111
                     A                      A                      A
 Frequencies --  3255.9297              3258.1974              3259.3523
 Red. masses --     1.0781                 1.0795                 1.0589
 Frc consts  --     6.7336                 6.7516                 6.6276
 IR Inten    --    17.8971                56.4565                29.0078
 Raman Activ --    39.2114                 6.5842               199.2035

                   112                    113                    114
                     A                      A                      A
 Frequencies --  3260.2537              3270.3190              3277.0599
 Red. masses --     1.0625                 1.0827                 1.0834
 Frc consts  --     6.6541                 6.8223                 6.8550
 IR Inten    --    10.5995                 8.5699                 9.6158
 Raman Activ --   114.5533                47.0545                74.2756

                   115                    116                    117
                     A                      A                      A
 Frequencies --  3284.9433              3287.8764              3291.6090
 Red. masses --     1.0842                 1.0862                 1.0862
 Frc consts  --     6.8929                 6.9178                 6.9340
 IR Inten    --     3.2792                27.4948                12.6618
 Raman Activ --    92.6206                18.6069               132.6169

                   118                    119                    120
                     A                      A                      A
 Frequencies --  3296.0343              3301.3456              3306.1721
 Red. masses --     1.0876                 1.0866                 1.0906
 Frc consts  --     6.9616                 6.9772                 7.0239
 IR Inten    --    29.4816                36.9302                30.9154
 Raman Activ --     9.5543                13.0382                19.3609

                   121                    122                    123
                     A                      A                      A
 Frequencies --  3311.4330              3323.5407              3328.5974
 Red. masses --     1.0988                 1.1080                 1.0669
 Frc consts  --     7.0991                 7.2111                 6.9647
 IR Inten    --    94.6476                27.7448               462.5287
 Raman Activ --    31.5810                28.4952               141.8563

                   124                    125                    126
                     A                      A                      A
 Frequencies --  3371.5378              3372.2798              3377.2411
 Red. masses --     1.0664                 1.0686                 1.0678
 Frc consts  --     7.1419                 7.1599                 7.1760
 IR Inten    --    40.5852                37.1513                81.2099
 Raman Activ --   109.6052               186.6054               142.2069

                   127                    128                    129
                     A                      A                      A
 Frequencies --  3378.4398              3888.6820              3889.2310
 Red. masses --     1.0660                 1.0675                 1.0677
 Frc consts  --     7.1687                 9.5107                 9.5154
 IR Inten    --    28.8720                75.3123                70.4975
 Raman Activ --   164.9857               111.7015                94.6016

 - Thermochemistry -
 -------------------
 Temperature   298.150 Kelvin.  Pressure   1.00000 Atm.
 Atom     1 has atomic number  8 and mass  15.99491

 Molecular mass:   342.11621 amu.
 Principal axes and moments of inertia in atomic units:
                           1         2         3
     Eigenvalues --  4465.79275********************
           X            0.99997   0.00759  -0.00002
           Y           -0.00759   0.99997   0.00119
           Z            0.00003  -0.00119   1.00000
 This molecule is an asymmetric top.
 Rotational symmetry number  1.
 Warning -- assumption of classical behavior for rotation
           may cause significant error
 Rotational temperatures (Kelvin)      0.01939     0.00712     0.00534
 Rotational constants (GHZ):           0.40413     0.14832     0.11132
    7 imaginary frequencies ignored.
 Zero-point vibrational energy     974803.2 (Joules/Mol)
                                  232.98355 (Kcal/Mol)
 Warning -- explicit consideration of  31 degrees of freedom as
           vibrations may cause significant error
 Vibrational temperatures:     28.53    88.24   114.66   138.77   146.36
          (Kelvin)            239.88   257.94   264.68   319.11   338.82
                              367.42   381.97   402.91   446.41   456.56
                              470.84   486.56   522.53   535.20   556.21
                              568.65   616.14   628.25   646.14   685.67
                              704.53   743.48   761.83   820.05   867.91
                              874.08   901.74   924.76   974.16   987.53
                             1005.35  1033.92  1052.27  1140.95  1221.03
                             1225.57  1306.82  1324.60  1358.79  1398.49
                             1400.58  1424.51  1436.80  1447.12  1463.95
                             1492.74  1507.59  1518.64  1533.51  1545.86
                             1562.91  1574.14  1581.36  1588.79  1592.53
                             1619.08  1625.80  1644.22  1647.44  1668.15
                             1676.68  1689.58  1695.02  1731.01  1734.57
                             1772.45  1778.05  1793.21  1803.41  1814.45
                             1834.50  1840.11  1841.11  1869.80  1879.87
                             1887.82  1899.57  1904.07  1915.29  1953.76
                             1960.91  1964.40  1975.60  1981.58  1990.46
                             2010.76  2019.87  2051.52  2075.88  2084.10
                             2113.72  2116.83  2129.70  2136.27  2138.67
                             4643.61  4684.55  4687.81  4689.48  4690.77
                             4705.25  4714.95  4726.29  4730.51  4735.89
                             4742.25  4749.89  4756.84  4764.41  4781.83
                             4789.10  4850.88  4851.95  4859.09  4860.82
                             5594.94  5595.73

 Zero-point correction=                           0.371283 (Hartree/Particle)
 Thermal correction to Energy=                    0.389565
 Thermal correction to Enthalpy=                  0.390509
 Thermal correction to Gibbs Free Energy=         0.325094
 Sum of electronic and zero-point Energies=          -1297.612688
 Sum of electronic and thermal Energies=             -1297.594405
 Sum of electronic and thermal Enthalpies=           -1297.593461
 Sum of electronic and thermal Free Energies=        -1297.658877

                     E (Thermal)             CV                S
                      KCal/Mol        Cal/Mol-Kelvin    Cal/Mol-Kelvin
 Total                  244.456             75.721            137.678
 Electronic               0.000              0.000              0.000
 Translational            0.889              2.981             43.384
 Rotational               0.889              2.981             35.131
 Vibrational            242.678             69.759             59.162
 Vibration     1          0.593              1.986              6.651
 Vibration     2          0.597              1.973              4.414
 Vibration     3          0.600              1.963              3.898
 Vibration     4          0.603              1.952              3.525
 Vibration     5          0.604              1.948              3.421
 Vibration     6          0.624              1.883              2.472
 Vibration     7          0.629              1.868              2.336
 Vibration     8          0.631              1.862              2.288
 Vibration     9          0.648              1.808              1.944
 Vibration    10          0.655              1.786              1.837
 Vibration    11          0.666              1.754              1.693
 Vibration    12          0.671              1.736              1.625
 Vibration    13          0.680              1.711              1.533
 Vibration    14          0.699              1.654              1.361
 Vibration    15          0.704              1.641              1.324
 Vibration    16          0.711              1.621              1.274
 Vibration    17          0.718              1.599              1.221
 Vibration    18          0.737              1.548              1.108
 Vibration    19          0.744              1.530              1.072
 Vibration    20          0.755              1.499              1.013
 Vibration    21          0.762              1.480              0.980
 Vibration    22          0.790              1.409              0.864
 Vibration    23          0.797              1.390              0.837
 Vibration    24          0.808              1.363              0.799
 Vibration    25          0.833              1.302              0.719
 Vibration    26          0.846              1.273              0.684
 Vibration    27          0.872              1.213              0.618
 Vibration    28          0.884              1.185              0.588
 Vibration    29          0.926              1.096              0.504
 Vibration    30          0.962              1.025              0.444
 Vibration    31          0.966              1.016              0.437

 Normal termination of Gaussian 09 at Mon Mar 21 21:33:13 2016.
