 Gaussian 09, Revision B.01,
 Gaussian 09:  EM64L-G09RevB.01 12-Aug-2010

 -------------------------------------------------
 # freq=raman b3lyp/6-31+g(2d,p) geom=connectivity
 -------------------------------------------------

 -----------------
 473 7160/7160.com
 -----------------
 Symbolic Z-matrix:
 Charge =  0 Multiplicity = 1

                         Standard orientation:
 ---------------------------------------------------------------------
 Center     Atomic      Atomic             Coordinates (Angstroms)
 Number     Number       Type             X           Y           Z
 ---------------------------------------------------------------------
      1          8           0       -5.077876   -0.453681    0.218929
      2          6           0       -3.738069   -0.059238   -0.110349
      3          6           0       -3.187073    1.268681    0.382818
      4          8           0       -4.171353    2.269653    0.085516
      5          1           0       -5.043495    1.799920    0.221962
      6          6           0       -1.827781    1.647621   -0.181548
      7          8           0       -1.329113    2.882685    0.351829
      8          1           0       -0.346227    3.013650    0.226152
      9          6           0       -3.152325   -2.425510   -0.219471
     10          8           0       -4.284338   -3.194361    0.213119
     11          1           0       -4.199797   -4.139616   -0.102267
     12          6           0       -2.718002   -1.086853    0.353420
     13          8           0       -1.431270   -0.834938   -0.230486
     14          6           0       -0.923308    0.461927    0.114476
     15          8           0        0.322445    0.573392   -0.587900
     16          6           0        1.602089    0.205813   -0.051604
     17          6           0        1.931492   -1.234590   -0.407782
     18          8           0        0.843878   -2.128032   -0.126035
     19          1           0       -0.045069   -1.696330   -0.280547
     20          6           0        3.270393   -1.652310    0.177108
     21          8           0        3.932127   -2.842311   -0.275385
     22          1           0        4.798841   -2.881620    0.222716
     23          6           0        2.467491    2.596417    0.008464
     24          8           0        1.370323    3.386755   -0.469600
     25          1           0        1.582409    4.324323   -0.192030
     26          6           0        2.718852    1.163952   -0.432238
     27          8           0        3.841159    0.758190    0.364843
     28          6           0        4.301298   -0.549814   -0.005212
     29          8           0        5.458462   -0.626892    0.840479
     30          1           0        6.250994   -0.631466    0.298748
     31          1           0        4.616249   -0.533305   -1.027676
     32          1           0        3.118611   -1.767870    1.229965
     33          1           0        2.057390   -1.253959   -1.470173
     34          1           0        1.512496    0.247246    1.013833
     35          1           0        2.944601    1.108834   -1.476700
     36          1           0        3.357321    3.143991   -0.222329
     37          1           0        2.381331    2.573679    1.074747
     38          1           0       -2.305902   -3.072750   -0.121753
     39          1           0       -3.294457   -2.261780   -1.267274
     40          1           0       -2.659914   -1.123497    1.421213
     41          1           0       -5.581835   -0.579923   -0.588343
     42          1           0       -3.686965   -0.031836   -1.178777
     43          1           0       -3.091998    1.207920    1.446852
     44          1           0       -1.917300    1.749576   -1.242911
     45          1           0       -0.713171    0.464568    1.163636
 ---------------------------------------------------------------------

 SCF Done:  E(RB3LYP) =  -1297.96692519     A.U. after   13 cycles

 The electronic state is 1-A.
 Alpha  occ. eigenvalues --  -19.20043 -19.18854 -19.18261 -19.18198 -19.17889
 Alpha  occ. eigenvalues --  -19.17725 -19.16409 -19.16060 -19.14882 -19.14658
 Alpha  occ. eigenvalues --  -19.13289 -10.31341 -10.30692 -10.26519 -10.26256
 Alpha  occ. eigenvalues --  -10.25870 -10.25688 -10.25388 -10.25315 -10.25222
 Alpha  occ. eigenvalues --  -10.24712 -10.24562 -10.24034  -1.10805  -1.09725
 Alpha  occ. eigenvalues --   -1.06081  -1.05520  -1.04472  -1.03655  -1.02784
 Alpha  occ. eigenvalues --   -1.02479  -1.02260  -1.00742  -1.00126  -0.82672
 Alpha  occ. eigenvalues --   -0.81410  -0.79711  -0.78978  -0.72066  -0.70219
 Alpha  occ. eigenvalues --   -0.67895  -0.64995  -0.63326  -0.62909  -0.61622
 Alpha  occ. eigenvalues --   -0.60870  -0.56942  -0.56608  -0.55329  -0.54955
 Alpha  occ. eigenvalues --   -0.54511  -0.53760  -0.52862  -0.52036  -0.51483
 Alpha  occ. eigenvalues --   -0.51065  -0.50393  -0.50132  -0.49459  -0.47035
 Alpha  occ. eigenvalues --   -0.46174  -0.45567  -0.44539  -0.44215  -0.43573
 Alpha  occ. eigenvalues --   -0.43217  -0.42246  -0.42024  -0.40555  -0.40228
 Alpha  occ. eigenvalues --   -0.39412  -0.37805  -0.37466  -0.36046  -0.35502
 Alpha  occ. eigenvalues --   -0.35131  -0.34983  -0.34746  -0.34040  -0.33134
 Alpha  occ. eigenvalues --   -0.32853  -0.31724  -0.31505  -0.30604  -0.30280
 Alpha  occ. eigenvalues --   -0.30020  -0.28551  -0.28127  -0.28056  -0.26880
 Alpha  occ. eigenvalues --   -0.26519
 Alpha virt. eigenvalues --   -0.02386  -0.02291  -0.01979  -0.00211   0.00229
 Alpha virt. eigenvalues --    0.01024   0.01855   0.02146   0.03060   0.03198
 Alpha virt. eigenvalues --    0.04010   0.04416   0.04461   0.05231   0.05745

 Mulliken atomic charges:
              1
     1  O   -0.546433
     2  C   -0.212090
     3  C    0.358889
     4  O   -0.566005
     5  H    0.345187
     6  C   -0.069022
     7  O   -0.564947
     8  H    0.400505
     9  C   -0.256654
    10  O   -0.537947
    11  H    0.336844
    12  C    0.269152
    13  O   -0.272928
    14  C    0.247147
    15  O   -0.281921
    16  C    0.155508
    17  C    0.218292
    18  O   -0.601862
    19  H    0.427250
    20  C    0.036408
    21  O   -0.530388
    22  H    0.342367
    23  C   -0.249265
    24  O   -0.552299
    25  H    0.352766
    26  C   -0.072630
    27  O   -0.203055
    28  C    0.073024
    29  O   -0.532094
    30  H    0.335565
    31  H    0.127166
    32  H    0.132689
    33  H    0.111317
    34  H    0.115813
    35  H    0.123584
    36  H    0.145366
    37  H    0.154428
    38  H    0.142576
    39  H    0.131465
    40  H    0.124506
    41  H    0.353503
    42  H    0.117424
    43  H    0.116126
    44  H    0.131364
    45  H    0.123311
 Sum of Mulliken atomic charges =   0.00000

 Dipole moment (field-independent basis, Debye):
    X=              2.8121    Y=              0.3640    Z=             -1.8905  Tot=              3.4080
 Quadrupole moment (field-independent basis, Debye-Ang):
   XX=           -118.0979   YY=           -141.7876   ZZ=           -139.3282
   XY=             19.3628   XZ=              4.0726   YZ=              2.0175

  Exact polarizability: 236.073   0.048 198.243   1.308   0.957 143.676
 Approx polarizability: 278.010   1.622 258.345   2.009   1.445 239.160

 ******    6 imaginary frequencies (negative Signs) ******

                     1                      2                      3
                     A                      A                      A
 Frequencies --  -311.5886              -285.5927              -203.7358
 Red. masses --     1.7349                 1.7443                 1.2545
 Frc consts  --     0.0992                 0.0838                 0.0307
 IR Inten    --    11.6182                 2.7435                87.6615
 Raman Activ --     0.0577                 0.0550                 0.6975

                     4                      5                      6
                     A                      A                      A
 Frequencies --  -182.9700               -79.2980               -46.6667
 Red. masses --     1.2313                 6.8559                 6.3284
 Frc consts  --     0.0243                 0.0254                 0.0081
 IR Inten    --    95.6496                 1.2527                 0.9566
 Raman Activ --     0.7779                 0.0224                 0.0149

                     7                      8                      9
                     A                      A                      A
 Frequencies --    49.2761                58.2800                70.7361
 Red. masses --     6.7522                 7.1036                 6.7932
 Frc consts  --     0.0097                 0.0142                 0.0200
 IR Inten    --     0.8820                 0.1554                 5.5530
 Raman Activ --     0.0567                 0.0462                 0.0697

                    10                     11                     12
                     A                      A                      A
 Frequencies --    78.2129               107.2039               115.6582
 Red. masses --     6.6167                 5.4282                 5.7526
 Frc consts  --     0.0238                 0.0368                 0.0453
 IR Inten    --     2.4313                 5.2725                 5.7568
 Raman Activ --     0.3239                 0.0958                 0.1210

                    13                     14                     15
                     A                      A                      A
 Frequencies --   139.2486               165.3343               195.5224
 Red. masses --     6.0364                 6.6320                 5.9513
 Frc consts  --     0.0690                 0.1068                 0.1340
 IR Inten    --     5.2516                 0.6921                 0.1414
 Raman Activ --     0.5284                 0.3620                 0.2576

                    16                     17                     18
                     A                      A                      A
 Frequencies --   196.7831               229.1100               265.2004
 Red. masses --     6.9970                 6.3730                 4.5775
 Frc consts  --     0.1596                 0.1971                 0.1897
 IR Inten    --     0.4147                 1.9964                12.6946
 Raman Activ --     2.6167                 0.8511                 0.7915

                    19                     20                     21
                     A                      A                      A
 Frequencies --   270.6957               285.5379               301.3009
 Red. masses --     4.7772                 4.6427                 5.6493
 Frc consts  --     0.2062                 0.2230                 0.3022
 IR Inten    --     3.6157                 0.5459                 2.9502
 Raman Activ --     0.2137                 0.0695                 0.2452

                    22                     23                     24
                     A                      A                      A
 Frequencies --   312.1636               317.3094               323.1368
 Red. masses --     4.8825                 6.0171                 5.0980
 Frc consts  --     0.2803                 0.3569                 0.3136
 IR Inten    --     4.0373                 2.0858                12.2419
 Raman Activ --     2.3516                 2.6723                 1.6984

                    25                     26                     27
                     A                      A                      A
 Frequencies --   335.9453               361.4857               370.6130
 Red. masses --     6.0386                 5.9829                 6.1370
 Frc consts  --     0.4015                 0.4606                 0.4966
 IR Inten    --     9.0856                 3.8499                 4.0082
 Raman Activ --     5.8296                 0.5845                 1.1765

                    28                     29                     30
                     A                      A                      A
 Frequencies --   401.0188               406.5567               432.1181
 Red. masses --     6.0756                 4.8939                 4.4574
 Frc consts  --     0.5757                 0.4766                 0.4904
 IR Inten    --     7.5743                 7.6387                 7.7166
 Raman Activ --     3.9795                 3.7252                 3.2423

                    31                     32                     33
                     A                      A                      A
 Frequencies --   436.3811               473.1148               496.9982
 Red. masses --     5.4156                 3.7702                 5.4314
 Frc consts  --     0.6076                 0.4972                 0.7904
 IR Inten    --     4.6869                14.8202                 0.7883
 Raman Activ --     1.7109                 1.9616                 0.4083

                    34                     35                     36
                     A                      A                      A
 Frequencies --   502.4242               534.1500               552.4840
 Red. masses --     3.4865                 3.8198                 2.7996
 Frc consts  --     0.5185                 0.6421                 0.5035
 IR Inten    --    18.5394                 5.9143                16.4008
 Raman Activ --     3.6355                 4.7127                 1.0932

                    37                     38                     39
                     A                      A                      A
 Frequencies --   570.8349               582.2872               609.9906
 Red. masses --     3.3892                 5.0580                 4.4969
 Frc consts  --     0.6507                 1.0104                 0.9858
 IR Inten    --    23.1611                17.4857                 9.6078
 Raman Activ --     0.2797                 0.8051                 0.9465

                    40                     41                     42
                     A                      A                      A
 Frequencies --   634.6043               674.0883               688.4294
 Red. masses --     5.8371                 1.0795                 4.9720
 Frc consts  --     1.3850                 0.2890                 1.3884
 IR Inten    --    31.3553               115.8238                 7.4684
 Raman Activ --     2.0340                 1.8897                 1.0244

                    43                     44                     45
                     A                      A                      A
 Frequencies --   747.3573               753.2044               758.7326
 Red. masses --     1.0727                 1.0676                 1.0737
 Frc consts  --     0.3530                 0.3569                 0.3642
 IR Inten    --    86.6318                23.5506                43.9359
 Raman Activ --     1.6578                 0.5052                 1.1802

                    46                     47                     48
                     A                      A                      A
 Frequencies --   768.7081               778.9594               853.5038
 Red. masses --     1.0793                 1.0672                 1.8542
 Frc consts  --     0.3758                 0.3815                 0.7958
 IR Inten    --   201.6754                83.2075                 0.7798
 Raman Activ --     1.4560                 1.2717                 0.4122

                    49                     50                     51
                     A                      A                      A
 Frequencies --   857.4732               919.7044               947.2892
 Red. masses --     1.7543                 6.3757                 6.5932
 Frc consts  --     0.7600                 3.1774                 3.4858
 IR Inten    --    11.8006               131.7509                52.9638
 Raman Activ --     0.3856                 3.1645                 0.9191

                    52                     53                     54
                     A                      A                      A
 Frequencies --   964.4504               967.6806               986.6638
 Red. masses --     6.7534                 5.2078                 4.5503
 Frc consts  --     3.7011                 2.8732                 2.6100
 IR Inten    --   130.3334                34.8330                 7.5835
 Raman Activ --     2.5056                 2.9291                 0.4510

                    55                     56                     57
                     A                      A                      A
 Frequencies --   992.8221              1012.0590              1021.0638
 Red. masses --     6.4484                 6.0839                 6.1194
 Frc consts  --     3.7450                 3.6715                 3.7589
 IR Inten    --   559.7190                42.4555               189.1005
 Raman Activ --     2.1622                 2.0245                 3.1685

                    58                     59                     60
                     A                      A                      A
 Frequencies --  1034.2297              1052.0154              1064.7283
 Red. masses --     5.6936                 5.1735                 6.5497
 Frc consts  --     3.5882                 3.3735                 4.3747
 IR Inten    --   192.7146                99.7434                20.3390
 Raman Activ --     2.1454                 5.4118                 0.7259

                    61                     62                     63
                     A                      A                      A
 Frequencies --  1071.0363              1074.9966              1075.7643
 Red. masses --     3.5621                 4.1058                 4.6652
 Frc consts  --     2.4075                 2.7955                 3.1809
 IR Inten    --    16.0711                46.2638                15.3707
 Raman Activ --     2.9675                23.7874                 5.7910

                    64                     65                     66
                     A                      A                      A
 Frequencies --  1098.5537              1109.9996              1113.8357
 Red. masses --     2.8564                 2.8979                 2.5161
 Frc consts  --     2.0310                 2.1036                 1.8392
 IR Inten    --    24.5343                80.9107                86.1796
 Raman Activ --     3.7857                14.8226                 6.0992

                    67                     68                     69
                     A                      A                      A
 Frequencies --  1127.8804              1132.4651              1134.2094
 Red. masses --     2.6648                 2.0706                 3.9381
 Frc consts  --     1.9973                 1.5646                 2.9848
 IR Inten    --    43.0226                33.1511                13.6700
 Raman Activ --     1.3044                 2.7730                 3.7009

                    70                     71                     72
                     A                      A                      A
 Frequencies --  1140.8310              1156.1229              1159.9672
 Red. masses --     2.6654                 2.3897                 2.5138
 Frc consts  --     2.0439                 1.8819                 1.9928
 IR Inten    --    56.4914                52.6840                 3.2104
 Raman Activ --     7.7249                 5.0962                 2.2432

                    73                     74                     75
                     A                      A                      A
 Frequencies --  1162.7160              1174.5845              1178.0796
 Red. masses --     2.4551                 1.5658                 1.5121
 Frc consts  --     1.9556                 1.2728                 1.2364
 IR Inten    --     4.3465                 4.7224                 0.5376
 Raman Activ --     2.7764                 1.1211                 3.0530

                    76                     77                     78
                     A                      A                      A
 Frequencies --  1213.5868              1216.7834              1241.5236
 Red. masses --     1.3628                 1.3855                 1.2789
 Frc consts  --     1.1825                 1.2086                 1.1615
 IR Inten    --    10.9611                 9.9680                 2.0210
 Raman Activ --     2.0154                 1.1063                 2.5758

                    79                     80                     81
                     A                      A                      A
 Frequencies --  1249.1803              1254.8202              1269.8056
 Red. masses --     1.3175                 1.2834                 1.3706
 Frc consts  --     1.2113                 1.1906                 1.3020
 IR Inten    --     2.8068                 1.0007                13.0500
 Raman Activ --     3.4024                 2.2569                 0.8065

                    82                     83                     84
                     A                      A                      A
 Frequencies --  1287.2994              1291.7504              1296.0824
 Red. masses --     1.3907                 1.2118                 1.2122
 Frc consts  --     1.3578                 1.1914                 1.1998
 IR Inten    --    54.6642                 2.1799                 3.9052
 Raman Activ --     1.1410                 3.7978                 1.7169

                    85                     86                     87
                     A                      A                      A
 Frequencies --  1303.2024              1307.5234              1312.0362
 Red. masses --     1.1968                 1.3004                 1.2523
 Frc consts  --     1.1975                 1.3098                 1.2702
 IR Inten    --    26.9652                23.8048                15.7365
 Raman Activ --     5.3056                 3.1273                 2.1213

                    88                     89                     90
                     A                      A                      A
 Frequencies --  1320.6845              1331.3164              1334.5384
 Red. masses --     1.2370                 1.2875                 1.2763
 Frc consts  --     1.2712                 1.3445                 1.3393
 IR Inten    --    17.5454                15.8849                29.7745
 Raman Activ --     6.0409                 5.7125                 7.7896

                    91                     92                     93
                     A                      A                      A
 Frequencies --  1342.3125              1352.5761              1353.7546
 Red. masses --     1.1893                 1.1191                 1.1491
 Frc consts  --     1.2625                 1.2063                 1.2408
 IR Inten    --     8.5222                47.3944                 9.1551
 Raman Activ --     7.9965                 3.1753                 7.0857

                    94                     95                     96
                     A                      A                      A
 Frequencies --  1357.6181              1369.8040              1379.9611
 Red. masses --     1.1620                 1.4425                 1.5980
 Frc consts  --     1.2619                 1.5948                 1.7929
 IR Inten    --    36.5959                 2.3145                15.1636
 Raman Activ --     1.3998                 7.1466                 3.5952

                    97                     98                     99
                     A                      A                      A
 Frequencies --  1387.8170              1390.2859              1417.6003
 Red. masses --     1.4332                 1.4390                 1.2663
 Frc consts  --     1.6263                 1.6387                 1.4993
 IR Inten    --     2.6517                 2.6056                 0.6147
 Raman Activ --     1.2626                 7.4846                 4.1003

                   100                    101                    102
                     A                      A                      A
 Frequencies --  1435.3868              1454.7102              1464.5541
 Red. masses --     1.3392                 1.3557                 1.2291
 Frc consts  --     1.6257                 1.6903                 1.5533
 IR Inten    --    21.2949                55.5694                14.4027
 Raman Activ --     0.5951                 0.9616                 4.7333

                   103                    104                    105
                     A                      A                      A
 Frequencies --  1472.7043              1480.6556              1485.3667
 Red. masses --     1.0728                 1.1706                 1.3312
 Frc consts  --     1.3709                 1.5120                 1.7304
 IR Inten    --     4.9264                20.6125                63.6837
 Raman Activ --     4.6518                 1.9274                 1.0105

                   106                    107                    108
                     A                      A                      A
 Frequencies --  1488.8445              1494.0859              3236.7139
 Red. masses --     1.2662                 1.3469                 1.0700
 Frc consts  --     1.6537                 1.7715                 6.6048
 IR Inten    --    26.6623                29.9326               825.8277
 Raman Activ --     3.6855                 0.5531               224.5042

                   109                    110                    111
                     A                      A                      A
 Frequencies --  3250.4929              3258.4356              3261.1686
 Red. masses --     1.0591                 1.0590                 1.0784
 Frc consts  --     6.5928                 6.6245                 6.7575
 IR Inten    --    32.6746               128.9465                80.1758
 Raman Activ --    71.2418                50.7278                78.2003

                   112                    113                    114
                     A                      A                      A
 Frequencies --  3265.8387              3271.5466              3274.2067
 Red. masses --     1.0809                 1.0823                 1.0816
 Frc consts  --     6.7927                 6.8249                 6.8314
 IR Inten    --     2.8337                 2.1547                22.8258
 Raman Activ --   101.1323                19.9689                44.5456

                   115                    116                    117
                     A                      A                      A
 Frequencies --  3277.1864              3278.4732              3284.8390
 Red. masses --     1.0837                 1.0836                 1.0865
 Frc consts  --     6.8576                 6.8623                 6.9073
 IR Inten    --     1.4479                19.2748                 3.6117
 Raman Activ --    55.8312               192.7872                30.9371

                   118                    119                    120
                     A                      A                      A
 Frequencies --  3286.8268              3292.2155              3294.2936
 Red. masses --     1.0848                 1.0857                 1.0881
 Frc consts  --     6.9047                 6.9331                 6.9572
 IR Inten    --   165.7694               297.4028               102.1578
 Raman Activ --   120.2897                73.4009                12.6754

                   121                    122                    123
                     A                      A                      A
 Frequencies --  3299.9698              3306.0719              3312.3203
 Red. masses --     1.0808                 1.0940                 1.1036
 Frc consts  --     6.9346                 7.0455                 7.1336
 IR Inten    --   343.7037                97.3428                55.2917
 Raman Activ --    67.9444                29.3664                43.7947

                   124                    125                    126
                     A                      A                      A
 Frequencies --  3351.3777              3359.4564              3365.7898
 Red. masses --     1.0656                 1.0657                 1.0679
 Frc consts  --     7.0517                 7.0862                 7.1279
 IR Inten    --    42.5633                49.7051                41.6952
 Raman Activ --    83.7714               103.2927               205.8879

                   127                    128                    129
                     A                      A                      A
 Frequencies --  3365.8512              3889.8369              3891.4540
 Red. masses --     1.0665                 1.0676                 1.0678
 Frc consts  --     7.1189                 9.5171                 9.5273
 IR Inten    --    72.5772                83.9385                89.7137
 Raman Activ --    84.8573               109.1693                81.3334

 - Thermochemistry -
 -------------------
 Temperature   298.150 Kelvin.  Pressure   1.00000 Atm.
 Atom     1 has atomic number  8 and mass  15.99491

 Molecular mass:   342.11621 amu.
 Principal axes and moments of inertia in atomic units:
                           1         2         3
     Eigenvalues --  4471.25741********************
           X            0.99996   0.00867   0.00070
           Y           -0.00867   0.99996   0.00294
           Z           -0.00068  -0.00294   1.00000
 This molecule is an asymmetric top.
 Rotational symmetry number  1.
 Warning -- assumption of classical behavior for rotation
           may cause significant error
 Rotational temperatures (Kelvin)      0.01937     0.00694     0.00523
 Rotational constants (GHZ):           0.40363     0.14455     0.10908
    6 imaginary frequencies ignored.
 Zero-point vibrational energy     974767.8 (Joules/Mol)
                                  232.97511 (Kcal/Mol)
 Warning -- explicit consideration of  33 degrees of freedom as
           vibrations may cause significant error
 Vibrational temperatures:     70.90    83.85   101.77   112.53   154.24
          (Kelvin)            166.41   200.35   237.88   281.31   283.13
                              329.64   381.56   389.47   410.82   433.50
                              449.13   456.54   464.92   483.35   520.10
                              533.23   576.98   584.94   621.72   627.85
                              680.71   715.07   722.88   768.52   794.90
                              821.30   837.78   877.64   913.05   969.86
                              990.50  1075.28  1083.69  1091.65  1106.00
                             1120.75  1228.00  1233.71  1323.25  1362.94
                             1387.63  1392.27  1419.59  1428.45  1456.13
                             1469.08  1488.02  1513.61  1531.90  1540.98
                             1546.68  1547.78  1580.57  1597.04  1602.56
                             1622.77  1629.36  1631.87  1641.40  1663.40
                             1668.93  1672.89  1689.96  1694.99  1746.08
                             1750.68  1786.27  1797.29  1805.40  1826.96
                             1852.13  1858.54  1864.77  1875.02  1881.23
                             1887.73  1900.17  1915.46  1920.10  1931.29
                             1946.05  1947.75  1953.31  1970.84  1985.45
                             1996.76  2000.31  2039.61  2065.20  2093.00
                             2107.16  2118.89  2130.33  2137.11  2142.11
                             2149.65  4656.90  4676.73  4688.16  4692.09
                             4698.81  4707.02  4710.85  4715.13  4716.99
                             4726.14  4729.00  4736.76  4739.75  4747.91
                             4756.69  4765.68  4821.88  4833.50  4842.61
                             4842.70  5596.60  5598.93

 Zero-point correction=                           0.371269 (Hartree/Particle)
 Thermal correction to Energy=                    0.390491
 Thermal correction to Enthalpy=                  0.391435
 Thermal correction to Gibbs Free Energy=         0.324476
 Sum of electronic and zero-point Energies=          -1297.595656
 Sum of electronic and thermal Energies=             -1297.576434
 Sum of electronic and thermal Enthalpies=           -1297.575490
 Sum of electronic and thermal Free Energies=        -1297.642450

                     E (Thermal)             CV                S
                      KCal/Mol        Cal/Mol-Kelvin    Cal/Mol-Kelvin
 Total                  245.037             78.047            140.929
 Electronic               0.000              0.000              0.000
 Translational            0.889              2.981             43.384
 Rotational               0.889              2.981             35.178
 Vibrational            243.259             72.085             62.366
 Vibration     1          0.595              1.978              4.846
 Vibration     2          0.596              1.974              4.515
 Vibration     3          0.598              1.968              4.133
 Vibration     4          0.600              1.964              3.935
 Vibration     5          0.606              1.943              3.319
 Vibration     6          0.608              1.936              3.172
 Vibration     7          0.615              1.914              2.814
 Vibration     8          0.624              1.885              2.488
 Vibration     9          0.636              1.846              2.175
 Vibration    10          0.636              1.844              2.163
 Vibration    11          0.652              1.797              1.886
 Vibration    12          0.671              1.737              1.627
 Vibration    13          0.674              1.727              1.592
 Vibration    14          0.683              1.701              1.500
 Vibration    15          0.693              1.671              1.410
 Vibration    16          0.701              1.651              1.351
 Vibration    17          0.704              1.641              1.324
 Vibration    18          0.708              1.629              1.294
 Vibration    19          0.717              1.604              1.231
 Vibration    20          0.736              1.552              1.116
 Vibration    21          0.743              1.533              1.077
 Vibration    22          0.767              1.468              0.959
 Vibration    23          0.771              1.456              0.939
 Vibration    24          0.793              1.400              0.852
 Vibration    25          0.797              1.391              0.838
 Vibration    26          0.830              1.310              0.729
 Vibration    27          0.853              1.257              0.666
 Vibration    28          0.858              1.245              0.652
 Vibration    29          0.889              1.174              0.578
 Vibration    30          0.908              1.134              0.539
 Vibration    31          0.927              1.094              0.503
 Vibration    32          0.939              1.070              0.481
 Vibration    33          0.969              1.011              0.433

 Normal termination of Gaussian 09 at Tue Mar 29 17:22:47 2016.
