 Gaussian 09, Revision B.01,
 Gaussian 09:  EM64L-G09RevB.01 12-Aug-2010

 ------------------------------------------------
 # freq=raman b3lyp/6-31+g(d,p) geom=connectivity
 ------------------------------------------------

 ------------
 400 5000.com
 ------------
 Symbolic Z-matrix:
 Charge =  0 Multiplicity = 1

                         Standard orientation:
 ---------------------------------------------------------------------
 Center     Atomic      Atomic             Coordinates (Angstroms)
 Number     Number       Type             X           Y           Z
 ---------------------------------------------------------------------
      1          8           0       -5.019364   -0.320106    0.570171
      2          6           0       -3.740956   -0.112941   -0.046049
      3          6           0       -3.249196    1.287646    0.283383
      4          8           0       -4.192633    2.246995   -0.213304
      5          1           0       -5.086735    1.811857   -0.110107
      6          6           0       -1.859966    1.545623   -0.278517
      7          8           0       -1.333014    2.775148    0.239356
      8          1           0       -0.575177    3.134894   -0.305637
      9          6           0       -2.933919   -2.606971   -0.023664
     10          8           0       -4.130061   -3.352624    0.244221
     11          1           0       -4.116611   -4.262176   -0.170227
     12          6           0       -2.745176   -1.163925    0.416991
     13          8           0       -1.489180   -0.875440   -0.213076
     14          6           0       -0.907675    0.408922    0.054330
     15          8           0        0.283978    0.527820   -0.736607
     16          6           0        1.442794    0.261099    0.067584
     17          6           0        2.049767   -1.011473   -0.499548
     18          8           0        1.068824   -2.058236   -0.495858
     19          1           0        0.313943   -1.644537   -1.004837
     20          6           0        3.309176   -1.542101    0.165810
     21          8           0        3.779487   -2.728449   -0.490887
     22          1           0        4.649996   -3.063092   -0.130865
     23          6           0        2.376320    2.660874    0.145166
     24          8           0        1.254722    3.379351   -0.388680
     25          1           0        1.243562    4.291279    0.022148
     26          6           0        2.626373    1.190230   -0.146940
     27          8           0        3.881562    0.801185    0.429675
     28          6           0        4.385851   -0.478251    0.021222
     29          8           0        5.384077   -0.701488    1.028002
     30          1           0       -5.702128   -0.329367   -0.104624
     31          1           0       -2.126423   -3.163602    0.404137
     32          1           0       -2.798131   -2.621041   -1.084919
     33          1           0       -2.636215   -1.119364    1.480496
     34          1           0       -3.855350   -0.194501   -1.106785
     35          1           0       -3.202353    1.384173    1.347990
     36          1           0       -1.933228    1.627833   -1.342836
     37          1           0       -0.646242    0.464842    1.090393
     38          1           0        6.249914   -0.746233    0.615782
     39          1           0        3.252952    3.187159   -0.170179
     40          1           0        2.318975    2.754310    1.209535
     41          1           0        2.796516    1.152968   -1.202669
     42          1           0        1.199671    0.153860    1.104064
     43          1           0        2.296185   -0.811435   -1.521391
     44          1           0        3.124250   -1.741401    1.200693
     45          1           0        4.805100   -0.452050   -0.962874
 ---------------------------------------------------------------------

 SCF Done:  E(RB3LYP) =  -1297.92610984     A.U. after   14 cycles

 The electronic state is 1-A.
 Alpha  occ. eigenvalues --  -19.20084 -19.19116 -19.18949 -19.18801 -19.18416
 Alpha  occ. eigenvalues --  -19.17954 -19.17021 -19.16242 -19.16143 -19.14613
 Alpha  occ. eigenvalues --  -19.14488 -10.31242 -10.30695 -10.26411 -10.26187
 Alpha  occ. eigenvalues --  -10.26085 -10.25573 -10.25414 -10.25202 -10.24611
 Alpha  occ. eigenvalues --  -10.24473 -10.24321 -10.23981  -1.10035  -1.09319
 Alpha  occ. eigenvalues --   -1.05847  -1.04947  -1.04400  -1.03336  -1.02774
 Alpha  occ. eigenvalues --   -1.02187  -1.01754  -1.00635  -1.00193  -0.82561
 Alpha  occ. eigenvalues --   -0.80052  -0.79325  -0.78650  -0.71991  -0.70053
 Alpha  occ. eigenvalues --   -0.67348  -0.65256  -0.62749  -0.62572  -0.61766
 Alpha  occ. eigenvalues --   -0.60176  -0.56883  -0.55561  -0.55087  -0.54510
 Alpha  occ. eigenvalues --   -0.53817  -0.53450  -0.53025  -0.51445  -0.51187
 Alpha  occ. eigenvalues --   -0.50766  -0.49994  -0.49733  -0.48779  -0.46760
 Alpha  occ. eigenvalues --   -0.46129  -0.44846  -0.44388  -0.43596  -0.42872
 Alpha  occ. eigenvalues --   -0.42388  -0.42135  -0.41184  -0.40334  -0.38840
 Alpha  occ. eigenvalues --   -0.38294  -0.38245  -0.37140  -0.37032  -0.35646
 Alpha  occ. eigenvalues --   -0.35394  -0.34457  -0.34029  -0.33947  -0.33364
 Alpha  occ. eigenvalues --   -0.32702  -0.31316  -0.30985  -0.30307  -0.29862
 Alpha  occ. eigenvalues --   -0.29466  -0.28427  -0.28389  -0.27513  -0.26384
 Alpha  occ. eigenvalues --   -0.26277
 Alpha virt. eigenvalues --   -0.02059  -0.01987  -0.01929  -0.00392   0.00228
 Alpha virt. eigenvalues --    0.00697   0.01886   0.02388   0.02937   0.03719
 Alpha virt. eigenvalues --    0.03845   0.04343   0.04779   0.05156   0.05756

 Mulliken atomic charges:
              1
     1  O   -0.516688
     2  C   -0.313766
     3  C    0.235804
     4  O   -0.494247
     5  H    0.333583
     6  C   -0.153032
     7  O   -0.506969
     8  H    0.405734
     9  C   -0.066422
    10  O   -0.554874
    11  H    0.354119
    12  C    0.210206
    13  O   -0.397164
    14  C    0.350607
    15  O   -0.306560
    16  C    0.125946
    17  C   -0.217587
    18  O   -0.445272
    19  H    0.377328
    20  C    0.154600
    21  O   -0.515101
    22  H    0.352455
    23  C   -0.181196
    24  O   -0.595428
    25  H    0.371322
    26  C    0.062099
    27  O   -0.319961
    28  C    0.173822
    29  O   -0.536766
    30  H    0.362169
    31  H    0.151491
    32  H    0.129588
    33  H    0.132525
    34  H    0.138254
    35  H    0.140803
    36  H    0.144159
    37  H    0.103562
    38  H    0.354944
    39  H    0.140224
    40  H    0.140500
    41  H    0.121186
    42  H    0.127079
    43  H    0.133332
    44  H    0.152339
    45  H    0.141254
 Sum of Mulliken atomic charges =   0.00000

 Dipole moment (field-independent basis, Debye):
    X=              3.0071    Y=              0.0917    Z=             -1.8081  Tot=              3.5100
 Quadrupole moment (field-independent basis, Debye-Ang):
   XX=           -114.6042   YY=           -137.4545   ZZ=           -141.1379
   XY=             10.8224   XZ=              5.4008   YZ=              2.5223

  Exact polarizability: 226.768  -1.480 193.229   2.099   1.356 141.571
 Approx polarizability: 264.022  -0.546 247.742   2.165   1.172 231.779

 ******    7 imaginary frequencies (negative Signs) ******

                     1                      2                      3
                     A                      A                      A
 Frequencies --  -311.9003              -302.0389              -277.7822
 Red. masses --     1.7425                 1.6705                 1.1661
 Frc consts  --     0.0999                 0.0898                 0.0530
 IR Inten    --     3.0735                27.2359                82.2075
 Raman Activ --     0.0629                 0.1041                 1.5086

                     4                      5                      6
                     A                      A                      A
 Frequencies --  -275.6795               -82.3936               -67.4711
 Red. masses --     1.2700                 6.9307                 6.1367
 Frc consts  --     0.0569                 0.0277                 0.0165
 IR Inten    --   124.0035                 0.4001                 0.7294
 Raman Activ --     0.5770                 0.1078                 0.0272

                     7                      8                      9
                     A                      A                      A
 Frequencies --   -40.8634                13.5131                38.8549
 Red. masses --     6.0350                 6.5736                 6.7111
 Frc consts  --     0.0059                 0.0007                 0.0060
 IR Inten    --     0.8125                 0.5612                 0.1016
 Raman Activ --     0.0867                 0.0226                 0.1025

                    10                     11                     12
                     A                      A                      A
 Frequencies --    57.4902                74.4630                99.7525
 Red. masses --     6.6706                 6.2452                 5.8375
 Frc consts  --     0.0130                 0.0204                 0.0342
 IR Inten    --     0.7450                 0.2705                 2.1230
 Raman Activ --     0.1101                 0.1156                 0.0731

                    13                     14                     15
                     A                      A                      A
 Frequencies --   149.3911               165.2965               180.6016
 Red. masses --     6.5507                 6.8811                 7.1675
 Frc consts  --     0.0861                 0.1108                 0.1377
 IR Inten    --     1.0411                 0.3275                 1.7389
 Raman Activ --     0.2927                 0.5294                 0.8943

                    16                     17                     18
                     A                      A                      A
 Frequencies --   205.0423               222.0576               254.1955
 Red. masses --     6.2838                 5.8675                 4.1491
 Frc consts  --     0.1557                 0.1705                 0.1580
 IR Inten    --     2.3792                 4.3739                19.2005
 Raman Activ --     1.4787                 0.3853                 0.0919

                    19                     20                     21
                     A                      A                      A
 Frequencies --   278.2600               290.6657               304.7104
 Red. masses --     4.9035                 5.2832                 4.5772
 Frc consts  --     0.2237                 0.2630                 0.2504
 IR Inten    --     2.9946                 2.4245                 3.2839
 Raman Activ --     0.3173                 0.5573                 1.5390

                    22                     23                     24
                     A                      A                      A
 Frequencies --   313.0532               317.9013               333.4497
 Red. masses --     5.8985                 5.0692                 5.8832
 Frc consts  --     0.3406                 0.3018                 0.3854
 IR Inten    --     2.9524                 2.2568                 0.9716
 Raman Activ --     1.8284                 1.6142                 4.4133

                    25                     26                     27
                     A                      A                      A
 Frequencies --   339.3034               360.5750               389.8968
 Red. masses --     5.8188                 4.6445                 8.1414
 Frc consts  --     0.3947                 0.3558                 0.7292
 IR Inten    --    11.3559                 7.9398                 1.1614
 Raman Activ --     2.1481                 0.3786                 2.1540

                    28                     29                     30
                     A                      A                      A
 Frequencies --   407.3858               419.1720               428.3956
 Red. masses --     5.6396                 3.9026                 6.3237
 Frc consts  --     0.5515                 0.4040                 0.6838
 IR Inten    --     8.3878                20.3276                 0.4578
 Raman Activ --     3.3297                 3.6791                 1.5676

                    31                     32                     33
                     A                      A                      A
 Frequencies --   451.7794               477.3859               486.6166
 Red. masses --     4.5404                 4.7593                 3.5983
 Frc consts  --     0.5460                 0.6390                 0.5020
 IR Inten    --     1.9799                 8.9502                12.4601
 Raman Activ --     1.1450                 1.4072                 2.6810

                    34                     35                     36
                     A                      A                      A
 Frequencies --   511.3368               540.9404               575.2951
 Red. masses --     4.7649                 2.9686                 4.1064
 Frc consts  --     0.7340                 0.5118                 0.8007
 IR Inten    --     4.4756                13.6246                27.3219
 Raman Activ --     4.4272                 2.3385                 1.9631

                    37                     38                     39
                     A                      A                      A
 Frequencies --   598.3554               602.1133               621.4655
 Red. masses --     3.0075                 6.3605                 5.9914
 Frc consts  --     0.6344                 1.3586                 1.3634
 IR Inten    --    43.1517                21.8953                46.8483
 Raman Activ --     0.3063                 0.8512                 0.6069

                    40                     41                     42
                     A                      A                      A
 Frequencies --   641.3783               646.4900               659.9138
 Red. masses --     1.0605                 3.6495                 1.1064
 Frc consts  --     0.2570                 0.8987                 0.2839
 IR Inten    --   102.4487                20.8568               190.9085
 Raman Activ --     2.2888                 0.6672                 2.4642

                    43                     44                     45
                     A                      A                      A
 Frequencies --   673.4128               675.0412               719.8441
 Red. masses --     2.7951                 1.2423                 1.0913
 Frc consts  --     0.7468                 0.3335                 0.3332
 IR Inten    --    36.8873                96.4563               106.8641
 Raman Activ --     0.3553                 2.8693                 1.7517

                    46                     47                     48
                     A                      A                      A
 Frequencies --   721.7376               790.4119               847.6733
 Red. masses --     1.0919                 1.1048                 1.7973
 Frc consts  --     0.3351                 0.4067                 0.7609
 IR Inten    --   113.6239               172.4166                 2.2271
 Raman Activ --     3.1370                 4.8871                 1.5120

                    49                     50                     51
                     A                      A                      A
 Frequencies --   873.1172               939.3220               959.5899
 Red. masses --     1.7657                 5.2644                 6.0129
 Frc consts  --     0.7931                 2.7367                 3.2622
 IR Inten    --     3.9126               137.6990                14.7700
 Raman Activ --     1.1298                 4.0858                 0.5191

                    52                     53                     54
                     A                      A                      A
 Frequencies --   985.2330               990.4897              1000.5109
 Red. masses --     5.0825                 5.0750                 4.6900
 Frc consts  --     2.9067                 2.9335                 2.7661
 IR Inten    --    53.3951               182.3454                92.6710
 Raman Activ --     1.5423                 3.5311                 1.0082

                    55                     56                     57
                     A                      A                      A
 Frequencies --  1010.3259              1018.0957              1031.4036
 Red. masses --     4.8017                 6.2530                 5.2581
 Frc consts  --     2.8878                 3.8187                 3.2956
 IR Inten    --   193.0017                49.2708                29.8223
 Raman Activ --     1.2444                 1.5566                 5.2758

                    58                     59                     60
                     A                      A                      A
 Frequencies --  1042.8633              1054.2705              1064.5482
 Red. masses --     4.0909                 2.6916                 2.8236
 Frc consts  --     2.6214                 1.7627                 1.8853
 IR Inten    --   456.3542                89.3046                 8.8128
 Raman Activ --     2.6945                 7.0157                 2.6478

                    61                     62                     63
                     A                      A                      A
 Frequencies --  1075.5350              1083.3072              1089.3790
 Red. masses --     3.4073                 5.5739                 3.3712
 Frc consts  --     2.3223                 3.8540                 2.3572
 IR Inten    --    94.9863                15.5932               135.2910
 Raman Activ --     4.1886                 0.7915                 4.9627

                    64                     65                     66
                     A                      A                      A
 Frequencies --  1098.3371              1103.6343              1106.1017
 Red. masses --     2.9638                 3.0445                 2.5181
 Frc consts  --     2.1066                 2.1848                 1.8151
 IR Inten    --    84.2829                32.4005               139.8001
 Raman Activ --     5.4074                24.4050                 4.4953

                    67                     68                     69
                     A                      A                      A
 Frequencies --  1108.7699              1119.2725              1135.7534
 Red. masses --     2.6966                 3.0780                 2.8259
 Frc consts  --     1.9532                 2.2719                 2.1477
 IR Inten    --    15.1069                48.1140                36.9910
 Raman Activ --     6.6491                 3.2177                 3.0923

                    70                     71                     72
                     A                      A                      A
 Frequencies --  1141.4286              1151.0390              1156.1814
 Red. masses --     2.0471                 1.8741                 2.5875
 Frc consts  --     1.5714                 1.4629                 2.0379
 IR Inten    --    22.8473                36.3367                15.5899
 Raman Activ --     4.5661                 2.5238                 8.9954

                    73                     74                     75
                     A                      A                      A
 Frequencies --  1169.4414              1180.0221              1196.6123
 Red. masses --     1.6174                 2.2625                 1.7927
 Frc consts  --     1.3032                 1.8561                 1.5124
 IR Inten    --    19.7406                 0.8055                 5.7799
 Raman Activ --     1.6165                 1.3159                 4.6974

                    76                     77                     78
                     A                      A                      A
 Frequencies --  1206.1572              1215.5816              1229.5460
 Red. masses --     1.3031                 1.5790                 1.3184
 Frc consts  --     1.1169                 1.3747                 1.1744
 IR Inten    --    11.7605                13.2502                 3.1706
 Raman Activ --     2.3387                 2.8414                 0.4779

                    79                     80                     81
                     A                      A                      A
 Frequencies --  1233.4515              1242.8225              1254.7694
 Red. masses --     1.2545                 1.4348                 1.3481
 Frc consts  --     1.1245                 1.3058                 1.2505
 IR Inten    --    22.2867                39.4543                10.2760
 Raman Activ --     2.0139                 3.8541                 2.0854

                    82                     83                     84
                     A                      A                      A
 Frequencies --  1263.9346              1284.3175              1294.9956
 Red. masses --     1.2392                 1.3546                 1.2696
 Frc consts  --     1.1664                 1.3165                 1.2545
 IR Inten    --     2.2898                20.4528                 2.4103
 Raman Activ --     0.9142                 1.5967                 3.8945

                    85                     86                     87
                     A                      A                      A
 Frequencies --  1297.9315              1300.9715              1307.1199
 Red. masses --     1.1803                 1.2780                 1.2366
 Frc consts  --     1.1716                 1.2745                 1.2448
 IR Inten    --    60.1492                13.6795                11.9784
 Raman Activ --     2.9167                 8.8046                 2.8049

                    88                     89                     90
                     A                      A                      A
 Frequencies --  1313.9663              1317.1834              1328.3420
 Red. masses --     1.2657                 1.1848                 1.3073
 Frc consts  --     1.2875                 1.2111                 1.3590
 IR Inten    --    38.8343                32.4955                 0.1291
 Raman Activ --     2.7760                 6.2936                 3.0741

                    91                     92                     93
                     A                      A                      A
 Frequencies --  1333.1209              1341.0653              1355.6220
 Red. masses --     1.2271                 1.3036                 1.3416
 Frc consts  --     1.2849                 1.3813                 1.4526
 IR Inten    --    14.9916                29.6869                13.8551
 Raman Activ --     8.0394                 5.0652                 4.1148

                    94                     95                     96
                     A                      A                      A
 Frequencies --  1362.0313              1365.9404              1372.3260
 Red. masses --     1.4429                 1.4382                 1.2352
 Frc consts  --     1.5771                 1.5810                 1.3706
 IR Inten    --     2.7793                 1.7560                44.6705
 Raman Activ --     5.6377                 6.6744                 3.9528

                    97                     98                     99
                     A                      A                      A
 Frequencies --  1392.6839              1401.6984              1407.1308
 Red. masses --     1.7021                 1.6253                 1.3557
 Frc consts  --     1.9451                 1.8815                 1.5816
 IR Inten    --    35.2942                 2.4373                 7.5013
 Raman Activ --     1.8881                 2.4750                12.8831

                   100                    101                    102
                     A                      A                      A
 Frequencies --  1434.2408              1438.2396              1450.2676
 Red. masses --     1.3383                 1.3385                 1.4018
 Frc consts  --     1.6220                 1.6313                 1.7372
 IR Inten    --     9.7934                44.1758                 2.9701
 Raman Activ --     2.6804                 4.6313                 2.1442

                   103                    104                    105
                     A                      A                      A
 Frequencies --  1458.3863              1481.8011              1485.8159
 Red. masses --     1.4418                 1.1283                 1.0828
 Frc consts  --     1.8067                 1.4597                 1.4084
 IR Inten    --    31.1888                 4.1063                 2.4569
 Raman Activ --     0.8033                 4.6216                 5.5944

                   106                    107                    108
                     A                      A                      A
 Frequencies --  1490.1031              1492.9388              3257.9049
 Red. masses --     1.2997                 1.3258                 1.0813
 Frc consts  --     1.7003                 1.7411                 6.7619
 IR Inten    --    25.9154                40.6203                 4.0426
 Raman Activ --     2.4182                 0.5700                34.3910

                   109                    110                    111
                     A                      A                      A
 Frequencies --  3268.0032              3268.8572              3282.5097
 Red. masses --     1.0598                 1.0585                 1.0829
 Frc consts  --     6.6685                 6.6637                 6.8744
 IR Inten    --    69.0784                31.5521                17.6421
 Raman Activ --    98.2702                72.2740                79.2524

                   112                    113                    114
                     A                      A                      A
 Frequencies --  3289.6364              3291.3679              3293.0304
 Red. masses --     1.0852                 1.0836                 1.0851
 Frc consts  --     6.9192                 6.9165                 6.9331
 IR Inten    --     4.2757                 2.7338                 2.4348
 Raman Activ --     3.7559               150.6629                90.6661

                   115                    116                    117
                     A                      A                      A
 Frequencies --  3302.4196              3308.5220              3311.7399
 Red. masses --     1.0870                 1.0861                 1.0882
 Frc consts  --     6.9848                 7.0047                 7.0318
 IR Inten    --     6.5693                 0.1935                22.5686
 Raman Activ --    32.9759                57.3100                66.9615

                   118                    119                    120
                     A                      A                      A
 Frequencies --  3315.1855              3318.2166              3321.3752
 Red. masses --     1.0892                 1.0994                 1.0910
 Frc consts  --     7.0531                 7.1319                 7.0908
 IR Inten    --    17.3637                 3.5234                86.9913
 Raman Activ --    47.6577                47.5150                24.7253

                   121                    122                    123
                     A                      A                      A
 Frequencies --  3323.8580              3347.8835              3383.5396
 Red. masses --     1.1025                 1.0679                 1.0647
 Frc consts  --     7.1766                 7.0521                 7.1817
 IR Inten    --    80.2956               439.4274               135.9492
 Raman Activ --    28.0529               192.9191                83.5570

                   124                    125                    126
                     A                      A                      A
 Frequencies --  3385.9702              3386.4777              3392.4623
 Red. masses --     1.0648                 1.0665                 1.0678
 Frc consts  --     7.1928                 7.2062                 7.2408
 IR Inten    --    29.1865                78.5494                51.3983
 Raman Activ --   104.6771               109.4588               170.0896

                   127                    128                    129
                     A                      A                      A
 Frequencies --  3393.6542              3914.5964              3919.7375
 Red. masses --     1.0670                 1.0679                 1.0676
 Frc consts  --     7.2400                 9.6413                 9.6640
 IR Inten    --    35.5904                64.3658                59.8091
 Raman Activ --   181.8007                91.9648               138.8817

 - Thermochemistry -
 -------------------
 Temperature   298.150 Kelvin.  Pressure   1.00000 Atm.
 Atom     1 has atomic number  8 and mass  15.99491

 Molecular mass:   342.11621 amu.
 Principal axes and moments of inertia in atomic units:
                           1         2         3
     Eigenvalues --  4531.84266********************
           X            0.99998   0.00675   0.00030
           Y           -0.00675   0.99997   0.00244
           Z           -0.00028  -0.00245   1.00000
 This molecule is an asymmetric top.
 Rotational symmetry number  1.
 Warning -- assumption of classical behavior for rotation
           may cause significant error
 Rotational temperatures (Kelvin)      0.01911     0.00702     0.00530
 Rotational constants (GHZ):           0.39824     0.14632     0.11053
    7 imaginary frequencies ignored.
 Zero-point vibrational energy     976156.7 (Joules/Mol)
                                  233.30705 (Kcal/Mol)
 Warning -- explicit consideration of  31 degrees of freedom as
           vibrations may cause significant error
 Vibrational temperatures:     19.44    55.90    82.72   107.14   143.52
          (Kelvin)            214.94   237.82   259.85   295.01   319.49
                              365.73   400.35   418.20   438.41   450.41
                              457.39   479.76   488.18   518.79   560.97
                              586.14   603.09   616.36   650.01   686.85
                              700.13   735.70   778.29   827.72   860.90
                              866.31   894.15   922.80   930.15   949.47
                              968.89   971.23  1035.69  1038.42  1137.23
                             1219.61  1256.22  1351.47  1380.63  1417.53
                             1425.09  1439.51  1453.63  1464.81  1483.96
                             1500.45  1516.86  1531.65  1547.45  1558.64
                             1567.37  1580.26  1587.88  1591.43  1595.27
                             1610.38  1634.09  1642.26  1656.09  1663.49
                             1682.56  1697.79  1721.66  1735.39  1748.95
                             1769.04  1774.66  1788.14  1805.33  1818.52
                             1847.84  1863.21  1867.43  1871.81  1880.65
                             1890.50  1895.13  1911.19  1918.06  1929.49
                             1950.44  1959.66  1965.28  1974.47  2003.76
                             2016.73  2024.54  2063.55  2069.30  2086.61
                             2098.29  2131.98  2137.75  2143.92  2148.00
                             4687.39  4701.92  4703.15  4722.79  4733.05
                             4735.54  4737.93  4751.44  4760.22  4764.85
                             4769.81  4774.17  4778.71  4782.28  4816.85
                             4868.15  4871.65  4872.38  4880.99  4882.71
                             5632.22  5639.62

 Zero-point correction=                           0.371798 (Hartree/Particle)
 Thermal correction to Energy=                    0.390455
 Thermal correction to Enthalpy=                  0.391399
 Thermal correction to Gibbs Free Energy=         0.324127
 Sum of electronic and zero-point Energies=          -1297.554311
 Sum of electronic and thermal Energies=             -1297.535655
 Sum of electronic and thermal Enthalpies=           -1297.534710
 Sum of electronic and thermal Free Energies=        -1297.601983

                     E (Thermal)             CV                S
                      KCal/Mol        Cal/Mol-Kelvin    Cal/Mol-Kelvin
 Total                  245.014             76.253            141.587
 Electronic               0.000              0.000              0.000
 Translational            0.889              2.981             43.384
 Rotational               0.889              2.981             35.166
 Vibrational            243.237             70.292             63.037
 Vibration     1          0.593              1.987              7.413
 Vibration     2          0.594              1.981              5.317
 Vibration     3          0.596              1.975              4.542
 Vibration     4          0.599              1.966              4.032
 Vibration     5          0.604              1.949              3.459
 Vibration     6          0.618              1.903              2.680
 Vibration     7          0.624              1.885              2.488
 Vibration     8          0.630              1.866              2.322
 Vibration     9          0.640              1.833              2.087
 Vibration    10          0.648              1.807              1.942
 Vibration    11          0.665              1.756              1.701
 Vibration    12          0.679              1.714              1.544
 Vibration    13          0.687              1.691              1.470
 Vibration    14          0.696              1.665              1.391
 Vibration    15          0.701              1.649              1.346
 Vibration    16          0.704              1.639              1.321
 Vibration    17          0.715              1.609              1.243
 Vibration    18          0.719              1.597              1.215
 Vibration    19          0.735              1.553              1.120
 Vibration    20          0.758              1.492              1.001
 Vibration    21          0.772              1.454              0.936
 Vibration    22          0.782              1.429              0.895
 Vibration    23          0.790              1.408              0.864
 Vibration    24          0.810              1.357              0.790
 Vibration    25          0.834              1.300              0.717
 Vibration    26          0.843              1.280              0.692
 Vibration    27          0.866              1.225              0.630
 Vibration    28          0.896              1.160              0.563
 Vibration    29          0.932              1.085              0.494
 Vibration    30          0.956              1.035              0.452
 Vibration    31          0.960              1.027              0.446

 Normal termination of Gaussian 09 at Tue Mar  1 15:58:47 2016.
