 Gaussian 09, Revision B.01,
 Gaussian 09:  EM64L-G09RevB.01 12-Aug-2010

 ------------------------------------------------
 # freq=raman b3lyp/6-31+g(d,p) geom=connectivity
 ------------------------------------------------

 ------------
 280 7000.com
 ------------
 Symbolic Z-matrix:
 Charge =  0 Multiplicity = 1

                         Standard orientation:
 ---------------------------------------------------------------------
 Center     Atomic      Atomic             Coordinates (Angstroms)
 Number     Number       Type             X           Y           Z
 ---------------------------------------------------------------------
      1          8           0       -5.022650    0.276836   -0.540438
      2          6           0       -3.826017    0.060074    0.211881
      3          6           0       -3.197820   -1.274609   -0.155776
      4          8           0       -4.209531   -2.224899    0.210600
      5          1           0       -5.042717   -1.937381   -0.261859
      6          6           0       -1.818125   -1.585532    0.400912
      7          8           0       -1.270380   -2.720004   -0.285277
      8          1           0       -0.281715   -2.695106   -0.135806
      9          6           0       -3.061485    2.496392    0.272235
     10          8           0       -4.057484    3.316176   -0.357338
     11          1           0       -3.791476    4.280132   -0.345111
     12          6           0       -2.761627    1.074488   -0.172988
     13          8           0       -1.437123    0.813804    0.314490
     14          6           0       -0.865886   -0.467243    0.009602
     15          8           0        0.419865   -0.597811    0.632113
     16          6           0        1.561189   -0.161367   -0.120253
     17          6           0        1.896947    1.261166    0.296954
     18          8           0        0.966186    2.262469   -0.139227
     19          1           0        0.043980    1.951968    0.088239
     20          6           0        3.321874    1.472014   -0.189122
     21          8           0        3.780730    2.744304    0.289753
     22          1           0        4.740979    2.907313    0.062296
     23          6           0        2.335017   -2.619574   -0.349949
     24          8           0        1.135070   -3.197350    0.186772
     25          1           0        1.336958   -4.166930    0.046146
     26          6           0        2.605737   -1.222460    0.183348
     27          8           0        3.927102   -0.898497   -0.274286
     28          6           0        4.318012    0.395430    0.208592
     29          8           0        5.543870    0.565182   -0.516751
     30          1           0        6.244589    0.810190    0.091989
     31          1           0        4.487741    0.384116    1.264984
     32          1           0        3.297980    1.513553   -1.258048
     33          1           0        1.914088    1.287384    1.366495
     34          1           0        1.327723   -0.180269   -1.164301
     35          1           0        2.657032   -1.302909    1.249085
     36          1           0        3.162650   -3.250097   -0.100218
     37          1           0        2.247368   -2.570782   -1.415236
     38          1           0       -0.722044   -0.517233   -1.049507
     39          1           0       -1.839204   -1.735217    1.460180
     40          1           0       -3.113144   -1.298522   -1.222152
     41          1           0       -4.026428    0.105039    1.261983
     42          1           0       -2.709448    1.081263   -1.241694
     43          1           0       -5.724342    0.561769    0.049513
     44          1           0       -2.139469    3.035621    0.208847
     45          1           0       -3.323245    2.441728    1.308282
 ---------------------------------------------------------------------

 SCF Done:  E(RB3LYP) =  -1297.94003490     A.U. after   13 cycles

 The electronic state is 1-A.
 Alpha  occ. eigenvalues --  -19.20532 -19.19348 -19.19317 -19.19161 -19.18891
 Alpha  occ. eigenvalues --  -19.18552 -19.16953 -19.16950 -19.15637 -19.15058
 Alpha  occ. eigenvalues --  -19.13018 -10.31559 -10.30973 -10.26593 -10.26385
 Alpha  occ. eigenvalues --  -10.26289 -10.25741 -10.25472 -10.25360 -10.25201
 Alpha  occ. eigenvalues --  -10.24628 -10.24265 -10.24193  -1.10123  -1.09505
 Alpha  occ. eigenvalues --   -1.07066  -1.05997  -1.04642  -1.03628  -1.02883
 Alpha  occ. eigenvalues --   -1.02401  -1.01584  -1.01108  -0.99819  -0.82590
 Alpha  occ. eigenvalues --   -0.80345  -0.79794  -0.78320  -0.72060  -0.69959
 Alpha  occ. eigenvalues --   -0.68057  -0.65278  -0.63906  -0.62526  -0.61510
 Alpha  occ. eigenvalues --   -0.60127  -0.57390  -0.56415  -0.55369  -0.55226
 Alpha  occ. eigenvalues --   -0.54326  -0.53534  -0.53183  -0.52237  -0.51324
 Alpha  occ. eigenvalues --   -0.50706  -0.50409  -0.49946  -0.48591  -0.46902
 Alpha  occ. eigenvalues --   -0.45850  -0.45452  -0.45059  -0.43803  -0.43488
 Alpha  occ. eigenvalues --   -0.42701  -0.41800  -0.41355  -0.40499  -0.39765
 Alpha  occ. eigenvalues --   -0.39502  -0.38636  -0.38105  -0.36816  -0.36005
 Alpha  occ. eigenvalues --   -0.35224  -0.34952  -0.34511  -0.33788  -0.33623
 Alpha  occ. eigenvalues --   -0.32850  -0.31740  -0.30978  -0.30476  -0.30029
 Alpha  occ. eigenvalues --   -0.29277  -0.28687  -0.28642  -0.27532  -0.27122
 Alpha  occ. eigenvalues --   -0.25923
 Alpha virt. eigenvalues --   -0.02297  -0.02193  -0.01710  -0.00143   0.00258
 Alpha virt. eigenvalues --    0.00848   0.01783   0.02220   0.03006   0.03604
 Alpha virt. eigenvalues --    0.03718   0.04142   0.05068   0.05240   0.05484

 Mulliken atomic charges:
              1
     1  O   -0.553144
     2  C   -0.151570
     3  C    0.066866
     4  O   -0.507861
     5  H    0.360779
     6  C   -0.024726
     7  O   -0.576433
     8  H    0.490899
     9  C   -0.188377
    10  O   -0.548729
    11  H    0.360536
    12  C    0.360634
    13  O   -0.433826
    14  C    0.073389
    15  O   -0.332257
    16  C    0.226326
    17  C   -0.125107
    18  O   -0.519345
    19  H    0.411298
    20  C    0.180328
    21  O   -0.519882
    22  H    0.346054
    23  C   -0.006361
    24  O   -0.588288
    25  H    0.389843
    26  C   -0.213815
    27  O   -0.308740
    28  C    0.198896
    29  O   -0.549755
    30  H    0.359609
    31  H    0.133875
    32  H    0.152406
    33  H    0.143838
    34  H    0.134574
    35  H    0.140697
    36  H    0.145820
    37  H    0.153834
    38  H    0.122608
    39  H    0.143547
    40  H    0.141637
    41  H    0.139337
    42  H    0.140292
    43  H    0.374233
    44  H    0.126100
    45  H    0.129961
 Sum of Mulliken atomic charges =   0.00000

 Dipole moment (field-independent basis, Debye):
    X=              3.0704    Y=              0.0709    Z=              1.8850  Tot=              3.6035
 Quadrupole moment (field-independent basis, Debye-Ang):
   XX=           -118.8816   YY=           -138.6225   ZZ=           -140.0512
   XY=            -15.5620   XZ=              2.2682   YZ=              3.4457

  Exact polarizability: 230.151  -0.051 191.258  -0.304   1.148 141.027
 Approx polarizability: 268.176  -1.903 246.409  -1.235   1.328 230.187

 ******    8 imaginary frequencies (negative Signs) ******

                     1                      2                      3
                     A                      A                      A
 Frequencies --  -312.8870              -274.2674              -241.6753
 Red. masses --     1.6687                 1.1836                 1.1375
 Frc consts  --     0.0963                 0.0525                 0.0391
 IR Inten    --     8.8556               115.7952               116.2813
 Raman Activ --     0.1432                 1.1093                 0.8417

                     4                      5                      6
                     A                      A                      A
 Frequencies --  -219.8370               -88.4694               -58.4892
 Red. masses --     1.9029                 6.8995                 6.1108
 Frc consts  --     0.0542                 0.0318                 0.0123
 IR Inten    --     0.7498                 2.3484                 0.0825
 Raman Activ --     0.0971                 0.0310                 0.0211

                     7                      8                      9
                     A                      A                      A
 Frequencies --   -52.0038                -5.8706                63.5292
 Red. masses --     6.6421                 6.3003                 6.3662
 Frc consts  --     0.0106                 0.0001                 0.0151
 IR Inten    --     0.2127                 1.1912                 4.5002
 Raman Activ --     0.0348                 0.0179                 0.0815

                    10                     11                     12
                     A                      A                      A
 Frequencies --    68.6997                85.9152               108.4673
 Red. masses --     6.5301                 6.3357                 5.8329
 Frc consts  --     0.0182                 0.0276                 0.0404
 IR Inten    --     1.4188                 0.6887                 1.2325
 Raman Activ --     0.1316                 0.3411                 0.0609

                    13                     14                     15
                     A                      A                      A
 Frequencies --   152.5401               175.1190               186.2550
 Red. masses --     6.2083                 5.9162                 7.9768
 Frc consts  --     0.0851                 0.1069                 0.1630
 IR Inten    --     2.4751                 0.8746                 1.6649
 Raman Activ --     0.3370                 0.1071                 0.8422

                    16                     17                     18
                     A                      A                      A
 Frequencies --   218.0001               232.9898               264.0986
 Red. masses --     7.5036                 5.3267                 4.6328
 Frc consts  --     0.2101                 0.1704                 0.1904
 IR Inten    --     1.0595                 3.6469                18.8339
 Raman Activ --     3.2237                 0.1559                 0.4480

                    19                     20                     21
                     A                      A                      A
 Frequencies --   285.8649               295.3908               300.5683
 Red. masses --     4.7571                 4.7343                 5.8396
 Frc consts  --     0.2290                 0.2434                 0.3108
 IR Inten    --     2.9601                 0.3038                 2.9620
 Raman Activ --     0.1920                 0.6360                 0.3111

                    22                     23                     24
                     A                      A                      A
 Frequencies --   312.2949               323.4169               327.3260
 Red. masses --     5.5045                 6.5445                 5.9322
 Frc consts  --     0.3163                 0.4033                 0.3745
 IR Inten    --    12.5836                 3.8865                 3.1008
 Raman Activ --     0.2085                 4.1200                 2.6100

                    25                     26                     27
                     A                      A                      A
 Frequencies --   355.2288               364.9450               383.7503
 Red. masses --     5.1816                 4.8353                 5.3965
 Frc consts  --     0.3852                 0.3794                 0.4682
 IR Inten    --    10.3392                 2.2001                 2.9737
 Raman Activ --     1.1874                 0.9715                 0.8896

                    28                     29                     30
                     A                      A                      A
 Frequencies --   413.9914               429.8434               434.5282
 Red. masses --     4.5785                 6.5114                 4.9226
 Frc consts  --     0.4623                 0.7088                 0.5476
 IR Inten    --    11.8447                 2.2042                12.8327
 Raman Activ --     7.5377                 5.7813                 3.2775

                    31                     32                     33
                     A                      A                      A
 Frequencies --   448.0432               479.8837               500.1690
 Red. masses --     5.3022                 4.6180                 3.6914
 Frc consts  --     0.6271                 0.6266                 0.5441
 IR Inten    --     2.3274                12.7316                16.8666
 Raman Activ --     1.3895                 0.3535                 0.3032

                    34                     35                     36
                     A                      A                      A
 Frequencies --   506.5178               538.3675               569.6282
 Red. masses --     4.1458                 3.4542                 3.5375
 Frc consts  --     0.6267                 0.5899                 0.6763
 IR Inten    --     1.9143                 6.5325                 8.9028
 Raman Activ --     3.8236                 3.7295                 1.2426

                    37                     38                     39
                     A                      A                      A
 Frequencies --   586.2835               612.0500               624.3229
 Red. masses --     2.6902                 4.8723                 3.6983
 Frc consts  --     0.5448                 1.0754                 0.8493
 IR Inten    --    55.1443                14.5181                14.2069
 Raman Activ --     0.1981                 0.4205                 0.5058

                    40                     41                     42
                     A                      A                      A
 Frequencies --   632.2565               643.3094               689.5820
 Red. masses --     3.5113                 1.3462                 5.3536
 Frc consts  --     0.8270                 0.3282                 1.4999
 IR Inten    --    12.5619               120.1117                 6.6293
 Raman Activ --     0.9505                 1.7814                 0.8324

                    43                     44                     45
                     A                      A                      A
 Frequencies --   717.0232               756.5769               757.7768
 Red. masses --     1.0612                 1.0742                 1.1377
 Frc consts  --     0.3215                 0.3623                 0.3849
 IR Inten    --    96.8683                99.1366               112.9401
 Raman Activ --     2.1932                 1.7504                 1.8787

                    46                     47                     48
                     A                      A                      A
 Frequencies --   775.7872               843.0317               860.7425
 Red. masses --     1.0567                 1.7791                 1.5098
 Frc consts  --     0.3747                 0.7450                 0.6591
 IR Inten    --   100.7204                 4.1286                 5.0721
 Raman Activ --     1.0886                 0.7376                 0.3504

                    49                     50                     51
                     A                      A                      A
 Frequencies --   904.4954               935.7912               971.5480
 Red. masses --     1.1682                 6.1208                 5.0771
 Frc consts  --     0.5631                 3.1581                 2.8236
 IR Inten    --    97.2155                97.0571               144.5448
 Raman Activ --     0.3787                 2.7164                 0.6868

                    52                     53                     54
                     A                      A                      A
 Frequencies --   983.6745               992.9269              1009.9675
 Red. masses --     4.2311                 4.6511                 6.3023
 Frc consts  --     2.4122                 2.7017                 3.7876
 IR Inten    --    40.2841                23.0731                53.1861
 Raman Activ --     2.8043                 2.5154                 1.9983

                    55                     56                     57
                     A                      A                      A
 Frequencies --  1020.0822              1026.1064              1035.7291
 Red. masses --     6.7317                 5.6007                 5.6953
 Frc consts  --     4.1271                 3.4744                 3.5997
 IR Inten    --   402.3631                17.7257               117.9912
 Raman Activ --     0.9636                 1.7359                 2.6854

                    58                     59                     60
                     A                      A                      A
 Frequencies --  1043.5013              1065.5946              1073.3384
 Red. masses --     3.8969                 3.4644                 4.4835
 Frc consts  --     2.5001                 2.3177                 3.0433
 IR Inten    --   177.1498               229.3915                27.9995
 Raman Activ --     2.5586                11.3532                 5.9918

                    61                     62                     63
                     A                      A                      A
 Frequencies --  1076.2054              1084.0525              1093.2595
 Red. masses --     3.7122                 3.9928                 5.0413
 Frc consts  --     2.5332                 2.7646                 3.5501
 IR Inten    --    33.1666               162.5203                11.1000
 Raman Activ --     4.7829                 1.0441                 2.1326

                    64                     65                     66
                     A                      A                      A
 Frequencies --  1101.9403              1108.2629              1112.2926
 Red. masses --     2.6299                 2.9491                 2.8424
 Frc consts  --     1.8815                 2.1341                 2.0719
 IR Inten    --    81.4846                 5.7212                26.9673
 Raman Activ --    13.2246                 9.7623                 8.3068

                    67                     68                     69
                     A                      A                      A
 Frequencies --  1118.4142              1128.9128              1133.8774
 Red. masses --     2.4360                 3.0005                 2.1362
 Frc consts  --     1.7953                 2.2530                 1.6182
 IR Inten    --    97.5411                51.9107                63.7393
 Raman Activ --     4.6022                 1.2444                 9.0067

                    70                     71                     72
                     A                      A                      A
 Frequencies --  1146.6157              1151.0952              1158.3419
 Red. masses --     2.0427                 1.9390                 2.4593
 Frc consts  --     1.5823                 1.5138                 1.9442
 IR Inten    --     1.0317                20.3027                 8.4965
 Raman Activ --     5.8993                 4.0765                 4.1885

                    73                     74                     75
                     A                      A                      A
 Frequencies --  1163.1038              1175.5650              1180.8668
 Red. masses --     1.9861                 1.6209                 1.7693
 Frc consts  --     1.5830                 1.3198                 1.4536
 IR Inten    --    16.1531                 3.4634                15.4278
 Raman Activ --     1.4301                 1.2035                 4.0152

                    76                     77                     78
                     A                      A                      A
 Frequencies --  1209.6066              1212.4490              1213.7566
 Red. masses --     1.3634                 1.4720                 1.4336
 Frc consts  --     1.1753                 1.2749                 1.2443
 IR Inten    --    24.0293                19.7145                 4.1129
 Raman Activ --     1.2257                 4.1191                 0.5366

                    79                     80                     81
                     A                      A                      A
 Frequencies --  1230.7691              1242.7382              1253.8973
 Red. masses --     1.3345                 1.3410                 1.3089
 Frc consts  --     1.1910                 1.2202                 1.2125
 IR Inten    --    10.0144                 6.3442                 9.3188
 Raman Activ --     0.6508                 0.9807                 1.8417

                    82                     83                     84
                     A                      A                      A
 Frequencies --  1273.2507              1277.5251              1283.1022
 Red. masses --     1.2375                 1.3053                 1.2437
 Frc consts  --     1.1820                 1.2551                 1.2064
 IR Inten    --    18.8842                14.8809                 3.0022
 Raman Activ --     0.4761                 4.2045                 2.6145

                    85                     86                     87
                     A                      A                      A
 Frequencies --  1295.1306              1299.3853              1307.5173
 Red. masses --     1.2591                 1.2490                 1.2020
 Frc consts  --     1.2444                 1.2425                 1.2108
 IR Inten    --    31.1462                21.6739                19.1914
 Raman Activ --     0.4936                 5.5142                 8.4651

                    88                     89                     90
                     A                      A                      A
 Frequencies --  1317.5524              1320.5299              1324.8107
 Red. masses --     1.3336                 1.3042                 1.3327
 Frc consts  --     1.3640                 1.3399                 1.3781
 IR Inten    --    12.2325                22.2785                 3.1277
 Raman Activ --    11.8827                 1.7457                 7.2823

                    91                     92                     93
                     A                      A                      A
 Frequencies --  1337.2949              1345.6788              1351.5279
 Red. masses --     1.1940                 1.2606                 1.1141
 Frc consts  --     1.2581                 1.3450                 1.1990
 IR Inten    --    29.4418                35.6999                56.3705
 Raman Activ --     4.5071                 4.8349                 3.2437

                    94                     95                     96
                     A                      A                      A
 Frequencies --  1358.6887              1361.0054              1367.5765
 Red. masses --     1.3295                 1.3690                 1.5167
 Frc consts  --     1.4460                 1.4941                 1.6713
 IR Inten    --    42.8675                 6.0277                11.3560
 Raman Activ --     1.6086                 4.4862                 9.0517

                    97                     98                     99
                     A                      A                      A
 Frequencies --  1381.6339              1401.8655              1405.1003
 Red. masses --     1.5385                 1.5001                 1.4501
 Frc consts  --     1.7304                 1.7369                 1.6868
 IR Inten    --     8.4307                 3.8132                 2.7103
 Raman Activ --     9.3634                 1.0338                 8.0133

                   100                    101                    102
                     A                      A                      A
 Frequencies --  1409.9154              1445.8352              1453.1922
 Red. masses --     1.6899                 1.3550                 1.4126
 Frc consts  --     1.9793                 1.6688                 1.7576
 IR Inten    --    37.3090                33.1806                25.3031
 Raman Activ --     1.5449                 0.8157                 2.1350

                   103                    104                    105
                     A                      A                      A
 Frequencies --  1472.9882              1482.4705              1483.9839
 Red. masses --     1.1165                 1.0934                 1.3782
 Frc consts  --     1.4273                 1.4158                 1.7882
 IR Inten    --    12.6554                 4.2367                41.6783
 Raman Activ --     2.9481                 5.1933                 2.2191

                   106                    107                    108
                     A                      A                      A
 Frequencies --  1488.2990              1510.8063              3236.0975
 Red. masses --     1.2895                 1.2394                 1.0679
 Frc consts  --     1.6829                 1.6668                 6.5891
 IR Inten    --    17.0867                68.1389              1200.3166
 Raman Activ --     3.5052                 1.1112               152.5854

                   109                    110                    111
                     A                      A                      A
 Frequencies --  3263.5807              3276.5728              3284.4445
 Red. masses --     1.0590                 1.0593                 1.0815
 Frc consts  --     6.6458                 6.7008                 6.8742
 IR Inten    --    32.9610                13.6187                19.9452
 Raman Activ --    94.4766               173.3002                17.9798

                   112                    113                    114
                     A                      A                      A
 Frequencies --  3284.8321              3288.2765              3289.9989
 Red. masses --     1.0829                 1.0829                 1.0837
 Frc consts  --     6.8844                 6.8986                 6.9110
 IR Inten    --    41.6368                12.5448                 7.5131
 Raman Activ --     7.8685                94.4301                 9.5743

                   115                    116                    117
                     A                      A                      A
 Frequencies --  3293.8125              3296.7719              3303.8034
 Red. masses --     1.0840                 1.0840                 1.0859
 Frc consts  --     6.9294                 6.9412                 6.9835
 IR Inten    --     5.7279                 6.3848                 0.6471
 Raman Activ --   262.5706                18.1818                62.1553

                   118                    119                    120
                     A                      A                      A
 Frequencies --  3308.3707              3313.9219              3315.9091
 Red. masses --     1.0884                 1.0866                 1.0954
 Frc consts  --     7.0188                 7.0311                 7.0963
 IR Inten    --     2.1936                91.1775                30.0359
 Raman Activ --    12.4944                 9.6707                19.0823

                   121                    122                    123
                     A                      A                      A
 Frequencies --  3319.9596              3332.3087              3338.3847
 Red. masses --     1.0939                 1.0692                 1.1092
 Frc consts  --     7.1039                 6.9950                 7.2834
 IR Inten    --    99.6228               630.6143                31.3794
 Raman Activ --    36.4022               177.2822                45.9055

                   124                    125                    126
                     A                      A                      A
 Frequencies --  3382.8390              3384.4370              3390.6713
 Red. masses --     1.0652                 1.0663                 1.0690
 Frc consts  --     7.1819                 7.1961                 7.2409
 IR Inten    --    44.2129                23.2580                53.1269
 Raman Activ --    90.7874               165.9160               142.1900

                   127                    128                    129
                     A                      A                      A
 Frequencies --  3396.1394              3920.9754              3922.5461
 Red. masses --     1.0661                 1.0675                 1.0677
 Frc consts  --     7.2447                 9.6695                 9.6787
 IR Inten    --    53.8702                65.4641                80.3950
 Raman Activ --   143.0507               119.4881               102.0784

 - Thermochemistry -
 -------------------
 Temperature   298.150 Kelvin.  Pressure   1.00000 Atm.
 Atom     1 has atomic number  8 and mass  15.99491

 Molecular mass:   342.11621 amu.
 Principal axes and moments of inertia in atomic units:
                           1         2         3
     Eigenvalues --  4359.26082********************
           X            0.99997  -0.00736   0.00031
           Y            0.00735   0.99996   0.00422
           Z           -0.00034  -0.00422   0.99999
 This molecule is an asymmetric top.
 Rotational symmetry number  1.
 Warning -- assumption of classical behavior for rotation
           may cause significant error
 Rotational temperatures (Kelvin)      0.01987     0.00705     0.00532
 Rotational constants (GHZ):           0.41400     0.14680     0.11087
    8 imaginary frequencies ignored.
 Zero-point vibrational energy     978450.9 (Joules/Mol)
                                  233.85537 (Kcal/Mol)
 Warning -- explicit consideration of  30 degrees of freedom as
           vibrations may cause significant error
 Vibrational temperatures:     91.40    98.84   123.61   156.06   219.47
          (Kelvin)            251.96   267.98   313.65   335.22   379.98
                              411.30   425.00   432.45   449.32   465.32
                              470.95   511.09   525.07   552.13   595.64
                              618.45   625.19   644.63   690.44   719.63
                              728.77   774.59   819.57   843.53   880.60
                              898.26   909.67   925.58   992.15  1031.64
                             1088.54  1090.27  1116.18  1212.93  1238.41
                             1301.37  1346.39  1397.84  1415.29  1428.60
                             1453.12  1467.67  1476.34  1490.18  1501.36
                             1533.15  1544.29  1548.42  1559.71  1572.95
                             1585.44  1594.54  1600.34  1609.15  1624.25
                             1631.39  1649.72  1656.17  1666.59  1673.44
                             1691.37  1699.00  1740.35  1744.44  1746.32
                             1770.80  1788.02  1804.08  1831.92  1838.07
                             1846.10  1863.40  1869.52  1881.22  1895.66
                             1899.95  1906.10  1924.07  1936.13  1944.54
                             1954.85  1958.18  1967.64  1987.86  2016.97
                             2021.62  2028.55  2080.23  2090.82  2119.30
                             2132.94  2135.12  2141.33  2173.71  4656.02
                             4695.56  4714.25  4725.58  4726.13  4731.09
                             4733.57  4739.06  4743.31  4753.43  4760.00
                             4767.99  4770.85  4776.68  4794.44  4803.18
                             4867.14  4869.44  4878.41  4886.28  5641.40
                             5643.66

 Zero-point correction=                           0.372672 (Hartree/Particle)
 Thermal correction to Energy=                    0.390053
 Thermal correction to Enthalpy=                  0.390997
 Thermal correction to Gibbs Free Energy=         0.328587
 Sum of electronic and zero-point Energies=          -1297.567363
 Sum of electronic and thermal Energies=             -1297.549982
 Sum of electronic and thermal Enthalpies=           -1297.549038
 Sum of electronic and thermal Free Energies=        -1297.611448

                     E (Thermal)             CV                S
                      KCal/Mol        Cal/Mol-Kelvin    Cal/Mol-Kelvin
 Total                  244.762             73.427            131.354
 Electronic               0.000              0.000              0.000
 Translational            0.889              2.981             43.384
 Rotational               0.889              2.981             35.122
 Vibrational            242.985             67.465             52.848
 Vibration     1          0.597              1.972              4.344
 Vibration     2          0.598              1.969              4.190
 Vibration     3          0.601              1.959              3.751
 Vibration     4          0.606              1.942              3.296
 Vibration     5          0.619              1.900              2.640
 Vibration     6          0.627              1.873              2.380
 Vibration     7          0.632              1.859              2.265
 Vibration     8          0.646              1.814              1.976
 Vibration     9          0.654              1.790              1.856
 Vibration    10          0.671              1.739              1.635
 Vibration    11          0.684              1.700              1.498
 Vibration    12          0.690              1.682              1.443
 Vibration    13          0.693              1.673              1.414
 Vibration    14          0.701              1.650              1.350
 Vibration    15          0.708              1.629              1.293
 Vibration    16          0.711              1.621              1.273
 Vibration    17          0.731              1.565              1.143
 Vibration    18          0.738              1.544              1.101
 Vibration    19          0.753              1.505              1.024
 Vibration    20          0.778              1.440              0.913
 Vibration    21          0.791              1.405              0.859
 Vibration    22          0.795              1.395              0.844
 Vibration    23          0.807              1.365              0.802
 Vibration    24          0.836              1.295              0.710
 Vibration    25          0.856              1.250              0.658
 Vibration    26          0.862              1.236              0.642
 Vibration    27          0.893              1.165              0.569
 Vibration    28          0.926              1.097              0.505
 Vibration    29          0.943              1.061              0.474
 Vibration    30          0.971              1.006              0.429

 Normal termination of Gaussian 09 at Thu Jan 21 05:09:32 2016.
