 Gaussian 09, Revision B.01,
 Gaussian 09:  EM64L-G09RevB.01 12-Aug-2010

 --------------------------------------------------
 # freq=raman b3lyp/6-31+g(2df,p) geom=connectivity
 --------------------------------------------------

 -------------
 310 10000.com
 -------------
 Symbolic Z-matrix:
 Charge =  0 Multiplicity = 1

                         Standard orientation:
 ---------------------------------------------------------------------
 Center     Atomic      Atomic             Coordinates (Angstroms)
 Number     Number       Type             X           Y           Z
 ---------------------------------------------------------------------
      1          8           0        5.035200   -0.119344   -0.311621
      2          6           0        3.698063   -0.080482    0.208259
      3          6           0        3.123301    1.274453   -0.171970
      4          8           0        3.985801    2.353458    0.218056
      5          1           0        4.961727    2.140068    0.187812
      6          6           0        1.698477    1.527595    0.291360
      7          8           0        1.182601    2.676485   -0.396455
      8          1           0        0.316936    3.035927   -0.048211
      9          6           0        3.199259   -2.593520    0.082058
     10          8           0        4.525903   -2.988598   -0.298032
     11          1           0        4.598423   -3.977391   -0.173701
     12          6           0        2.775433   -1.181395   -0.290130
     13          8           0        1.490828   -0.870108    0.266782
     14          6           0        0.845756    0.345710   -0.139863
     15          8           0       -0.345179    0.469166    0.651103
     16          6           0       -1.534237    0.229621   -0.115972
     17          6           0       -1.880396   -1.178096    0.339423
     18          8           0       -0.887924   -2.139879   -0.048030
     19          1           0        0.036651   -1.861505    0.213774
     20          6           0       -3.259280   -1.543479   -0.187218
     21          8           0       -3.862292   -2.687512    0.433591
     22          1           0       -4.747164   -2.895613    0.017491
     23          6           0       -2.447450    2.613705   -0.214531
     24          8           0       -1.266240    3.279625    0.256296
     25          1           0       -1.430478    4.260609    0.148023
     26          6           0       -2.688719    1.169238    0.192619
     27          8           0       -3.944656    0.839958   -0.417572
     28          6           0       -4.281170   -0.455700    0.100077
     29          8           0       -5.510620   -0.855738   -0.521460
     30          1           0       -6.163739   -1.047694    0.155436
     31          1           0        5.661114   -0.135891    0.416087
     32          1           0        2.509698   -3.274996   -0.370708
     33          1           0        3.116901   -2.693478    1.144191
     34          1           0        2.710919   -1.115639   -1.356157
     35          1           0        3.748615   -0.140176    1.275395
     36          1           0        3.092481    1.290739   -1.241402
     37          1           0        1.657273    1.664080    1.351819
     38          1           0        0.635201    0.361423   -1.188824
     39          1           0       -3.290285    3.184725    0.114807
     40          1           0       -2.429456    2.646698   -1.283871
     41          1           0       -2.833864    1.154323    1.252624
     42          1           0       -1.312092    0.238597   -1.162619
     43          1           0       -1.929351   -1.173020    1.408290
     44          1           0       -3.202072   -1.704213   -1.243528
     45          1           0       -4.429057   -0.383578    1.157351
 ---------------------------------------------------------------------

 SCF Done:  E(RB3LYP) =  -1298.01653194     A.U. after   13 cycles

 The electronic state is 1-A.
 Alpha  occ. eigenvalues --  -19.19280 -19.18626 -19.18557 -19.18088 -19.17993
 Alpha  occ. eigenvalues --  -19.16455 -19.16302 -19.15448 -19.14165 -19.13412
 Alpha  occ. eigenvalues --  -19.12202 -10.30195 -10.30110 -10.26344 -10.25998
 Alpha  occ. eigenvalues --  -10.25472 -10.25381 -10.24674 -10.24439 -10.24320
 Alpha  occ. eigenvalues --  -10.24003 -10.23457 -10.23244  -1.10021  -1.09311
 Alpha  occ. eigenvalues --   -1.06067  -1.05061  -1.04139  -1.03919  -1.02778
 Alpha  occ. eigenvalues --   -1.01908  -1.00768  -0.99926  -0.98811  -0.82262
 Alpha  occ. eigenvalues --   -0.79848  -0.79059  -0.78105  -0.71855  -0.69683
 Alpha  occ. eigenvalues --   -0.66795  -0.65167  -0.63365  -0.62677  -0.61267
 Alpha  occ. eigenvalues --   -0.59971  -0.56343  -0.55697  -0.55175  -0.54445
 Alpha  occ. eigenvalues --   -0.53710  -0.53242  -0.52848  -0.52053  -0.51368
 Alpha  occ. eigenvalues --   -0.50870  -0.49639  -0.49312  -0.48746  -0.46596
 Alpha  occ. eigenvalues --   -0.45471  -0.45234  -0.44492  -0.43819  -0.43216
 Alpha  occ. eigenvalues --   -0.42380  -0.41430  -0.40935  -0.40410  -0.40084
 Alpha  occ. eigenvalues --   -0.38254  -0.37809  -0.37459  -0.36471  -0.35974
 Alpha  occ. eigenvalues --   -0.34907  -0.34502  -0.33485  -0.33315  -0.32954
 Alpha  occ. eigenvalues --   -0.32713  -0.31413  -0.30565  -0.30382  -0.29683
 Alpha  occ. eigenvalues --   -0.29206  -0.28562  -0.28217  -0.27170  -0.26628
 Alpha  occ. eigenvalues --   -0.25681
 Alpha virt. eigenvalues --   -0.02219  -0.01825  -0.01751  -0.00294   0.00506
 Alpha virt. eigenvalues --    0.01273   0.01943   0.02504   0.03419   0.03628
 Alpha virt. eigenvalues --    0.03911   0.04439   0.04971   0.05392   0.05608

 Mulliken atomic charges:
              1
     1  O   -0.455200
     2  C   -0.171205
     3  C    0.082053
     4  O   -0.487967
     5  H    0.347426
     6  C   -0.009171
     7  O   -0.515997
     8  H    0.444520
     9  C   -0.261417
    10  O   -0.425834
    11  H    0.348387
    12  C   -0.045731
    13  O   -0.075673
    14  C   -0.121667
    15  O    0.030986
    16  C    0.184091
    17  C    0.022226
    18  O   -0.501724
    19  H    0.414526
    20  C    0.001165
    21  O   -0.461751
    22  H    0.352116
    23  C   -0.401286
    24  O   -0.491399
    25  H    0.369177
    26  C   -0.192942
    27  O   -0.055040
    28  C   -0.044741
    29  O   -0.511562
    30  H    0.355821
    31  H    0.350663
    32  H    0.154198
    33  H    0.150004
    34  H    0.121794
    35  H    0.124738
    36  H    0.123082
    37  H    0.136912
    38  H    0.138717
    39  H    0.154527
    40  H    0.164713
    41  H    0.126585
    42  H    0.120671
    43  H    0.133431
    44  H    0.141225
    45  H    0.136557
 Sum of Mulliken atomic charges =   0.00000

 Dipole moment (field-independent basis, Debye):
    X=             -2.0209    Y=              0.1115    Z=              2.1775  Tot=              2.9729
 Quadrupole moment (field-independent basis, Debye-Ang):
   XX=           -120.1210   YY=           -132.6862   ZZ=           -138.9870
   XY=            -17.7574   XZ=              2.0798   YZ=              1.2103

  Exact polarizability: 235.451   0.578 195.879   0.781  -0.636 142.644
 Approx polarizability: 276.303  -0.392 254.682   1.347  -1.254 239.233

 ******    6 imaginary frequencies (negative Signs) ******

                     1                      2                      3
                     A                      A                      A
 Frequencies --  -271.4806              -260.7802              -197.4793
 Red. masses --     1.7832                 1.7937                 1.2451
 Frc consts  --     0.0774                 0.0719                 0.0286
 IR Inten    --     8.2162                 1.9259               102.4252
 Raman Activ --     0.0476                 0.0645                 0.9444

                     4                      5                      6
                     A                      A                      A
 Frequencies --  -102.6857               -71.7956               -48.9192
 Red. masses --     2.1533                 6.2350                 5.7141
 Frc consts  --     0.0134                 0.0189                 0.0081
 IR Inten    --    58.6107                 7.0306                 5.7540
 Raman Activ --     0.3739                 0.0895                 0.0410

                     7                      8                      9
                     A                      A                      A
 Frequencies --    26.1539                49.6629                64.6495
 Red. masses --     3.0564                 5.6850                 6.0708
 Frc consts  --     0.0012                 0.0083                 0.0149
 IR Inten    --    33.9994                 3.2490                 9.7755
 Raman Activ --     0.2913                 0.0617                 0.0587

                    10                     11                     12
                     A                      A                      A
 Frequencies --    88.4023                91.2139               147.2012
 Red. masses --     6.9070                 4.6749                 4.4264
 Frc consts  --     0.0318                 0.0229                 0.0565
 IR Inten    --     0.4835                16.3017                10.5631
 Raman Activ --     0.1164                 0.4503                 0.1226

                    13                     14                     15
                     A                      A                      A
 Frequencies --   170.1528               181.0707               207.8099
 Red. masses --     5.7488                 7.6274                 5.9157
 Frc consts  --     0.0981                 0.1473                 0.1505
 IR Inten    --     4.4728                 0.3291                 3.9617
 Raman Activ --     0.2950                 0.7746                 2.0511

                    16                     17                     18
                     A                      A                      A
 Frequencies --   217.3388               241.3630               263.8647
 Red. masses --     6.5920                 5.8202                 4.5684
 Frc consts  --     0.1835                 0.1998                 0.1874
 IR Inten    --     3.6296                 1.9660                24.1309
 Raman Activ --     1.0457                 0.3015                 0.2180

                    19                     20                     21
                     A                      A                      A
 Frequencies --   296.2805               314.5920               321.7626
 Red. masses --     5.8771                 4.5373                 5.2722
 Frc consts  --     0.3040                 0.2646                 0.3216
 IR Inten    --     1.2145                 2.3353                 3.3847
 Raman Activ --     1.0140                 0.9604                 1.9211

                    22                     23                     24
                     A                      A                      A
 Frequencies --   322.5785               332.8853               343.0229
 Red. masses --     5.4289                 4.4449                 5.7518
 Frc consts  --     0.3328                 0.2902                 0.3988
 IR Inten    --     4.5548                 1.6008                 0.9163
 Raman Activ --     1.4909                 1.3235                 2.5707

                    25                     26                     27
                     A                      A                      A
 Frequencies --   363.0312               369.9313               387.9110
 Red. masses --     6.5398                 4.3838                 7.3704
 Frc consts  --     0.5078                 0.3535                 0.6534
 IR Inten    --    18.1904                 2.1148                 1.4832
 Raman Activ --     0.3005                 0.0818                 1.8749

                    28                     29                     30
                     A                      A                      A
 Frequencies --   415.5947               425.4098               428.3808
 Red. masses --     5.0068                 4.7249                 4.4984
 Frc consts  --     0.5095                 0.5038                 0.4864
 IR Inten    --    19.8072                 0.6491                11.9250
 Raman Activ --     2.0096                 5.3105                 2.5262

                    31                     32                     33
                     A                      A                      A
 Frequencies --   442.3830               470.6345               494.6897
 Red. masses --     5.9364                 4.3312                 5.1225
 Frc consts  --     0.6845                 0.5652                 0.7386
 IR Inten    --     0.9810                12.4782                 3.9510
 Raman Activ --     0.8228                 5.0709                 1.2345

                    34                     35                     36
                     A                      A                      A
 Frequencies --   504.3833               539.0255               575.4296
 Red. masses --     3.3259                 3.1894                 3.8275
 Frc consts  --     0.4985                 0.5460                 0.7467
 IR Inten    --    17.8060                11.7114                 3.5443
 Raman Activ --     4.2813                 2.2159                 1.0651

                    37                     38                     39
                     A                      A                      A
 Frequencies --   591.2010               604.0107               612.4911
 Red. masses --     3.3494                 5.2772                 6.3861
 Frc consts  --     0.6897                 1.1343                 1.4115
 IR Inten    --    21.3646                14.6077                25.5227
 Raman Activ --     0.6504                 0.5245                 1.4310

                    40                     41                     42
                     A                      A                      A
 Frequencies --   636.5948               673.8135               700.9984
 Red. masses --     3.8878                 5.2203                 1.0681
 Frc consts  --     0.9283                 1.3964                 0.3092
 IR Inten    --    20.4503                13.2294                37.8523
 Raman Activ --     0.7905                 0.5572                 1.8230

                    43                     44                     45
                     A                      A                      A
 Frequencies --   706.6680               734.9268               777.3675
 Red. masses --     1.0668                 1.0905                 1.0663
 Frc consts  --     0.3139                 0.3470                 0.3796
 IR Inten    --   143.3436               111.0477                97.0244
 Raman Activ --     2.1431                 1.7369                 1.4362

                    46                     47                     48
                     A                      A                      A
 Frequencies --   789.3452               818.3699               851.9164
 Red. masses --     1.0729                 1.0830                 1.7637
 Frc consts  --     0.3939                 0.4274                 0.7542
 IR Inten    --   109.9550               113.2439                 4.6690
 Raman Activ --     1.0919                 1.9560                 1.4425

                    49                     50                     51
                     A                      A                      A
 Frequencies --   869.4959               928.3069               967.3457
 Red. masses --     1.6551                 6.2363                 6.0267
 Frc consts  --     0.7372                 3.1664                 3.3227
 IR Inten    --     1.8886               116.7001                67.5524
 Raman Activ --     0.5237                 2.8998                 0.6182

                    52                     53                     54
                     A                      A                      A
 Frequencies --   973.4645               986.4018               993.1202
 Red. masses --     4.0095                 4.0324                 7.2182
 Frc consts  --     2.2386                 2.3116                 4.1945
 IR Inten    --    45.5016                68.3184                56.9683
 Raman Activ --     2.3934                 1.5220                 1.1020

                    55                     56                     57
                     A                      A                      A
 Frequencies --  1006.8630              1014.3594              1024.6616
 Red. masses --     6.8306                 6.9832                 5.4544
 Frc consts  --     4.0799                 4.2334                 3.3741
 IR Inten    --    28.0728               503.1083               289.7531
 Raman Activ --     3.0330                 4.1115                 2.9645

                    58                     59                     60
                     A                      A                      A
 Frequencies --  1036.1243              1053.3224              1057.0327
 Red. masses --     5.6997                 4.7692                 4.4606
 Frc consts  --     3.6051                 3.1176                 2.9364
 IR Inten    --   233.4067                50.6512                86.4546
 Raman Activ --     0.9822                 1.3280                 6.7674

                    61                     62                     63
                     A                      A                      A
 Frequencies --  1066.0700              1070.6215              1083.6638
 Red. masses --     4.8608                 5.0012                 3.7939
 Frc consts  --     3.2549                 3.3775                 2.6250
 IR Inten    --    94.9071                29.4353                 4.7808
 Raman Activ --     5.5143                 1.8474                27.2540

                    64                     65                     66
                     A                      A                      A
 Frequencies --  1092.3456              1103.6660              1107.7955
 Red. masses --     2.8061                 2.6899                 2.0862
 Frc consts  --     1.9728                 1.9305                 1.5084
 IR Inten    --    30.3983                 7.2280                35.1758
 Raman Activ --     8.3320                 2.9777                 2.9880

                    67                     68                     69
                     A                      A                      A
 Frequencies --  1115.3499              1117.5159              1125.7349
 Red. masses --     2.4838                 2.2872                 2.6121
 Frc consts  --     1.8205                 1.6829                 1.9504
 IR Inten    --     3.2653                90.6119                16.8546
 Raman Activ --     9.1727                 3.4667                 8.3741

                    70                     71                     72
                     A                      A                      A
 Frequencies --  1129.8560              1146.3096              1150.4817
 Red. masses --     2.4497                 1.9116                 1.8250
 Frc consts  --     1.8425                 1.4800                 1.4232
 IR Inten    --    33.0370                 5.5286                10.0273
 Raman Activ --     2.6452                 1.8647                 3.2893

                    73                     74                     75
                     A                      A                      A
 Frequencies --  1160.7469              1167.7813              1182.9771
 Red. masses --     2.0527                 1.7000                 1.9379
 Frc consts  --     1.6294                 1.3659                 1.5979
 IR Inten    --    10.9956                 3.4283                11.0478
 Raman Activ --     3.6003                 3.0128                 1.9699

                    76                     77                     78
                     A                      A                      A
 Frequencies --  1196.9492              1205.3998              1207.5977
 Red. masses --     1.2345                 1.4080                 1.3862
 Frc consts  --     1.0421                 1.2053                 1.1910
 IR Inten    --    12.4785                 3.5153                 2.4089
 Raman Activ --     2.5755                 2.1248                 0.9800

                    79                     80                     81
                     A                      A                      A
 Frequencies --  1240.2501              1246.2290              1253.2467
 Red. masses --     1.3140                 1.2275                 1.2291
 Frc consts  --     1.1909                 1.1232                 1.1374
 IR Inten    --     1.5245                19.2698                16.3351
 Raman Activ --     0.5245                 0.6294                 2.0819

                    82                     83                     84
                     A                      A                      A
 Frequencies --  1258.6185              1275.8650              1277.2671
 Red. masses --     1.1793                 1.3215                 1.2011
 Frc consts  --     1.1007                 1.2674                 1.1545
 IR Inten    --    16.5841                15.6466                66.3732
 Raman Activ --     0.5146                 2.2012                 3.6189

                    85                     86                     87
                     A                      A                      A
 Frequencies --  1282.2552              1285.9697              1297.3708
 Red. masses --     1.3060                 1.3747                 1.1828
 Frc consts  --     1.2651                 1.3394                 1.1730
 IR Inten    --    29.8760                27.8734                12.4008
 Raman Activ --     4.5554                 2.0216                 6.1570

                    88                     89                     90
                     A                      A                      A
 Frequencies --  1303.5549              1309.8867              1320.3654
 Red. masses --     1.3954                 1.2688                 1.3350
 Frc consts  --     1.3971                 1.2827                 1.3713
 IR Inten    --     9.5820                 8.4643                25.4039
 Raman Activ --     3.5372                 9.6414                 7.6866

                    91                     92                     93
                     A                      A                      A
 Frequencies --  1328.4959              1330.5906              1341.6642
 Red. masses --     1.2250                 1.2110                 1.2323
 Frc consts  --     1.2738                 1.2632                 1.3070
 IR Inten    --    36.6884                26.8579                 7.9082
 Raman Activ --     1.7022                 0.9634                 2.2265

                    94                     95                     96
                     A                      A                      A
 Frequencies --  1348.0304              1353.9244              1360.4510
 Red. masses --     1.2848                 1.4615                 1.4343
 Frc consts  --     1.3756                 1.5785                 1.5640
 IR Inten    --    57.3083                 0.2792                15.0609
 Raman Activ --     2.7170                12.4177                 3.7394

                    97                     98                     99
                     A                      A                      A
 Frequencies --  1375.8408              1377.5414              1390.6861
 Red. masses --     1.4000                 1.5362                 1.6019
 Frc consts  --     1.5614                 1.7175                 1.8253
 IR Inten    --    16.2935                13.7801                 3.7428
 Raman Activ --     3.1866                 1.2263                 5.6086

                   100                    101                    102
                     A                      A                      A
 Frequencies --  1399.6099              1410.4949              1428.9318
 Red. masses --     1.4109                 1.4824                 1.4201
 Frc consts  --     1.6284                 1.7376                 1.7084
 IR Inten    --     2.6612                26.0936                27.4049
 Raman Activ --     7.9653                 0.6700                 1.7497

                   103                    104                    105
                     A                      A                      A
 Frequencies --  1460.3661              1467.8594              1469.0379
 Red. masses --     1.3147                 1.0813                 1.1415
 Frc consts  --     1.6520                 1.3726                 1.4514
 IR Inten    --    20.9622                 1.8671                 8.7128
 Raman Activ --     3.5135                 4.6953                 2.7730

                   106                    107                    108
                     A                      A                      A
 Frequencies --  1470.8971              1498.4083              3238.1357
 Red. masses --     1.3183                 1.2832                 1.0684
 Frc consts  --     1.6804                 1.6975                 6.6006
 IR Inten    --    31.9989                33.0281               221.0905
 Raman Activ --     2.3943                 1.0719               270.0542

                   109                    110                    111
                     A                      A                      A
 Frequencies --  3250.9617              3254.0145              3262.1897
 Red. masses --     1.0679                 1.0567                 1.0739
 Frc consts  --     6.6500                 6.5922                 6.7334
 IR Inten    --  1380.9174                40.8558                73.5354
 Raman Activ --    52.0874                76.6237               173.7420

                   112                    113                    114
                     A                      A                      A
 Frequencies --  3264.1732              3265.2265              3271.1098
 Red. masses --     1.0805                 1.0687                 1.0828
 Frc consts  --     6.7828                 6.7134                 6.8266
 IR Inten    --    12.5653               120.7461                 4.5838
 Raman Activ --    76.6342                64.5541                93.7555

                   115                    116                    117
                     A                      A                      A
 Frequencies --  3275.4299              3278.3461              3285.9300
 Red. masses --     1.0827                 1.0834                 1.0872
 Frc consts  --     6.8439                 6.8605                 6.9162
 IR Inten    --    46.8524                14.2486                23.4962
 Raman Activ --    15.5580               163.7838                12.3589

                   118                    119                    120
                     A                      A                      A
 Frequencies --  3286.8004              3295.2303              3300.0607
 Red. masses --     1.0861                 1.0858                 1.0869
 Frc consts  --     6.9128                 6.9466                 6.9743
 IR Inten    --     1.3671                41.5423                19.0903
 Raman Activ --    14.9890                58.1455                15.7917

                   121                    122                    123
                     A                      A                      A
 Frequencies --  3305.4958              3310.5063              3315.5373
 Red. masses --     1.0876                 1.1040                 1.1053
 Frc consts  --     7.0015                 7.1287                 7.1590
 IR Inten    --    43.5429                67.6680                52.2436
 Raman Activ --    18.1355                35.5424                43.5261

                   124                    125                    126
                     A                      A                      A
 Frequencies --  3355.2849              3358.5120              3361.4562
 Red. masses --     1.0668                 1.0655                 1.0659
 Frc consts  --     7.0762                 7.0811                 7.0962
 IR Inten    --    62.3387                45.8576                33.6435
 Raman Activ --   129.9975               131.3184               132.6152

                   127                    128                    129
                     A                      A                      A
 Frequencies --  3367.4041              3872.0178              3875.3178
 Red. masses --     1.0672                 1.0677                 1.0675
 Frc consts  --     7.1298                 9.4314                 9.4453
 IR Inten    --    47.3299                70.6530                77.7513
 Raman Activ --   175.1205                87.8340               102.6328

 - Thermochemistry -
 -------------------
 Temperature   298.150 Kelvin.  Pressure   1.00000 Atm.
 Atom     1 has atomic number  8 and mass  15.99491

 Molecular mass:   342.11621 amu.
 Principal axes and moments of inertia in atomic units:
                           1         2         3
     Eigenvalues --  4279.80558********************
           X            0.99997  -0.00769  -0.00015
           Y            0.00769   0.99997  -0.00113
           Z            0.00016   0.00113   1.00000
 This molecule is an asymmetric top.
 Rotational symmetry number  1.
 Warning -- assumption of classical behavior for rotation
           may cause significant error
 Rotational temperatures (Kelvin)      0.02024     0.00697     0.00530
 Rotational constants (GHZ):           0.42169     0.14527     0.11047
    6 imaginary frequencies ignored.
 Zero-point vibrational energy     973453.5 (Joules/Mol)
                                  232.66098 (Kcal/Mol)
 Warning -- explicit consideration of  33 degrees of freedom as
           vibrations may cause significant error
 Vibrational temperatures:     37.63    71.45    93.02   127.19   131.24
          (Kelvin)            211.79   244.81   260.52   298.99   312.70
                              347.27   379.64   426.28   452.63   462.94
                              464.12   478.95   493.53   522.32   532.25
                              558.12   597.95   612.07   616.34   636.49
                              677.14   711.75   725.69   775.54   827.91
                              850.61   869.04   881.24   915.92   969.47
                             1008.58  1016.74  1057.39  1118.46  1135.69
                             1177.45  1225.72  1251.01  1335.62  1391.79
                             1400.60  1419.21  1428.88  1448.65  1459.44
                             1474.26  1490.75  1515.49  1520.83  1533.83
                             1540.38  1559.15  1571.64  1587.93  1593.87
                             1604.74  1607.85  1619.68  1625.61  1649.28
                             1655.28  1670.05  1680.17  1702.04  1722.14
                             1734.30  1737.46  1784.44  1793.04  1803.14
                             1810.87  1835.68  1837.70  1844.88  1850.22
                             1866.62  1875.52  1884.63  1899.71  1911.41
                             1914.42  1930.35  1939.51  1947.99  1957.38
                             1979.53  1981.97  2000.88  2013.72  2029.39
                             2055.91  2101.14  2111.92  2113.62  2116.29
                             2155.87  4658.95  4677.40  4681.80  4693.56
                             4696.41  4697.93  4706.39  4712.61  4716.80
                             4727.71  4728.97  4741.10  4748.05  4755.87
                             4763.07  4770.31  4827.50  4832.14  4836.38
                             4844.94  5570.96  5575.71

 Zero-point correction=                           0.370769 (Hartree/Particle)
 Thermal correction to Energy=                    0.389607
 Thermal correction to Enthalpy=                  0.390551
 Thermal correction to Gibbs Free Energy=         0.323946
 Sum of electronic and zero-point Energies=          -1297.645763
 Sum of electronic and thermal Energies=             -1297.626925
 Sum of electronic and thermal Enthalpies=           -1297.625981
 Sum of electronic and thermal Free Energies=        -1297.692586

                     E (Thermal)             CV                S
                      KCal/Mol        Cal/Mol-Kelvin    Cal/Mol-Kelvin
 Total                  244.482             77.514            140.183
 Electronic               0.000              0.000              0.000
 Translational            0.889              2.981             43.384
 Rotational               0.889              2.981             35.117
 Vibrational            242.704             71.552             61.681
 Vibration     1          0.593              1.985              6.102
 Vibration     2          0.595              1.978              4.831
 Vibration     3          0.597              1.971              4.310
 Vibration     4          0.601              1.957              3.695
 Vibration     5          0.602              1.955              3.634
 Vibration     6          0.617              1.906              2.708
 Vibration     7          0.625              1.879              2.434
 Vibration     8          0.630              1.865              2.317
 Vibration     9          0.641              1.829              2.063
 Vibration    10          0.646              1.815              1.981
 Vibration    11          0.658              1.777              1.793
 Vibration    12          0.670              1.739              1.636
 Vibration    13          0.690              1.681              1.438
 Vibration    14          0.702              1.646              1.338
 Vibration    15          0.707              1.632              1.301
 Vibration    16          0.708              1.630              1.297
 Vibration    17          0.715              1.610              1.246
 Vibration    18          0.722              1.589              1.198
 Vibration    19          0.737              1.548              1.109
 Vibration    20          0.742              1.534              1.080
 Vibration    21          0.756              1.496              1.008
 Vibration    22          0.779              1.436              0.907
 Vibration    23          0.787              1.415              0.874
 Vibration    24          0.790              1.408              0.864
 Vibration    25          0.802              1.378              0.819
 Vibration    26          0.828              1.315              0.736
 Vibration    27          0.850              1.262              0.672
 Vibration    28          0.860              1.240              0.647
 Vibration    29          0.894              1.164              0.567
 Vibration    30          0.932              1.084              0.494
 Vibration    31          0.949              1.051              0.465
 Vibration    32          0.962              1.023              0.443
 Vibration    33          0.972              1.005              0.429

 Normal termination of Gaussian 09 at Fri Feb 12 14:49:33 2016.
