 Gaussian 09, Revision B.01,
 Gaussian 09:  EM64L-G09RevB.01 12-Aug-2010

 ------------------------------------------------
 # freq=raman b3lyp/6-31+g(d,p) geom=connectivity
 ------------------------------------------------

 ------------
 320 9000.com
 ------------
 Symbolic Z-matrix:
 Charge =  0 Multiplicity = 1

                         Standard orientation:
 ---------------------------------------------------------------------
 Center     Atomic      Atomic             Coordinates (Angstroms)
 Number     Number       Type             X           Y           Z
 ---------------------------------------------------------------------
      1          8           0        5.087248   -0.242621   -0.354242
      2          6           0        3.743695   -0.066740    0.118477
      3          6           0        3.209240    1.329620   -0.156956
      4          8           0        4.095179    2.303254    0.412956
      5          1           0        4.952112    1.912374    0.077691
      6          6           0        1.776453    1.540104    0.305131
      7          8           0        1.179516    2.738829   -0.210994
      8          1           0        0.201832    2.815728   -0.011396
      9          6           0        3.068896   -2.559092    0.052038
     10          8           0        4.279243   -3.137030   -0.459573
     11          1           0        4.205945   -4.078811   -0.787178
     12          6           0        2.750253   -1.124114   -0.334128
     13          8           0        1.442063   -0.861078    0.194470
     14          6           0        0.876535    0.408534   -0.162880
     15          8           0       -0.285158    0.571705    0.663307
     16          6           0       -1.476291    0.219759   -0.055931
     17          6           0       -1.907469   -1.117151    0.524893
     18          8           0       -0.955224   -2.131788    0.172944
     19          1           0       -0.097317   -1.707631    0.465236
     20          6           0       -3.235831   -1.596198   -0.037124
     21          8           0       -3.748928   -2.800727    0.550810
     22          1           0       -4.507691   -3.226343    0.057389
     23          6           0       -2.394171    2.552277   -0.384160
     24          8           0       -1.391439    3.412078    0.176462
     25          1           0       -1.686977    4.365554    0.117342
     26          6           0       -2.644973    1.163161    0.178414
     27          8           0       -3.818433    0.711056   -0.512577
     28          6           0       -4.313276   -0.525329    0.022955
     29          8           0       -5.570234   -0.615704   -0.663288
     30          1           0        5.668745   -0.412939    0.390374
     31          1           0        2.253683   -3.171747   -0.271969
     32          1           0        3.112004   -2.606530    1.120116
     33          1           0        2.689546   -1.078212   -1.401418
     34          1           0        3.797482   -0.155171    1.183459
     35          1           0        3.222701    1.470212   -1.217594
     36          1           0        1.759690    1.577132    1.374359
     37          1           0        0.644803    0.475734   -1.205321
     38          1           0       -6.272344   -0.767435   -0.026406
     39          1           0       -3.322609    3.081532   -0.331334
     40          1           0       -2.155226    2.429894   -1.419934
     41          1           0       -2.848457    1.230853    1.226704
     42          1           0       -1.271356    0.125491   -1.101883
     43          1           0       -1.974423   -1.041402    1.590106
     44          1           0       -3.069369   -1.807724   -1.072714
     45          1           0       -4.531806   -0.363336    1.057799
 ---------------------------------------------------------------------

 SCF Done:  E(RB3LYP) =  -1297.93706859     A.U. after   14 cycles

 The electronic state is 1-A.
 Alpha  occ. eigenvalues --  -19.20014 -19.19782 -19.19759 -19.18796 -19.18702
 Alpha  occ. eigenvalues --  -19.18371 -19.17046 -19.16976 -19.15891 -19.14806
 Alpha  occ. eigenvalues --  -19.13609 -10.31225 -10.30850 -10.26629 -10.26378
 Alpha  occ. eigenvalues --  -10.26154 -10.25689 -10.25574 -10.25514 -10.24980
 Alpha  occ. eigenvalues --  -10.24831 -10.24360 -10.24334  -1.10860  -1.09269
 Alpha  occ. eigenvalues --   -1.06009  -1.05506  -1.04869  -1.03235  -1.02920
 Alpha  occ. eigenvalues --   -1.02422  -1.02107  -1.01105  -0.99708  -0.82529
 Alpha  occ. eigenvalues --   -0.80452  -0.79571  -0.78422  -0.72203  -0.70180
 Alpha  occ. eigenvalues --   -0.67308  -0.65523  -0.63657  -0.63226  -0.61728
 Alpha  occ. eigenvalues --   -0.60060  -0.56778  -0.56250  -0.55587  -0.55024
 Alpha  occ. eigenvalues --   -0.54700  -0.53532  -0.53008  -0.52434  -0.51365
 Alpha  occ. eigenvalues --   -0.50687  -0.50070  -0.49609  -0.48857  -0.46531
 Alpha  occ. eigenvalues --   -0.46355  -0.45187  -0.44318  -0.43918  -0.43692
 Alpha  occ. eigenvalues --   -0.42926  -0.42113  -0.41192  -0.40416  -0.39540
 Alpha  occ. eigenvalues --   -0.38874  -0.37969  -0.37443  -0.37201  -0.35938
 Alpha  occ. eigenvalues --   -0.35276  -0.34910  -0.34649  -0.34121  -0.33098
 Alpha  occ. eigenvalues --   -0.32874  -0.31652  -0.31161  -0.30603  -0.30305
 Alpha  occ. eigenvalues --   -0.29656  -0.29016  -0.28366  -0.27537  -0.26657
 Alpha  occ. eigenvalues --   -0.26402
 Alpha virt. eigenvalues --   -0.02111  -0.01887  -0.01788  -0.00385   0.00154
 Alpha virt. eigenvalues --    0.00764   0.01828   0.02403   0.02762   0.03660
 Alpha virt. eigenvalues --    0.04022   0.04591   0.04772   0.05258   0.05280

 Mulliken atomic charges:
              1
     1  O   -0.535613
     2  C   -0.283009
     3  C    0.172630
     4  O   -0.483917
     5  H    0.350624
     6  C   -0.016548
     7  O   -0.571709
     8  H    0.463619
     9  C   -0.146290
    10  O   -0.567644
    11  H    0.370717
    12  C    0.374814
    13  O   -0.416389
    14  C    0.169705
    15  O   -0.325515
    16  C   -0.194941
    17  C   -0.061186
    18  O   -0.502747
    19  H    0.413477
    20  C    0.190580
    21  O   -0.527032
    22  H    0.357891
    23  C   -0.066589
    24  O   -0.616658
    25  H    0.394742
    26  C    0.143657
    27  O   -0.300009
    28  C    0.083457
    29  O   -0.535336
    30  H    0.380765
    31  H    0.143301
    32  H    0.138890
    33  H    0.129006
    34  H    0.133063
    35  H    0.139204
    36  H    0.147193
    37  H    0.131665
    38  H    0.359549
    39  H    0.139092
    40  H    0.147823
    41  H    0.138568
    42  H    0.131379
    43  H    0.149694
    44  H    0.145718
    45  H    0.110310
 Sum of Mulliken atomic charges =   0.00000

 Dipole moment (field-independent basis, Debye):
    X=             -2.8809    Y=             -0.9954    Z=              0.6896  Tot=              3.1250
 Quadrupole moment (field-independent basis, Debye-Ang):
   XX=           -122.6560   YY=           -135.5513   ZZ=           -139.8373
   XY=            -17.4366   XZ=             -2.9401   YZ=              2.7613

  Exact polarizability: 228.357   0.241 192.031   0.517   0.363 141.518
 Approx polarizability: 265.251  -1.263 246.591   0.826   2.276 231.731

 ******    7 imaginary frequencies (negative Signs) ******

                     1                      2                      3
                     A                      A                      A
 Frequencies --  -292.8769              -271.3622              -267.2161
 Red. masses --     1.1710                 1.4172                 1.7316
 Frc consts  --     0.0592                 0.0615                 0.0729
 IR Inten    --   110.6362                77.3163                 2.4450
 Raman Activ --     0.7267                 0.4503                 0.0328

                     4                      5                      6
                     A                      A                      A
 Frequencies --  -245.2151               -78.3777               -49.8787
 Red. masses --     1.4421                 6.9853                 6.1863
 Frc consts  --     0.0511                 0.0253                 0.0091
 IR Inten    --    51.7761                 0.7618                 0.4742
 Raman Activ --     0.4500                 0.0485                 0.0311

                     7                      8                      9
                     A                      A                      A
 Frequencies --   -33.0259                17.8433                41.0441
 Red. masses --     6.7939                 7.0841                 6.8826
 Frc consts  --     0.0044                 0.0013                 0.0068
 IR Inten    --     2.4528                 0.0612                 1.5492
 Raman Activ --     0.0223                 0.0366                 0.0355

                    10                     11                     12
                     A                      A                      A
 Frequencies --    75.7779                83.3161               108.4148
 Red. masses --     6.4218                 5.5724                 5.7744
 Frc consts  --     0.0217                 0.0228                 0.0400
 IR Inten    --     0.1422                 8.8627                 1.6266
 Raman Activ --     0.2349                 0.0918                 0.1488

                    13                     14                     15
                     A                      A                      A
 Frequencies --   157.7225               175.9612               185.7615
 Red. masses --     6.3487                 6.4437                 6.2732
 Frc consts  --     0.0931                 0.1175                 0.1275
 IR Inten    --     4.9106                 1.0183                 1.3270
 Raman Activ --     0.2587                 0.2706                 0.6051

                    16                     17                     18
                     A                      A                      A
 Frequencies --   214.6564               231.2289               239.8322
 Red. masses --     7.3724                 5.9243                 4.4479
 Frc consts  --     0.2001                 0.1866                 0.1507
 IR Inten    --     0.4167                 4.3389                23.3890
 Raman Activ --     2.9843                 0.6965                 0.1790

                    19                     20                     21
                     A                      A                      A
 Frequencies --   266.9174               277.1278               301.1828
 Red. masses --     5.9057                 4.7007                 4.9577
 Frc consts  --     0.2479                 0.2127                 0.2650
 IR Inten    --     4.8587                 0.1141                 3.9524
 Raman Activ --     0.6292                 0.1333                 0.2357

                    22                     23                     24
                     A                      A                      A
 Frequencies --   302.5655               319.8215               322.9228
 Red. masses --     4.1499                 6.7485                 6.3400
 Frc consts  --     0.2238                 0.4067                 0.3895
 IR Inten    --     4.9476                 1.6516                 5.4202
 Raman Activ --     0.1010                 2.6026                 4.3476

                    25                     26                     27
                     A                      A                      A
 Frequencies --   347.0037               363.0553               382.0149
 Red. masses --     6.8480                 4.5465                 5.8589
 Frc consts  --     0.4858                 0.3531                 0.5038
 IR Inten    --    10.0542                 2.9956                 0.6653
 Raman Activ --     2.1606                 0.2407                 0.6566

                    28                     29                     30
                     A                      A                      A
 Frequencies --   408.3128               416.0733               432.2651
 Red. masses --     5.0403                 5.5179                 5.9903
 Frc consts  --     0.4951                 0.5628                 0.6595
 IR Inten    --    12.9875                11.9012                 6.8208
 Raman Activ --     2.5794                10.0495                 1.8864

                    31                     32                     33
                     A                      A                      A
 Frequencies --   440.4039               477.4401               486.7877
 Red. masses --     4.1769                 4.6674                 4.0250
 Frc consts  --     0.4773                 0.6268                 0.5619
 IR Inten    --     5.6926                 9.7908                25.1989
 Raman Activ --     0.6766                 2.4152                 0.7094

                    34                     35                     36
                     A                      A                      A
 Frequencies --   516.3747               525.5563               571.0020
 Red. masses --     3.8013                 3.0899                 4.3397
 Frc consts  --     0.5972                 0.5028                 0.8337
 IR Inten    --    10.2930                13.1303                 7.1585
 Raman Activ --     3.5836                 3.5579                 3.4948

                    37                     38                     39
                     A                      A                      A
 Frequencies --   582.7905               596.0507               609.2209
 Red. masses --     2.5048                 1.6471                 3.6390
 Frc consts  --     0.5012                 0.3448                 0.7957
 IR Inten    --    47.8889                69.2037                12.5087
 Raman Activ --     0.3797                 1.2924                 0.4195

                    40                     41                     42
                     A                      A                      A
 Frequencies --   626.6000               647.0743               651.7988
 Red. masses --     3.5958                 2.9224                 1.0971
 Frc consts  --     0.8318                 0.7209                 0.2746
 IR Inten    --    19.9203                47.6730                75.4588
 Raman Activ --     1.3071                 1.2995                 1.9467

                    43                     44                     45
                     A                      A                      A
 Frequencies --   661.6807               685.3203               783.2378
 Red. masses --     1.1226                 4.7923                 1.1070
 Frc consts  --     0.2896                 1.3261                 0.4001
 IR Inten    --   138.2598                 9.4508                87.1991
 Raman Activ --     1.4575                 1.7788                 1.4865

                    46                     47                     48
                     A                      A                      A
 Frequencies --   836.0171               842.5934               846.1462
 Red. masses --     1.2139                 1.4267                 1.2963
 Frc consts  --     0.4999                 0.5968                 0.5468
 IR Inten    --    56.1686                68.0429                54.6481
 Raman Activ --     0.8281                 2.7383                 1.1778

                    49                     50                     51
                     A                      A                      A
 Frequencies --   871.9745               946.5686               972.6108
 Red. masses --     1.3895                 5.1153                 5.0675
 Frc consts  --     0.6224                 2.7004                 2.8244
 IR Inten    --    21.9305                98.6193                69.5255
 Raman Activ --     0.4193                 3.6600                 0.1706

                    52                     53                     54
                     A                      A                      A
 Frequencies --   986.2991               994.3937               999.5538
 Red. masses --     5.0303                 4.6027                 5.9883
 Frc consts  --     2.8831                 2.6815                 3.5251
 IR Inten    --    87.2550               101.9083                39.0108
 Raman Activ --     3.8460                 1.2707                 0.6269

                    55                     56                     57
                     A                      A                      A
 Frequencies --  1020.8618              1031.2145              1040.7134
 Red. masses --     6.6615                 5.5519                 5.1544
 Frc consts  --     4.0903                 3.4785                 3.2892
 IR Inten    --   262.3635                41.2511               126.9328
 Raman Activ --     2.0715                 1.9099                 3.9929

                    58                     59                     60
                     A                      A                      A
 Frequencies --  1048.9165              1061.8720              1073.0163
 Red. masses --     4.0802                 3.8708                 4.1720
 Frc consts  --     2.6449                 2.5716                 2.8301
 IR Inten    --   310.5527               190.4540                56.8590
 Raman Activ --     1.9144                12.1664                 0.4237

                    61                     62                     63
                     A                      A                      A
 Frequencies --  1074.4216              1081.4197              1092.3128
 Red. masses --     4.6004                 5.1420                 4.3509
 Frc consts  --     3.1289                 3.5430                 3.0586
 IR Inten    --   152.7749                47.2278                32.5478
 Raman Activ --     0.3112                 0.8424                13.2742

                    64                     65                     66
                     A                      A                      A
 Frequencies --  1102.4408              1107.1802              1114.1909
 Red. masses --     2.6948                 2.5670                 2.2704
 Frc consts  --     1.9297                 1.8540                 1.6606
 IR Inten    --    33.2411                28.2741                27.8576
 Raman Activ --    15.5464                 2.7207                 2.5047

                    67                     68                     69
                     A                      A                      A
 Frequencies --  1120.0250              1128.2889              1136.3149
 Red. masses --     2.7404                 2.2574                 2.8143
 Frc consts  --     2.0255                 1.6932                 2.1410
 IR Inten    --    48.2616                69.1377                86.2885
 Raman Activ --     5.0740                 0.4484                17.6238

                    70                     71                     72
                     A                      A                      A
 Frequencies --  1146.7106              1160.8317              1167.2265
 Red. masses --     2.6601                 2.0542                 1.6439
 Frc consts  --     2.0609                 1.6309                 1.3195
 IR Inten    --    12.2179                19.3765                 1.0910
 Raman Activ --     5.1899                 4.2314                 5.7291

                    73                     74                     75
                     A                      A                      A
 Frequencies --  1172.6334              1179.0410              1188.7977
 Red. masses --     1.7592                 1.7797                 1.8694
 Frc consts  --     1.4252                 1.4576                 1.5566
 IR Inten    --     6.1524                 1.9575                 6.3086
 Raman Activ --     1.9659                 2.9767                 2.2883

                    76                     77                     78
                     A                      A                      A
 Frequencies --  1205.4727              1210.6673              1223.1683
 Red. masses --     1.3141                 1.3945                 1.3438
 Frc consts  --     1.1251                 1.2042                 1.1846
 IR Inten    --    34.1166                 4.2865                 5.5127
 Raman Activ --     3.2358                 2.3873                 1.1860

                    79                     80                     81
                     A                      A                      A
 Frequencies --  1242.1086              1247.6572              1256.4788
 Red. masses --     1.3376                 1.2110                 1.3054
 Frc consts  --     1.2159                 1.1107                 1.2143
 IR Inten    --     6.5383                 9.9149                29.2956
 Raman Activ --     1.2834                 1.5542                 1.2499

                    82                     83                     84
                     A                      A                      A
 Frequencies --  1267.8492              1280.2932              1289.4697
 Red. masses --     1.2234                 1.2696                 1.3552
 Frc consts  --     1.1586                 1.2261                 1.3277
 IR Inten    --     2.7071                 9.1568                 7.8757
 Raman Activ --     3.9890                 4.2293                 3.0724

                    85                     86                     87
                     A                      A                      A
 Frequencies --  1293.5534              1295.9983              1298.6725
 Red. masses --     1.3955                 1.2183                 1.3022
 Frc consts  --     1.3758                 1.2056                 1.2940
 IR Inten    --    15.6719                67.0113                32.1244
 Raman Activ --     2.3273                 4.6663                 4.9965

                    88                     89                     90
                     A                      A                      A
 Frequencies --  1306.3007              1313.4464              1324.0272
 Red. masses --     1.3095                 1.3245                 1.3540
 Frc consts  --     1.3166                 1.3463                 1.3985
 IR Inten    --     9.4566                 7.2598                19.0680
 Raman Activ --     6.1672                 5.6726                 6.1647

                    91                     92                     93
                     A                      A                      A
 Frequencies --  1330.8638              1332.2183              1341.6169
 Red. masses --     1.4731                 1.1758                 1.2314
 Frc consts  --     1.5372                 1.2295                 1.3059
 IR Inten    --    19.9437                50.4173                15.8300
 Raman Activ --     5.3114                 3.7654                 3.6359

                    94                     95                     96
                     A                      A                      A
 Frequencies --  1356.0707              1365.3173              1374.0615
 Red. masses --     1.1661                 1.5473                 1.5044
 Frc consts  --     1.2634                 1.6994                 1.6735
 IR Inten    --    54.1096                 5.4422                16.0104
 Raman Activ --     2.5804                11.3721                 7.5848

                    97                     98                     99
                     A                      A                      A
 Frequencies --  1388.0162              1401.2839              1409.9780
 Red. masses --     1.2827                 1.4290                 1.4076
 Frc consts  --     1.4560                 1.6533                 1.6487
 IR Inten    --     8.0853                 9.5511                10.2481
 Raman Activ --     4.7732                 6.5226                 4.2301

                   100                    101                    102
                     A                      A                      A
 Frequencies --  1414.5552              1417.8193              1421.1522
 Red. masses --     1.4611                 1.4164                 1.5949
 Frc consts  --     1.7226                 1.6775                 1.8978
 IR Inten    --    24.4375                26.9253                 8.1397
 Raman Activ --     2.9133                 4.2348                 1.2237

                   103                    104                    105
                     A                      A                      A
 Frequencies --  1449.6271              1475.2864              1481.3422
 Red. masses --     1.4107                 1.0832                 1.0845
 Frc consts  --     1.7466                 1.3891                 1.4022
 IR Inten    --     9.0336                 2.6573                 6.5368
 Raman Activ --     0.9495                 4.5038                 4.5498

                   106                    107                    108
                     A                      A                      A
 Frequencies --  1502.1996              1524.7468              3270.4084
 Red. masses --     1.3583                 1.2528                 1.0606
 Frc consts  --     1.8060                 1.7161                 6.6837
 IR Inten    --    60.2475                52.4973               215.3489
 Raman Activ --     1.6398                 1.5010                17.0229

                   109                    110                    111
                     A                      A                      A
 Frequencies --  3271.8300              3275.4604              3276.9678
 Red. masses --     1.0584                 1.0838                 1.0813
 Frc consts  --     6.6756                 6.8508                 6.8416
 IR Inten    --    25.7929                23.2214                 2.1616
 Raman Activ --    78.8141                70.3270               177.9110

                   112                    113                    114
                     A                      A                      A
 Frequencies --  3282.7692              3287.9073              3290.2262
 Red. masses --     1.0805                 1.0718                 1.0839
 Frc consts  --     6.8606                 6.8264                 6.9133
 IR Inten    --    23.3237               477.8884                20.8381
 Raman Activ --    77.8727               272.0423                 3.8154

                   115                    116                    117
                     A                      A                      A
 Frequencies --  3294.1125              3296.5276              3300.9458
 Red. masses --     1.0838                 1.0847                 1.0857
 Frc consts  --     6.9294                 6.9448                 6.9703
 IR Inten    --     5.5644                52.5218                23.3689
 Raman Activ --   108.2822                52.6904                14.6410

                   118                    119                    120
                     A                      A                      A
 Frequencies --  3307.5766              3313.7500              3318.9010
 Red. masses --     1.0853                 1.0875                 1.0815
 Frc consts  --     6.9956                 7.0358                 7.0191
 IR Inten    --    72.5344                 1.2205               226.4311
 Raman Activ --    67.0652                 3.5866                17.9498

                   121                    122                    123
                     A                      A                      A
 Frequencies --  3327.7725              3330.1481              3331.3242
 Red. masses --     1.0801                 1.1040                 1.0990
 Frc consts  --     7.0475                 7.2133                 7.1861
 IR Inten    --   422.4188                15.4575               186.1554
 Raman Activ --   107.1998                28.9609                61.4483

                   124                    125                    126
                     A                      A                      A
 Frequencies --  3379.1562              3389.2754              3393.7606
 Red. masses --     1.0642                 1.0678                 1.0701
 Frc consts  --     7.1595                 7.2268                 7.2618
 IR Inten    --    40.6394                53.3154                56.6555
 Raman Activ --    77.3354               165.9597               166.8263

                   127                    128                    129
                     A                      A                      A
 Frequencies --  3399.9791              3918.7334              3921.1532
 Red. masses --     1.0685                 1.0679                 1.0677
 Frc consts  --     7.2773                 9.6623                 9.6720
 IR Inten    --    71.5299                87.9153                74.7291
 Raman Activ --   164.5814                80.7425               112.0933

 - Thermochemistry -
 -------------------
 Temperature   298.150 Kelvin.  Pressure   1.00000 Atm.
 Atom     1 has atomic number  8 and mass  15.99491

 Molecular mass:   342.11621 amu.
 Principal axes and moments of inertia in atomic units:
                           1         2         3
     Eigenvalues --  4417.95439********************
           X            0.99997  -0.00809  -0.00068
           Y            0.00809   0.99997  -0.00124
           Z            0.00069   0.00123   1.00000
 This molecule is an asymmetric top.
 Rotational symmetry number  1.
 Warning -- assumption of classical behavior for rotation
           may cause significant error
 Rotational temperatures (Kelvin)      0.01960     0.00702     0.00531
 Rotational constants (GHZ):           0.40850     0.14619     0.11061
    7 imaginary frequencies ignored.
 Zero-point vibrational energy     976731.5 (Joules/Mol)
                                  233.44442 (Kcal/Mol)
 Warning -- explicit consideration of  32 degrees of freedom as
           vibrations may cause significant error
 Vibrational temperatures:     25.67    59.05   109.03   119.87   155.98
          (Kelvin)            226.93   253.17   267.27   308.84   332.69
                              345.06   384.03   398.72   433.33   435.32
                              460.15   464.61   499.26   522.35   549.63
                              587.47   598.64   621.93   633.64   686.93
                              700.38   742.95   756.16   821.54   838.50
                              857.58   876.53   901.54   930.99   937.79
                              952.01   986.02  1126.90  1202.84  1212.30
                             1217.41  1254.58  1361.90  1399.37  1419.06
                             1430.71  1438.13  1468.79  1483.69  1497.35
                             1509.15  1527.80  1543.83  1545.85  1555.92
                             1571.59  1586.16  1592.98  1603.07  1611.46
                             1623.35  1634.90  1649.86  1670.18  1679.38
                             1687.16  1696.37  1710.41  1734.40  1741.88
                             1759.86  1787.12  1795.10  1807.79  1824.15
                             1842.05  1855.26  1861.13  1864.65  1868.50
                             1879.47  1889.75  1904.98  1914.81  1916.76
                             1930.29  1951.08  1964.38  1976.97  1997.04
                             2016.13  2028.64  2035.23  2039.92  2044.72
                             2085.69  2122.61  2131.32  2161.33  2193.77
                             4705.38  4707.43  4712.65  4714.82  4723.17
                             4730.56  4733.90  4739.49  4742.96  4749.32
                             4758.86  4767.74  4775.15  4787.92  4791.33
                             4793.03  4861.85  4876.41  4882.86  4891.81
                             5638.18  5641.66

 Zero-point correction=                           0.372017 (Hartree/Particle)
 Thermal correction to Energy=                    0.390562
 Thermal correction to Enthalpy=                  0.391506
 Thermal correction to Gibbs Free Energy=         0.325071
 Sum of electronic and zero-point Energies=          -1297.565051
 Sum of electronic and thermal Energies=             -1297.546507
 Sum of electronic and thermal Enthalpies=           -1297.545563
 Sum of electronic and thermal Free Energies=        -1297.611997

                     E (Thermal)             CV                S
                      KCal/Mol        Cal/Mol-Kelvin    Cal/Mol-Kelvin
 Total                  245.081             75.986            139.823
 Electronic               0.000              0.000              0.000
 Translational            0.889              2.981             43.384
 Rotational               0.889              2.981             35.141
 Vibrational            243.304             70.024             61.298
 Vibration     1          0.593              1.986              6.861
 Vibration     2          0.594              1.981              5.208
 Vibration     3          0.599              1.965              3.997
 Vibration     4          0.600              1.961              3.811
 Vibration     5          0.606              1.942              3.297
 Vibration     6          0.621              1.894              2.577
 Vibration     7          0.628              1.872              2.371
 Vibration     8          0.632              1.859              2.270
 Vibration     9          0.645              1.819              2.004
 Vibration    10          0.653              1.793              1.869
 Vibration    11          0.657              1.779              1.804
 Vibration    12          0.672              1.734              1.616
 Vibration    13          0.678              1.716              1.551
 Vibration    14          0.693              1.671              1.410
 Vibration    15          0.694              1.669              1.403
 Vibration    16          0.706              1.636              1.311
 Vibration    17          0.708              1.630              1.295
 Vibration    18          0.725              1.581              1.180
 Vibration    19          0.737              1.548              1.109
 Vibration    20          0.751              1.509              1.031
 Vibration    21          0.773              1.452              0.933
 Vibration    22          0.779              1.435              0.905
 Vibration    23          0.793              1.400              0.851
 Vibration    24          0.800              1.382              0.825
 Vibration    25          0.834              1.300              0.717
 Vibration    26          0.843              1.279              0.692
 Vibration    27          0.871              1.214              0.618
 Vibration    28          0.881              1.193              0.597
 Vibration    29          0.927              1.094              0.502
 Vibration    30          0.940              1.069              0.480
 Vibration    31          0.954              1.040              0.456
 Vibration    32          0.968              1.012              0.434

 Normal termination of Gaussian 09 at Tue Mar  1 02:58:44 2016.
