 Gaussian 09, Revision B.01,
 Gaussian 09:  EM64L-G09RevB.01 12-Aug-2010

 ------------------------------------------------
 # freq=raman b3lyp/6-31+g(d,p) geom=connectivity
 ------------------------------------------------

 ------------
 320 6000.com
 ------------
 Symbolic Z-matrix:
 Charge =  0 Multiplicity = 1

                         Standard orientation:
 ---------------------------------------------------------------------
 Center     Atomic      Atomic             Coordinates (Angstroms)
 Number     Number       Type             X           Y           Z
 ---------------------------------------------------------------------
      1          8           0       -5.076959   -0.173411    0.415073
      2          6           0       -3.750268    0.051516   -0.085431
      3          6           0       -3.174440    1.390538    0.343759
      4          8           0       -4.061791    2.468173    0.008530
      5          1           0       -4.965628    2.100711    0.226907
      6          6           0       -1.766987    1.471568   -0.223183
      7          8           0       -1.166670    2.732463    0.106849
      8          1           0       -0.180597    2.703316   -0.058300
      9          6           0       -3.318191   -2.432790   -0.191016
     10          8           0       -4.644523   -2.942783    0.003961
     11          1           0       -4.578082   -3.940557    0.023253
     12          6           0       -2.851321   -1.092723    0.353003
     13          8           0       -1.534056   -0.876079   -0.174344
     14          6           0       -0.834473    0.332844    0.153966
     15          8           0        0.368250    0.375975   -0.626377
     16          6           0        1.611946    0.141227    0.050015
     17          6           0        1.922088   -1.266106   -0.431933
     18          8           0        0.992374   -2.292694   -0.055520
     19          1           0        0.081758   -1.884805   -0.118296
     20          6           0        3.267946   -1.528270    0.224831
     21          8           0        3.780842   -2.797063   -0.204462
     22          1           0        4.553620   -3.154782    0.320431
     23          6           0        2.508607    2.545685    0.253872
     24          8           0        1.442081    3.191422   -0.455974
     25          1           0        1.686100    4.160835   -0.483069
     26          6           0        2.709872    1.137444   -0.283778
     27          8           0        4.018950    0.801725    0.198599
     28          6           0        4.367511   -0.547241   -0.147842
     29          8           0        5.487275   -0.522989    0.748643
     30          1           0        6.301632   -0.595705    0.245518
     31          1           0        4.670642   -0.632949   -1.170420
     32          1           0        3.146880   -1.536794    1.287926
     33          1           0        2.038447   -1.261952   -1.495579
     34          1           0        1.447952    0.129639    1.107310
     35          1           0        2.765697    1.203746   -1.350262
     36          1           0        3.410779    3.106755    0.126645
     37          1           0        2.264345    2.497041    1.294483
     38          1           0       -5.668493   -0.358287   -0.318077
     39          1           0       -2.650175   -3.168928    0.204908
     40          1           0       -3.158900   -2.401605   -1.248634
     41          1           0       -2.810554   -1.131118    1.421537
     42          1           0       -3.796752    0.042311   -1.154381
     43          1           0       -3.086597    1.374109    1.410021
     44          1           0       -1.865083    1.445829   -1.288366
     45          1           0       -0.606916    0.363147    1.199050
 ---------------------------------------------------------------------

 SCF Done:  E(RB3LYP) =  -1297.93018391     A.U. after   14 cycles

 The electronic state is 1-A.
 Alpha  occ. eigenvalues --  -19.19757 -19.19549 -19.19489 -19.18171 -19.18017
 Alpha  occ. eigenvalues --  -19.17643 -19.17539 -19.16488 -19.15956 -19.15739
 Alpha  occ. eigenvalues --  -19.13561 -10.31899 -10.30760 -10.26726 -10.26578
 Alpha  occ. eigenvalues --  -10.25995 -10.25601 -10.25360 -10.25275 -10.25108
 Alpha  occ. eigenvalues --  -10.24756 -10.24497 -10.24266  -1.10370  -1.09644
 Alpha  occ. eigenvalues --   -1.05854  -1.05463  -1.04537  -1.03165  -1.03030
 Alpha  occ. eigenvalues --   -1.01938  -1.01736  -1.00947  -0.99689  -0.82976
 Alpha  occ. eigenvalues --   -0.80569  -0.79344  -0.78798  -0.72018  -0.69762
 Alpha  occ. eigenvalues --   -0.67367  -0.65569  -0.63595  -0.62841  -0.61714
 Alpha  occ. eigenvalues --   -0.60448  -0.56924  -0.56238  -0.55301  -0.54683
 Alpha  occ. eigenvalues --   -0.54201  -0.53454  -0.53208  -0.52121  -0.51650
 Alpha  occ. eigenvalues --   -0.50883  -0.49856  -0.49499  -0.48898  -0.46667
 Alpha  occ. eigenvalues --   -0.45774  -0.45121  -0.44991  -0.43763  -0.43476
 Alpha  occ. eigenvalues --   -0.42529  -0.41698  -0.41362  -0.40138  -0.39058
 Alpha  occ. eigenvalues --   -0.38741  -0.38190  -0.37650  -0.36473  -0.36119
 Alpha  occ. eigenvalues --   -0.35422  -0.35198  -0.34551  -0.34459  -0.33628
 Alpha  occ. eigenvalues --   -0.32256  -0.31189  -0.30727  -0.30156  -0.29845
 Alpha  occ. eigenvalues --   -0.29328  -0.29082  -0.28707  -0.27432  -0.27145
 Alpha  occ. eigenvalues --   -0.26259
 Alpha virt. eigenvalues --   -0.02030  -0.01852  -0.01512  -0.00396   0.00181
 Alpha virt. eigenvalues --    0.00677   0.01864   0.02141   0.02429   0.03291
 Alpha virt. eigenvalues --    0.03795   0.04400   0.04511   0.05213   0.05527

 Mulliken atomic charges:
              1
     1  O   -0.533256
     2  C   -0.237031
     3  C    0.141244
     4  O   -0.488185
     5  H    0.358063
     6  C    0.078958
     7  O   -0.554653
     8  H    0.447758
     9  C   -0.187165
    10  O   -0.552748
    11  H    0.360693
    12  C    0.324583
    13  O   -0.407501
    14  C   -0.002176
    15  O   -0.332560
    16  C    0.007488
    17  C   -0.038973
    18  O   -0.518626
    19  H    0.406329
    20  C    0.148297
    21  O   -0.521976
    22  H    0.355111
    23  C   -0.006608
    24  O   -0.597542
    25  H    0.385676
    26  C   -0.073642
    27  O   -0.275007
    28  C    0.193667
    29  O   -0.545735
    30  H    0.355494
    31  H    0.139264
    32  H    0.150833
    33  H    0.146662
    34  H    0.128871
    35  H    0.140958
    36  H    0.144251
    37  H    0.147393
    38  H    0.379573
    39  H    0.131985
    40  H    0.144631
    41  H    0.135985
    42  H    0.135853
    43  H    0.125272
    44  H    0.136519
    45  H    0.121977
 Sum of Mulliken atomic charges =   0.00000

 Dipole moment (field-independent basis, Debye):
    X=              3.0174    Y=             -0.9979    Z=             -0.7583  Tot=              3.2673
 Quadrupole moment (field-independent basis, Debye-Ang):
   XX=           -120.0128   YY=           -138.8114   ZZ=           -138.6819
   XY=             19.1190   XZ=              0.0056   YZ=             -2.0134

  Exact polarizability: 232.319   0.381 191.494   1.684   0.668 141.152
 Approx polarizability: 269.996   2.839 247.577   2.969   1.212 230.123

 ******    8 imaginary frequencies (negative Signs) ******

                     1                      2                      3
                     A                      A                      A
 Frequencies --  -347.6503              -316.2410              -267.7809
 Red. masses --     1.1336                 1.5915                 1.1847
 Frc consts  --     0.0807                 0.0938                 0.0501
 IR Inten    --   101.4879                25.0281               104.5971
 Raman Activ --     2.1969                 0.0940                 0.6033

                     4                      5                      6
                     A                      A                      A
 Frequencies --  -178.6717              -106.8176               -64.6745
 Red. masses --     2.0046                 5.2532                 6.5144
 Frc consts  --     0.0377                 0.0353                 0.0161
 IR Inten    --     2.1879                 1.2418                 2.0541
 Raman Activ --     0.1565                 0.1361                 0.0970

                     7                      8                      9
                     A                      A                      A
 Frequencies --   -51.1026               -42.7283                12.9704
 Red. masses --     6.4687                 6.2682                 6.8766
 Frc consts  --     0.0100                 0.0067                 0.0007
 IR Inten    --     1.8635                 0.3054                 0.3898
 Raman Activ --     0.0134                 0.0263                 0.0154

                    10                     11                     12
                     A                      A                      A
 Frequencies --    67.9180                96.3752               104.1095
 Red. masses --     6.6477                 6.6340                 6.7856
 Frc consts  --     0.0181                 0.0363                 0.0433
 IR Inten    --     0.9897                 1.7904                 2.5457
 Raman Activ --     0.3995                 0.0459                 0.0142

                    13                     14                     15
                     A                      A                      A
 Frequencies --   153.0329               177.9430               184.7157
 Red. masses --     6.1771                 6.3237                 6.9319
 Frc consts  --     0.0852                 0.1180                 0.1394
 IR Inten    --     3.6407                 3.5152                 0.2305
 Raman Activ --     0.4015                 0.4293                 0.4787

                    16                     17                     18
                     A                      A                      A
 Frequencies --   204.7027               225.0532               248.3492
 Red. masses --     6.7380                 5.9027                 4.2375
 Frc consts  --     0.1664                 0.1761                 0.1540
 IR Inten    --     0.3402                 2.1556                20.7298
 Raman Activ --     2.3890                 0.6010                 0.2219

                    19                     20                     21
                     A                      A                      A
 Frequencies --   265.1415               276.6774               298.3093
 Red. masses --     5.9867                 5.0033                 5.3082
 Frc consts  --     0.2480                 0.2257                 0.2783
 IR Inten    --     1.2797                 0.5901                 3.3876
 Raman Activ --     0.3466                 0.1183                 0.2096

                    22                     23                     24
                     A                      A                      A
 Frequencies --   310.2620               321.4778               322.9601
 Red. masses --     6.1156                 5.7381                 5.5329
 Frc consts  --     0.3469                 0.3494                 0.3400
 IR Inten    --     6.7428                 3.0260                 2.2369
 Raman Activ --     1.3876                 4.0601                 1.3251

                    25                     26                     27
                     A                      A                      A
 Frequencies --   341.7176               360.1780               378.7800
 Red. masses --     6.6253                 4.6575                 6.5181
 Frc consts  --     0.4558                 0.3560                 0.5510
 IR Inten    --    13.1458                 8.3515                 1.3194
 Raman Activ --     1.8240                 0.3056                 2.1954

                    28                     29                     30
                     A                      A                      A
 Frequencies --   405.1407               421.0314               432.4175
 Red. masses --     3.8804                 6.9231                 6.5364
 Frc consts  --     0.3753                 0.7231                 0.7201
 IR Inten    --    13.7430                 0.9598                 2.6767
 Raman Activ --     3.6941                 4.8765                 3.5247

                    31                     32                     33
                     A                      A                      A
 Frequencies --   440.1204               473.1403               484.8492
 Red. masses --     4.0819                 4.1165                 5.4753
 Frc consts  --     0.4659                 0.5429                 0.7583
 IR Inten    --     3.8564                 5.1960                18.6732
 Raman Activ --     1.9380                 5.2798                 0.4510

                    34                     35                     36
                     A                      A                      A
 Frequencies --   510.1967               520.4061               568.9909
 Red. masses --     3.4999                 3.0836                 3.5247
 Frc consts  --     0.5368                 0.4920                 0.6723
 IR Inten    --    16.6112                 9.4369                 8.8441
 Raman Activ --     1.9056                 4.0503                 1.3478

                    37                     38                     39
                     A                      A                      A
 Frequencies --   587.5489               599.0218               630.6664
 Red. masses --     2.9011                 5.2459                 4.4154
 Frc consts  --     0.5901                 1.1091                 1.0347
 IR Inten    --    41.0775                21.3575                21.9213
 Raman Activ --     1.3456                 0.8210                 1.3199

                    40                     41                     42
                     A                      A                      A
 Frequencies --   650.6475               668.7396               674.4560
 Red. masses --     5.2516                 1.0892                 1.0806
 Frc consts  --     1.3099                 0.2870                 0.2896
 IR Inten    --     3.8545                97.9587               104.8346
 Raman Activ --     0.2272                 1.8360                 2.1607

                    43                     44                     45
                     A                      A                      A
 Frequencies --   717.7360               724.7488               746.1519
 Red. masses --     4.8853                 1.1085                 1.0708
 Frc consts  --     1.4828                 0.3431                 0.3512
 IR Inten    --    17.7679               104.9711                93.8342
 Raman Activ --     1.0299                 2.0083                 1.4479

                    46                     47                     48
                     A                      A                      A
 Frequencies --   789.9654               832.8361               846.0038
 Red. masses --     1.0685                 1.0961                 1.7560
 Frc consts  --     0.3929                 0.4479                 0.7405
 IR Inten    --    66.8935                53.2061                 3.4263
 Raman Activ --     0.8388                 0.3267                 1.1690

                    49                     50                     51
                     A                      A                      A
 Frequencies --   870.8329               924.7871               957.3408
 Red. masses --     1.6042                 6.2885                 5.6465
 Frc consts  --     0.7168                 3.1687                 3.0491
 IR Inten    --    11.6130               110.5321               138.6215
 Raman Activ --     0.6953                 3.5436                 1.7271

                    52                     53                     54
                     A                      A                      A
 Frequencies --   983.9423               993.6454               999.3756
 Red. masses --     5.7375                 4.8044                 4.3609
 Frc consts  --     3.2727                 2.7948                 2.5662
 IR Inten    --    24.7057                27.6236               138.2853
 Raman Activ --     1.6138                 2.2683                 4.5262

                    55                     56                     57
                     A                      A                      A
 Frequencies --  1014.2229              1019.6758              1032.0941
 Red. masses --     4.4523                 6.3622                 6.7626
 Frc consts  --     2.6984                 3.8975                 4.2442
 IR Inten    --   120.2165               100.9107               212.4055
 Raman Activ --     2.3705                 0.7044                 5.4992

                    58                     59                     60
                     A                      A                      A
 Frequencies --  1049.3489              1062.0518              1066.8485
 Red. masses --     3.6853                 2.3909                 2.6414
 Frc consts  --     2.3909                 1.5889                 1.7713
 IR Inten    --   339.4350                74.9500                 4.7282
 Raman Activ --     1.6631                 6.1741                 5.9915

                    61                     62                     63
                     A                      A                      A
 Frequencies --  1082.1128              1088.6164              1093.8193
 Red. masses --     4.2731                 3.4452                 3.6008
 Frc consts  --     2.9481                 2.4056                 2.5383
 IR Inten    --   133.5688                 4.0934                30.0391
 Raman Activ --     1.4241                18.2205                 5.4622

                    64                     65                     66
                     A                      A                      A
 Frequencies --  1097.0752              1104.6942              1106.7486
 Red. masses --     3.5377                 2.5017                 2.8539
 Frc consts  --     2.5087                 1.7988                 2.0596
 IR Inten    --    15.4625                14.7023               123.4435
 Raman Activ --     7.4319                 3.2756                 9.9420

                    67                     68                     69
                     A                      A                      A
 Frequencies --  1119.4340              1124.4319              1142.7535
 Red. masses --     3.3495                 2.4705                 2.5536
 Frc consts  --     2.4730                 1.8404                 1.9647
 IR Inten    --    81.9261                84.4826                20.5736
 Raman Activ --    10.4490                 1.7074                 5.8644

                    70                     71                     72
                     A                      A                      A
 Frequencies --  1149.4305              1157.9019              1158.8260
 Red. masses --     2.5483                 2.4864                 2.2092
 Frc consts  --     1.9836                 1.9641                 1.7479
 IR Inten    --     0.6590                47.6835                68.4609
 Raman Activ --     8.2555                 6.2857                 3.4949

                    73                     74                     75
                     A                      A                      A
 Frequencies --  1164.6493              1168.2935              1181.5423
 Red. masses --     1.9845                 1.8678                 1.8039
 Frc consts  --     1.5860                 1.5021                 1.4838
 IR Inten    --    20.1275                30.5272                 8.8740
 Raman Activ --     3.4190                 1.3537                 2.7250

                    76                     77                     78
                     A                      A                      A
 Frequencies --  1199.8809              1207.1931              1213.0420
 Red. masses --     1.4830                 1.3213                 1.3697
 Frc consts  --     1.2579                 1.1345                 1.1875
 IR Inten    --    16.1160                 6.0417                17.9764
 Raman Activ --     3.1689                 1.1831                 1.9797

                    79                     80                     81
                     A                      A                      A
 Frequencies --  1231.6993              1239.6060              1255.1047
 Red. masses --     1.3784                 1.3808                 1.2060
 Frc consts  --     1.2321                 1.2501                 1.1193
 IR Inten    --     4.2533                 1.6206                15.8738
 Raman Activ --     0.5734                 1.2303                 1.2730

                    82                     83                     84
                     A                      A                      A
 Frequencies --  1264.5514              1276.5919              1282.0784
 Red. masses --     1.2956                 1.3306                 1.2645
 Frc consts  --     1.2207                 1.2776                 1.2246
 IR Inten    --     8.5567                37.3352                 2.0457
 Raman Activ --     3.5183                 1.2535                 2.0286

                    85                     86                     87
                     A                      A                      A
 Frequencies --  1292.3754              1294.2681              1296.1077
 Red. masses --     1.2152                 1.2881                 1.3220
 Frc consts  --     1.1958                 1.2713                 1.3084
 IR Inten    --    14.0509                16.7393                38.9840
 Raman Activ --     5.2984                 0.9423                 3.3257

                    88                     89                     90
                     A                      A                      A
 Frequencies --  1304.3184              1315.4993              1324.1460
 Red. masses --     1.3059                 1.2029                 1.2549
 Frc consts  --     1.3089                 1.2265                 1.2964
 IR Inten    --    29.5307                 0.4383                16.0321
 Raman Activ --     4.8933                 9.4053                 5.7076

                    91                     92                     93
                     A                      A                      A
 Frequencies --  1334.5752              1341.2620              1350.1657
 Red. masses --     1.3053                 1.2843                 1.2121
 Frc consts  --     1.3697                 1.3613                 1.3018
 IR Inten    --    19.1677                28.9987                59.9837
 Raman Activ --     4.0121                 4.1333                 6.2843

                    94                     95                     96
                     A                      A                      A
 Frequencies --  1355.6449              1361.8487              1372.5386
 Red. masses --     1.1623                 1.4628                 1.3820
 Frc consts  --     1.2586                 1.5985                 1.5339
 IR Inten    --    27.5168                 7.3274                 1.3358
 Raman Activ --     5.5196                13.4481                 5.1624

                    97                     98                     99
                     A                      A                      A
 Frequencies --  1383.4379              1393.4867              1399.2396
 Red. masses --     1.4530                 1.4342                 1.6484
 Frc consts  --     1.6385                 1.6409                 1.9015
 IR Inten    --    12.4943                14.2318                23.2065
 Raman Activ --     6.3885                 2.7096                 9.4464

                   100                    101                    102
                     A                      A                      A
 Frequencies --  1400.2226              1439.7794              1458.3925
 Red. masses --     1.4746                 1.3579                 1.4356
 Frc consts  --     1.7034                 1.6585                 1.7990
 IR Inten    --     7.6901                63.7160                 8.2383
 Raman Activ --     4.1178                 0.4840                 1.3514

                   103                    104                    105
                     A                      A                      A
 Frequencies --  1463.0766              1465.5414              1479.6984
 Red. masses --     1.3552                 1.4004                 1.1297
 Frc consts  --     1.7091                 1.7721                 1.4573
 IR Inten    --    23.9036                38.1386                 4.6935
 Raman Activ --     1.9706                 3.3963                 3.2284

                   106                    107                    108
                     A                      A                      A
 Frequencies --  1483.9538              1488.1664              3266.7249
 Red. masses --     1.0917                 1.2904                 1.0586
 Frc consts  --     1.4165                 1.6837                 6.6562
 IR Inten    --    11.9319                44.4631                30.8551
 Raman Activ --     4.3849                 1.0093                68.2912

                   109                    110                    111
                     A                      A                      A
 Frequencies --  3273.8009              3277.7264              3283.9944
 Red. masses --     1.0596                 1.0794                 1.0823
 Frc consts  --     6.6911                 6.8324                 6.8771
 IR Inten    --    96.3873                12.4201                22.4073
 Raman Activ --    23.5654               191.7574                16.1352

                   112                    113                    114
                     A                      A                      A
 Frequencies --  3285.0605              3291.4335              3295.0315
 Red. masses --     1.0828                 1.0840                 1.0846
 Frc consts  --     6.8847                 6.9191                 6.9380
 IR Inten    --    30.7883                53.5741                 3.6071
 Raman Activ --    31.8197               124.1549                90.4856

                   115                    116                    117
                     A                      A                      A
 Frequencies --  3300.4274              3301.7503              3303.5228
 Red. masses --     1.0858                 1.0850                 1.0773
 Frc consts  --     6.9684                 6.9692                 6.9267
 IR Inten    --     5.6221                22.6398               330.5021
 Raman Activ --   115.9598                35.2806               120.3879

                   118                    119                    120
                     A                      A                      A
 Frequencies --  3309.2048              3311.5216              3321.0152
 Red. masses --     1.0850                 1.0843                 1.0869
 Frc consts  --     7.0006                 7.0059                 7.0629
 IR Inten    --    94.8059               117.1088               114.2384
 Raman Activ --    29.2160               108.3566                29.2479

                   121                    122                    123
                     A                      A                      A
 Frequencies --  3321.5737              3340.0724              3343.1356
 Red. masses --     1.1016                 1.0689                 1.1098
 Frc consts  --     7.1609                 7.0259                 7.3083
 IR Inten    --    69.1490               623.2814                31.5820
 Raman Activ --    15.1069               155.2075                39.0962

                   124                    125                    126
                     A                      A                      A
 Frequencies --  3383.3316              3384.4999              3388.5397
 Red. masses --     1.0652                 1.0675                 1.0683
 Frc consts  --     7.1844                 7.2047                 7.2273
 IR Inten    --    43.1559                36.5343                45.9100
 Raman Activ --    82.7845               196.7689               165.9014

                   127                    128                    129
                     A                      A                      A
 Frequencies --  3399.9238              3919.2908              3920.7463
 Red. masses --     1.0678                 1.0676                 1.0677
 Frc consts  --     7.2723                 9.6617                 9.6704
 IR Inten    --    50.7090                58.9008                76.0050
 Raman Activ --   149.1770               143.6108                87.9442

 - Thermochemistry -
 -------------------
 Temperature   298.150 Kelvin.  Pressure   1.00000 Atm.
 Atom     1 has atomic number  8 and mass  15.99491

 Molecular mass:   342.11621 amu.
 Principal axes and moments of inertia in atomic units:
                           1         2         3
     Eigenvalues --  4259.84791********************
           X            0.99997   0.00797   0.00019
           Y           -0.00797   0.99997   0.00127
           Z           -0.00018  -0.00127   1.00000
 This molecule is an asymmetric top.
 Rotational symmetry number  1.
 Warning -- assumption of classical behavior for rotation
           may cause significant error
 Rotational temperatures (Kelvin)      0.02033     0.00679     0.00521
 Rotational constants (GHZ):           0.42366     0.14143     0.10846
    8 imaginary frequencies ignored.
 Zero-point vibrational energy     976032.0 (Joules/Mol)
                                  233.27724 (Kcal/Mol)
 Warning -- explicit consideration of  30 degrees of freedom as
           vibrations may cause significant error
 Vibrational temperatures:     18.66    97.72   138.66   149.79   220.18
          (Kelvin)            256.02   265.76   294.52   323.80   357.32
                              381.48   398.08   429.20   446.40   462.53
                              464.67   491.65   518.22   544.98   582.91
                              605.77   622.15   633.23   680.74   697.59
                              734.06   748.75   818.65   845.35   861.86
                              907.39   936.14   962.17   970.39  1032.66
                             1042.75  1073.54  1136.58  1198.26  1217.21
                             1252.93  1330.56  1377.40  1415.67  1429.63
                             1437.88  1459.24  1467.08  1484.95  1509.78
                             1528.05  1534.96  1556.92  1566.27  1573.76
                             1578.44  1589.41  1592.36  1610.61  1617.80
                             1644.17  1653.77  1665.96  1667.29  1675.67
                             1680.91  1699.97  1726.36  1736.88  1745.29
                             1772.14  1783.51  1805.81  1819.41  1836.73
                             1844.62  1859.44  1862.16  1864.81  1876.62
                             1892.71  1905.15  1920.15  1929.77  1942.58
                             1950.47  1959.39  1974.77  1990.46  2004.91
                             2013.19  2014.61  2071.52  2098.30  2105.04
                             2108.58  2128.95  2135.08  2141.14  4700.08
                             4710.26  4715.91  4724.93  4726.46  4735.63
                             4740.81  4748.57  4750.48  4753.03  4761.20
                             4764.54  4778.19  4779.00  4805.61  4810.02
                             4867.85  4869.53  4875.35  4891.73  5638.98
                             5641.07

 Zero-point correction=                           0.371751 (Hartree/Particle)
 Thermal correction to Energy=                    0.389447
 Thermal correction to Enthalpy=                  0.390392
 Thermal correction to Gibbs Free Energy=         0.326093
 Sum of electronic and zero-point Energies=          -1297.558433
 Sum of electronic and thermal Energies=             -1297.540736
 Sum of electronic and thermal Enthalpies=           -1297.539792
 Sum of electronic and thermal Free Energies=        -1297.604091

                     E (Thermal)             CV                S
                      KCal/Mol        Cal/Mol-Kelvin    Cal/Mol-Kelvin
 Total                  244.382             73.984            135.328
 Electronic               0.000              0.000              0.000
 Translational            0.889              2.981             43.384
 Rotational               0.889              2.981             35.158
 Vibrational            242.605             68.022             56.786
 Vibration     1          0.593              1.987              7.494
 Vibration     2          0.598              1.970              4.213
 Vibration     3          0.603              1.952              3.526
 Vibration     4          0.605              1.946              3.376
 Vibration     5          0.619              1.899              2.634
 Vibration     6          0.628              1.869              2.350
 Vibration     7          0.631              1.861              2.280
 Vibration     8          0.640              1.833              2.090
 Vibration     9          0.650              1.803              1.918
 Vibration    10          0.662              1.766              1.742
 Vibration    11          0.671              1.737              1.628
 Vibration    12          0.678              1.717              1.554
 Vibration    13          0.691              1.677              1.426
 Vibration    14          0.699              1.654              1.361
 Vibration    15          0.707              1.632              1.303
 Vibration    16          0.708              1.629              1.295
 Vibration    17          0.721              1.592              1.204
 Vibration    18          0.735              1.554              1.121
 Vibration    19          0.749              1.515              1.044
 Vibration    20          0.770              1.459              0.944
 Vibration    21          0.784              1.425              0.888
 Vibration    22          0.793              1.400              0.851
 Vibration    23          0.800              1.383              0.826
 Vibration    24          0.830              1.310              0.729
 Vibration    25          0.841              1.284              0.697
 Vibration    26          0.865              1.227              0.633
 Vibration    27          0.875              1.205              0.609
 Vibration    28          0.925              1.098              0.506
 Vibration    29          0.945              1.058              0.472
 Vibration    30          0.957              1.034              0.451

 Normal termination of Gaussian 09 at Tue Mar  1 03:15:29 2016.
