 Gaussian 09, Revision B.01,
 Gaussian 09:  EM64L-G09RevB.01 12-Aug-2010

 --------------------------------------------------
 # freq=raman b3lyp/6-31+g(2df,p) geom=connectivity
 --------------------------------------------------

 ------------
 320 7000.com
 ------------
 Symbolic Z-matrix:
 Charge =  0 Multiplicity = 1

                         Standard orientation:
 ---------------------------------------------------------------------
 Center     Atomic      Atomic             Coordinates (Angstroms)
 Number     Number       Type             X           Y           Z
 ---------------------------------------------------------------------
      1          8           0        5.012500   -0.447196   -0.372375
      2          6           0        3.709521   -0.149889    0.151942
      3          6           0        3.214342    1.213550   -0.301284
      4          8           0        4.094686    2.237815    0.183053
      5          1           0        5.007049    1.992034   -0.143752
      6          6           0        1.824291    1.558884    0.206732
      7          8           0        1.365755    2.829728   -0.276664
      8          1           0        0.427001    3.007441    0.021360
      9          6           0        2.889825   -2.607049    0.127207
     10          8           0        4.090007   -3.185161   -0.405916
     11          1           0        4.187440   -4.130662   -0.095976
     12          6           0        2.614443   -1.146281   -0.189632
     13          8           0        1.362254   -0.809000    0.425324
     14          6           0        0.837768    0.433984   -0.063013
     15          8           0       -0.376213    0.654347    0.668615
     16          6           0       -1.523008    0.229669   -0.082194
     17          6           0       -1.933549   -1.158062    0.382240
     18          8           0       -0.945633   -2.097539   -0.065787
     19          1           0       -0.079889   -1.810259    0.341968
     20          6           0       -3.294974   -1.528493   -0.183623
     21          8           0       -3.635633   -2.741101    0.504172
     22          1           0       -4.601062   -3.000110    0.483983
     23          6           0       -2.230691    2.619195   -0.272320
     24          8           0       -1.167754    3.326824    0.382675
     25          1           0       -1.177213    4.316333    0.243187
     26          6           0       -2.635121    1.228646    0.190186
     27          8           0       -3.831946    0.811454   -0.481687
     28          6           0       -4.307331   -0.423870    0.072124
     29          8           0       -5.497893   -0.682325   -0.685854
     30          1           0       -6.237290   -0.809397   -0.086902
     31          1           0       -4.524100   -0.324887    1.115251
     32          1           0       -3.214900   -1.714987   -1.234198
     33          1           0       -1.978380   -1.174534    1.451173
     34          1           0       -1.291976    0.213717   -1.126833
     35          1           0       -2.822877    1.256779    1.243209
     36          1           0       -3.102749    3.236154   -0.210856
     37          1           0       -1.965232    2.541090   -1.305921
     38          1           0        0.631808    0.363544   -1.110638
     39          1           0        1.901622    1.647876    1.270217
     40          1           0        5.631858   -0.556976    0.352845
     41          1           0        3.207772    1.240238   -1.370931
     42          1           0        3.795216   -0.122512    1.218153
     43          1           0        2.466473   -1.084542   -1.247551
     44          1           0        2.062373   -3.181164   -0.234200
     45          1           0        2.922912   -2.709647    1.191763
 ---------------------------------------------------------------------

 SCF Done:  E(RB3LYP) =  -1298.02820641     A.U. after   13 cycles

 The electronic state is 1-A.
 Alpha  occ. eigenvalues --  -19.18926 -19.18911 -19.18156 -19.18048 -19.17999
 Alpha  occ. eigenvalues --  -19.16761 -19.15875 -19.15867 -19.14827 -19.13421
 Alpha  occ. eigenvalues --  -19.12827 -10.30821 -10.30076 -10.25975 -10.25539
 Alpha  occ. eigenvalues --  -10.25508 -10.24870 -10.24652 -10.24553 -10.23960
 Alpha  occ. eigenvalues --  -10.23865 -10.23721 -10.23646  -1.10134  -1.09187
 Alpha  occ. eigenvalues --   -1.05572  -1.04916  -1.04053  -1.03273  -1.02583
 Alpha  occ. eigenvalues --   -1.02203  -1.01669  -1.00226  -0.99347  -0.81825
 Alpha  occ. eigenvalues --   -0.80181  -0.79135  -0.77968  -0.71788  -0.69909
 Alpha  occ. eigenvalues --   -0.67154  -0.64936  -0.63444  -0.62340  -0.61437
 Alpha  occ. eigenvalues --   -0.59973  -0.56502  -0.55731  -0.55173  -0.54376
 Alpha  occ. eigenvalues --   -0.53843  -0.53356  -0.52786  -0.51917  -0.50815
 Alpha  occ. eigenvalues --   -0.50409  -0.50000  -0.49423  -0.48447  -0.46449
 Alpha  occ. eigenvalues --   -0.46094  -0.44894  -0.43938  -0.43671  -0.42920
 Alpha  occ. eigenvalues --   -0.42282  -0.41372  -0.40737  -0.39724  -0.39574
 Alpha  occ. eigenvalues --   -0.39232  -0.37770  -0.37021  -0.36438  -0.35603
 Alpha  occ. eigenvalues --   -0.34995  -0.34850  -0.34379  -0.33872  -0.33487
 Alpha  occ. eigenvalues --   -0.32748  -0.31576  -0.30847  -0.30030  -0.29772
 Alpha  occ. eigenvalues --   -0.29666  -0.28759  -0.28546  -0.27127  -0.26231
 Alpha  occ. eigenvalues --   -0.26013
 Alpha virt. eigenvalues --   -0.02320  -0.01878  -0.01753   0.00032   0.00436
 Alpha virt. eigenvalues --    0.00908   0.02225   0.02326   0.03440   0.03693
 Alpha virt. eigenvalues --    0.03704   0.04408   0.05136   0.05431   0.05783

 Mulliken atomic charges:
              1
     1  O   -0.438456
     2  C   -0.185610
     3  C    0.183307
     4  O   -0.457073
     5  H    0.344495
     6  C   -0.372298
     7  O   -0.516306
     8  H    0.454001
     9  C   -0.207414
    10  O   -0.436327
    11  H    0.344971
    12  C   -0.022888
    13  O   -0.075080
    14  C   -0.000956
    15  O    0.020561
    16  C    0.284587
    17  C   -0.077289
    18  O   -0.453830
    19  H    0.394308
    20  C   -0.022494
    21  O   -0.466056
    22  H    0.339714
    23  C   -0.362702
    24  O   -0.510559
    25  H    0.379836
    26  C   -0.175562
    27  O   -0.052913
    28  C   -0.071825
    29  O   -0.456498
    30  H    0.343452
    31  H    0.137319
    32  H    0.147785
    33  H    0.138573
    34  H    0.121272
    35  H    0.129905
    36  H    0.151404
    37  H    0.160553
    38  H    0.126622
    39  H    0.134112
    40  H    0.350678
    41  H    0.130526
    42  H    0.123823
    43  H    0.117234
    44  H    0.158965
    45  H    0.144134
 Sum of Mulliken atomic charges =   0.00000

 Dipole moment (field-independent basis, Debye):
    X=             -2.5655    Y=             -0.1079    Z=              2.5269  Tot=              3.6026
 Quadrupole moment (field-independent basis, Debye-Ang):
   XX=           -114.7946   YY=           -134.7298   ZZ=           -140.3543
   XY=            -14.3263   XZ=             -1.8663   YZ=             -5.1582

  Exact polarizability: 233.289   1.426 197.114  -0.073  -1.700 143.209
 Approx polarizability: 273.874   0.455 255.862  -0.554  -1.179 240.671

 ******    6 imaginary frequencies (negative Signs) ******

                     1                      2                      3
                     A                      A                      A
 Frequencies --  -278.0805              -275.2794              -221.0597
 Red. masses --     1.7493                 1.7830                 1.2082
 Frc consts  --     0.0797                 0.0796                 0.0348
 IR Inten    --     5.5735                11.7607                92.9781
 Raman Activ --     0.0305                 0.0702                 0.8718

                     4                      5                      6
                     A                      A                      A
 Frequencies --  -205.5206               -61.1218               -21.6660
 Red. masses --     1.2440                 6.7591                 6.3790
 Frc consts  --     0.0310                 0.0149                 0.0018
 IR Inten    --    97.3121                 0.8028                 1.3082
 Raman Activ --     0.6632                 0.0313                 0.0200

                     7                      8                      9
                     A                      A                      A
 Frequencies --    38.2920                41.6226                71.7917
 Red. masses --     6.6959                 6.5454                 6.2095
 Frc consts  --     0.0058                 0.0067                 0.0189
 IR Inten    --     0.0128                 2.1699                 4.6706
 Raman Activ --     0.0379                 0.0194                 0.0807

                    10                     11                     12
                     A                      A                      A
 Frequencies --    87.2268               102.5748               136.4389
 Red. masses --     6.4883                 5.9074                 5.5185
 Frc consts  --     0.0291                 0.0366                 0.0605
 IR Inten    --     1.3510                 3.3292                 1.4432
 Raman Activ --     0.1545                 0.1852                 0.0697

                    13                     14                     15
                     A                      A                      A
 Frequencies --   167.9226               189.4973               196.9493
 Red. masses --     6.4176                 5.9672                 6.8203
 Frc consts  --     0.1066                 0.1262                 0.1559
 IR Inten    --     4.0705                 0.5347                 2.3308
 Raman Activ --     0.4801                 0.1786                 0.6664

                    16                     17                     18
                     A                      A                      A
 Frequencies --   219.1126               237.9923               268.5429
 Red. masses --     7.2892                 5.8137                 4.7156
 Frc consts  --     0.2062                 0.1940                 0.2004
 IR Inten    --     0.5580                 2.5186                20.8688
 Raman Activ --     2.8756                 0.1403                 0.4311

                    19                     20                     21
                     A                      A                      A
 Frequencies --   280.4696               292.7392               302.4444
 Red. masses --     4.5033                 4.6607                 5.1824
 Frc consts  --     0.2087                 0.2353                 0.2793
 IR Inten    --     0.7033                 2.4149                 3.0712
 Raman Activ --     0.0456                 0.2981                 0.6319

                    22                     23                     24
                     A                      A                      A
 Frequencies --   315.5188               321.1426               323.6275
 Red. masses --     5.2208                 6.0358                 5.8137
 Frc consts  --     0.3062                 0.3668                 0.3588
 IR Inten    --     2.2406                 1.0398                 9.7018
 Raman Activ --     1.1254                 2.5947                 3.6005

                    25                     26                     27
                     A                      A                      A
 Frequencies --   347.5011               365.9811               388.0208
 Red. masses --     6.8955                 4.6465                 6.2936
 Frc consts  --     0.4906                 0.3667                 0.5583
 IR Inten    --     6.9726                 3.1778                 2.1445
 Raman Activ --     1.6053                 0.0881                 1.5973

                    28                     29                     30
                     A                      A                      A
 Frequencies --   418.4224               422.2351               437.4878
 Red. masses --     5.9118                 4.4041                 4.8585
 Frc consts  --     0.6098                 0.4626                 0.5479
 IR Inten    --    14.1667                 9.8298                 6.8293
 Raman Activ --     2.6751                 5.4868                 1.9788

                    31                     32                     33
                     A                      A                      A
 Frequencies --   445.6512               482.0233               489.6577
 Red. masses --     5.5536                 5.0900                 4.1231
 Frc consts  --     0.6499                 0.6968                 0.5825
 IR Inten    --     6.1076                 3.8187                11.8587
 Raman Activ --     3.5484                 2.1195                 2.6217

                    34                     35                     36
                     A                      A                      A
 Frequencies --   520.2608               530.1740               564.4154
 Red. masses --     3.2238                 3.2406                 4.4204
 Frc consts  --     0.5141                 0.5367                 0.8297
 IR Inten    --    11.0871                10.5599                12.1122
 Raman Activ --     2.6496                 2.4384                 1.9361

                    37                     38                     39
                     A                      A                      A
 Frequencies --   586.3893               597.8488               620.6952
 Red. masses --     3.4693                 5.1155                 4.4998
 Frc consts  --     0.7028                 1.0773                 1.0214
 IR Inten    --    25.7065                 5.1100                31.5014
 Raman Activ --     0.1861                 0.7499                 0.5001

                    40                     41                     42
                     A                      A                      A
 Frequencies --   637.2709               682.0485               686.9910
 Red. masses --     3.7778                 1.2653                 2.3812
 Frc consts  --     0.9039                 0.3468                 0.6621
 IR Inten    --    26.0526                88.0836                18.6697
 Raman Activ --     1.0031                 2.2963                 0.7734

                    43                     44                     45
                     A                      A                      A
 Frequencies --   692.4727               694.9180               771.0660
 Red. masses --     1.1903                 1.0771                 1.0763
 Frc consts  --     0.3363                 0.3065                 0.3770
 IR Inten    --    95.5709               127.3644                94.8299
 Raman Activ --     1.9317                 1.7810                 1.8252

                    46                     47                     48
                     A                      A                      A
 Frequencies --   829.1526               844.4635               856.2227
 Red. masses --     1.1026                 1.2893                 1.7869
 Frc consts  --     0.4466                 0.5417                 0.7718
 IR Inten    --   151.2635                36.6768                 1.4847
 Raman Activ --     3.0200                 0.8120                 1.1674

                    49                     50                     51
                     A                      A                      A
 Frequencies --   882.1133               946.0531               963.8061
 Red. masses --     1.3055                 6.2208                 5.8638
 Frc consts  --     0.5985                 3.2804                 3.2093
 IR Inten    --    31.4890               201.1602                49.7715
 Raman Activ --     0.3248                 3.0060                 0.8626

                    52                     53                     54
                     A                      A                      A
 Frequencies --   983.1232               985.5415               990.1166
 Red. masses --     5.0387                 5.4763                 5.0835
 Frc consts  --     2.8693                 3.1339                 2.9362
 IR Inten    --    88.4537               183.3611                19.2470
 Raman Activ --     2.7560                 1.1151                 0.6657

                    55                     56                     57
                     A                      A                      A
 Frequencies --  1006.4332              1016.5424              1026.0754
 Red. masses --     7.5852                 5.9810                 5.7238
 Frc consts  --     4.5268                 3.6415                 3.5505
 IR Inten    --   168.5684                36.7266               200.5795
 Raman Activ --     1.7010                 1.3889                 2.7264

                    58                     59                     60
                     A                      A                      A
 Frequencies --  1038.9342              1049.8269              1065.7413
 Red. masses --     6.8169                 6.7505                 4.8245
 Frc consts  --     4.3352                 4.3835                 3.2286
 IR Inten    --   389.6645               104.4690                85.7939
 Raman Activ --     2.2504                 2.9129                 3.4923

                    61                     62                     63
                     A                      A                      A
 Frequencies --  1069.4526              1072.8440              1078.5134
 Red. masses --     4.3929                 4.1078                 3.5310
 Frc consts  --     2.9602                 2.7857                 2.4199
 IR Inten    --     9.6068                55.3488                18.4464
 Raman Activ --     6.2727                 6.0816                19.4475

                    64                     65                     66
                     A                      A                      A
 Frequencies --  1096.2324              1107.3229              1108.3508
 Red. masses --     1.9610                 3.1499                 2.6110
 Frc consts  --     1.3885                 2.2756                 1.8898
 IR Inten    --    78.6947                18.5274                16.7958
 Raman Activ --     2.1701                11.6039                 4.2807

                    67                     68                     69
                     A                      A                      A
 Frequencies --  1108.9680              1112.9899              1131.6131
 Red. masses --     2.6784                 2.9639                 2.7794
 Frc consts  --     1.9407                 2.1632                 2.0970
 IR Inten    --     6.4336                26.3917                26.8260
 Raman Activ --     8.0595                 1.8108                 5.6567

                    70                     71                     72
                     A                      A                      A
 Frequencies --  1140.5113              1142.5292              1153.9052
 Red. masses --     1.8440                 2.0891                 1.9517
 Frc consts  --     1.4132                 1.6068                 1.5311
 IR Inten    --     9.5682                 6.3981                 3.7959
 Raman Activ --     2.7523                 4.1197                 1.7418

                    73                     74                     75
                     A                      A                      A
 Frequencies --  1161.1796              1170.7804              1185.8263
 Red. masses --     1.6102                 1.8858                 1.6014
 Frc consts  --     1.2791                 1.5230                 1.3268
 IR Inten    --     7.9800                 0.9705                16.2938
 Raman Activ --     4.0308                 1.8413                 1.7509

                    76                     77                     78
                     A                      A                      A
 Frequencies --  1192.7666              1206.0902              1227.1583
 Red. masses --     1.3570                 1.3242                 1.2507
 Frc consts  --     1.1374                 1.1350                 1.1097
 IR Inten    --    10.9575                10.1637                11.7228
 Raman Activ --     3.0669                 2.3695                 0.1951

                    79                     80                     81
                     A                      A                      A
 Frequencies --  1234.8544              1239.0461              1251.8543
 Red. masses --     1.2449                 1.3052                 1.2229
 Frc consts  --     1.1185                 1.1806                 1.1292
 IR Inten    --    15.9246                20.3251                17.6739
 Raman Activ --     1.9784                 1.9621                 0.9511

                    82                     83                     84
                     A                      A                      A
 Frequencies --  1260.4947              1269.5342              1274.4643
 Red. masses --     1.2709                 1.1752                 1.2913
 Frc consts  --     1.1897                 1.1160                 1.2357
 IR Inten    --    37.9941                11.2492                21.1118
 Raman Activ --     4.7125                 4.2900                 0.8990

                    85                     86                     87
                     A                      A                      A
 Frequencies --  1284.2520              1289.3476              1298.3720
 Red. masses --     1.2755                 1.3519                 1.3007
 Frc consts  --     1.2395                 1.3241                 1.2919
 IR Inten    --    30.8462                19.1636                14.4250
 Raman Activ --     3.4653                 0.6540                 4.1987

                    88                     89                     90
                     A                      A                      A
 Frequencies --  1304.3356              1311.4985              1313.7743
 Red. masses --     1.1753                 1.2521                 1.3753
 Frc consts  --     1.1781                 1.2689                 1.3986
 IR Inten    --    19.1798                 3.5904                18.2287
 Raman Activ --     6.2394                 6.2917                 5.0914

                    91                     92                     93
                     A                      A                      A
 Frequencies --  1326.5788              1327.3600              1337.8893
 Red. masses --     1.2670                 1.3636                 1.3022
 Frc consts  --     1.3137                 1.4155                 1.3733
 IR Inten    --    22.8831                23.0367                23.2091
 Raman Activ --     2.3771                 5.9069                 1.7786

                    94                     95                     96
                     A                      A                      A
 Frequencies --  1340.1961              1356.6766              1361.2229
 Red. masses --     1.2650                 1.3614                 1.6968
 Frc consts  --     1.3387                 1.4764                 1.8524
 IR Inten    --    60.7980                 0.7282                11.1325
 Raman Activ --     5.0173                 2.5426                 7.6697

                    97                     98                     99
                     A                      A                      A
 Frequencies --  1374.0500              1383.2676              1397.6344
 Red. masses --     1.4796                 1.7138                 1.4070
 Frc consts  --     1.6458                 1.9320                 1.6193
 IR Inten    --     5.0630                24.2188                 2.6628
 Raman Activ --     5.8721                 1.3504                 1.8512

                   100                    101                    102
                     A                      A                      A
 Frequencies --  1399.1197              1429.7200              1443.6970
 Red. masses --     1.4636                 1.3984                 1.3833
 Frc consts  --     1.6880                 1.6842                 1.6987
 IR Inten    --     6.3342                24.4992                33.7780
 Raman Activ --    11.8676                 1.6012                 0.6368

                   103                    104                    105
                     A                      A                      A
 Frequencies --  1451.9777              1467.8464              1471.2739
 Red. masses --     1.4186                 1.0815                 1.0974
 Frc consts  --     1.7621                 1.3729                 1.3996
 IR Inten    --    13.9362                 4.4596                 1.8849
 Raman Activ --     2.6855                 4.3888                 3.1821

                   106                    107                    108
                     A                      A                      A
 Frequencies --  1504.0537              1517.2728              3200.2923
 Red. masses --     1.2490                 1.2427                 1.0701
 Frc consts  --     1.6647                 1.6856                 6.4576
 IR Inten    --    33.4896                37.6334               970.0547
 Raman Activ --     1.1050                 1.6425               185.0085

                   109                    110                    111
                     A                      A                      A
 Frequencies --  3253.2414              3259.2421              3260.0890
 Red. masses --     1.0581                 1.0611                 1.0775
 Frc consts  --     6.5979                 6.6411                 6.7473
 IR Inten    --    26.8665                15.1023                59.6362
 Raman Activ --    98.5194               137.5011                63.9818

                   112                    113                    114
                     A                      A                      A
 Frequencies --  3269.1306              3271.0900              3271.7532
 Red. masses --     1.0799                 1.0816                 1.0815
 Frc consts  --     6.8000                 6.8190                 6.8208
 IR Inten    --    70.4570                20.3438                84.0611
 Raman Activ --    23.8373               143.7860                20.2511

                   115                    116                    117
                     A                      A                      A
 Frequencies --  3277.5287              3282.1248              3283.5126
 Red. masses --     1.0817                 1.0852                 1.0792
 Frc consts  --     6.8465                 6.8873                 6.8556
 IR Inten    --   129.7277                32.4201               267.8160
 Raman Activ --    79.6371                29.5585               119.3322

                   118                    119                    120
                     A                      A                      A
 Frequencies --  3285.1718              3291.6074              3296.3716
 Red. masses --     1.0819                 1.0859                 1.0855
 Frc consts  --     6.8792                 6.9317                 6.9497
 IR Inten    --    93.3219                32.8129                89.2580
 Raman Activ --   118.2966                14.0787                23.0766

                   121                    122                    123
                     A                      A                      A
 Frequencies --  3304.8723              3308.6116              3312.7850
 Red. masses --     1.0875                 1.1053                 1.1035
 Frc consts  --     6.9983                 7.1291                 7.1349
 IR Inten    --    46.5263                67.3401                57.2279
 Raman Activ --    16.9601                46.3671                40.0263

                   124                    125                    126
                     A                      A                      A
 Frequencies --  3354.6404              3358.5883              3358.9540
 Red. masses --     1.0669                 1.0656                 1.0669
 Frc consts  --     7.0743                 7.0821                 7.0919
 IR Inten    --    23.9342                20.7523                55.8842
 Raman Activ --   187.2643                82.9704               212.5686

                   127                    128                    129
                     A                      A                      A
 Frequencies --  3367.8723              3874.8090              3878.2087
 Red. masses --     1.0677                 1.0678                 1.0675
 Frc consts  --     7.1353                 9.4455                 9.4594
 IR Inten    --    78.4256                82.5367                68.2903
 Raman Activ --   153.9650                85.9831               119.3855

 - Thermochemistry -
 -------------------
 Temperature   298.150 Kelvin.  Pressure   1.00000 Atm.
 Atom     1 has atomic number  8 and mass  15.99491

 Molecular mass:   342.11621 amu.
 Principal axes and moments of inertia in atomic units:
                           1         2         3
     Eigenvalues --  4425.35221********************
           X            0.99997  -0.00706  -0.00060
           Y            0.00706   0.99997  -0.00433
           Z            0.00063   0.00432   0.99999
 This molecule is an asymmetric top.
 Rotational symmetry number  1.
 Warning -- assumption of classical behavior for rotation
           may cause significant error
 Rotational temperatures (Kelvin)      0.01957     0.00723     0.00542
 Rotational constants (GHZ):           0.40782     0.15055     0.11290
    6 imaginary frequencies ignored.
 Zero-point vibrational energy     973573.5 (Joules/Mol)
                                  232.68965 (Kcal/Mol)
 Warning -- explicit consideration of  33 degrees of freedom as
           vibrations may cause significant error
 Vibrational temperatures:     55.09    59.89   103.29   125.50   147.58
          (Kelvin)            196.30   241.60   272.64   283.37   315.25
                              342.42   386.37   403.53   421.19   435.15
                              453.96   462.05   465.63   499.98   526.56
                              558.27   602.02   607.50   629.45   641.19
                              693.52   704.51   748.54   762.80   812.07
                              843.68   860.17   893.04   916.89   981.31
                              988.43   996.31   999.83  1109.39  1192.96
                             1214.99  1231.91  1269.16  1361.16  1386.70
                             1414.49  1417.97  1424.56  1448.03  1462.58
                             1476.29  1494.79  1510.46  1533.36  1538.70
                             1543.58  1551.74  1577.23  1593.19  1594.67
                             1595.56  1601.34  1628.14  1640.94  1643.84
                             1660.21  1670.68  1684.49  1706.14  1716.12
                             1735.29  1765.60  1776.68  1782.71  1801.14
                             1813.57  1826.57  1833.67  1847.75  1855.08
                             1868.07  1876.65  1886.95  1890.23  1908.65
                             1909.77  1924.92  1928.24  1951.95  1958.49
                             1976.95  1990.21  2010.88  2013.02  2057.05
                             2077.16  2089.07  2111.90  2116.83  2164.00
                             2183.01  4604.50  4680.68  4689.32  4690.54
                             4703.54  4706.36  4707.32  4715.63  4722.24
                             4724.24  4726.62  4735.88  4742.74  4754.97
                             4760.35  4766.35  4826.57  4832.25  4832.78
                             4845.61  5574.98  5579.87

 Zero-point correction=                           0.370815 (Hartree/Particle)
 Thermal correction to Energy=                    0.389749
 Thermal correction to Enthalpy=                  0.390694
 Thermal correction to Gibbs Free Energy=         0.324158
 Sum of electronic and zero-point Energies=          -1297.657392
 Sum of electronic and thermal Energies=             -1297.638457
 Sum of electronic and thermal Enthalpies=           -1297.637513
 Sum of electronic and thermal Free Energies=        -1297.704049

                     E (Thermal)             CV                S
                      KCal/Mol        Cal/Mol-Kelvin    Cal/Mol-Kelvin
 Total                  244.571             77.634            140.037
 Electronic               0.000              0.000              0.000
 Translational            0.889              2.981             43.384
 Rotational               0.889              2.981             35.093
 Vibrational            242.794             71.672             61.559
 Vibration     1          0.594              1.982              5.346
 Vibration     2          0.594              1.981              5.180
 Vibration     3          0.598              1.967              4.104
 Vibration     4          0.601              1.958              3.721
 Vibration     5          0.605              1.947              3.405
 Vibration     6          0.614              1.917              2.853
 Vibration     7          0.625              1.882              2.459
 Vibration     8          0.633              1.854              2.233
 Vibration     9          0.636              1.844              2.161
 Vibration    10          0.647              1.812              1.966
 Vibration    11          0.656              1.782              1.818
 Vibration    12          0.673              1.731              1.606
 Vibration    13          0.680              1.710              1.531
 Vibration    14          0.688              1.687              1.458
 Vibration    15          0.694              1.669              1.403
 Vibration    16          0.703              1.644              1.333
 Vibration    17          0.707              1.633              1.304
 Vibration    18          0.708              1.628              1.292
 Vibration    19          0.725              1.580              1.177
 Vibration    20          0.739              1.542              1.097
 Vibration    21          0.756              1.496              1.008
 Vibration    22          0.781              1.430              0.897
 Vibration    23          0.785              1.422              0.884
 Vibration    24          0.798              1.388              0.835
 Vibration    25          0.805              1.370              0.809
 Vibration    26          0.838              1.290              0.705
 Vibration    27          0.846              1.273              0.684
 Vibration    28          0.875              1.205              0.609
 Vibration    29          0.885              1.183              0.587
 Vibration    30          0.920              1.108              0.515
 Vibration    31          0.943              1.061              0.474
 Vibration    32          0.956              1.036              0.453
 Vibration    33          0.981              0.988              0.415

 Normal termination of Gaussian 09 at Fri Feb 12 13:13:17 2016.
