 Gaussian 09, Revision B.01,
 Gaussian 09:  EM64L-G09RevB.01 12-Aug-2010

 ------------------------------------------------
 # freq=raman b3lyp/6-31+g(d,p) geom=connectivity
 ------------------------------------------------

 ------------
 310 9000.com
 ------------
 Symbolic Z-matrix:
 Charge =  0 Multiplicity = 1

                         Standard orientation:
 ---------------------------------------------------------------------
 Center     Atomic      Atomic             Coordinates (Angstroms)
 Number     Number       Type             X           Y           Z
 ---------------------------------------------------------------------
      1          8           0       -4.927661   -0.423091    0.277116
      2          6           0       -3.664960   -0.160572   -0.353546
      3          6           0       -3.306549    1.243529    0.106030
      4          8           0       -4.230281    2.302175   -0.186395
      5          1           0       -5.073155    1.870073    0.135026
      6          6           0       -1.869705    1.652951   -0.171210
      7          8           0       -1.342217    2.780874    0.541569
      8          1           0       -0.361916    2.891772    0.380509
      9          6           0       -2.985379   -2.630957    0.023195
     10          8           0       -4.257572   -3.283329    0.151971
     11          1           0       -4.081176   -4.266502    0.194792
     12          6           0       -2.642636   -1.156773    0.167661
     13          8           0       -1.334718   -0.748595   -0.256262
     14          6           0       -0.932795    0.532563    0.250281
     15          8           0        0.295034    0.539674   -0.492290
     16          6           0        1.560871    0.199700    0.093096
     17          6           0        1.946883   -1.229137   -0.253325
     18          8           0        1.029611   -2.315381   -0.060002
     19          1           0        0.056132   -2.098256   -0.124354
     20          6           0        3.370627   -1.529419    0.186600
     21          8           0        3.906153   -2.748287   -0.348921
     22          1           0        4.771505   -2.891260    0.132107
     23          6           0        2.313287    2.649029    0.018747
     24          8           0        1.074179    3.334829   -0.209634
     25          1           0        1.214763    4.323295   -0.139370
     26          6           0        2.612105    1.204204   -0.348424
     27          8           0        3.946736    0.921266    0.095880
     28          6           0        4.350926   -0.427920   -0.180777
     29          8           0        5.435019   -0.558742    0.751052
     30          1           0       -5.575072   -0.662176   -0.390191
     31          1           0       -2.161302   -3.273396   -0.207173
     32          1           0       -3.809456   -1.988518    0.253564
     33          1           0       -2.637233   -0.998863    1.225931
     34          1           0       -3.747546   -0.209783   -1.419218
     35          1           0       -3.345475    1.168820    1.172709
     36          1           0       -1.756159    1.823689   -1.221380
     37          1           0       -0.763274    0.512120    1.306569
     38          1           0        3.064042    3.234475   -0.469639
     39          1           0        2.499184    2.726482    1.069624
     40          1           0        2.633814    1.161979   -1.417370
     41          1           0        6.246846   -0.744374    0.273476
     42          1           0        4.696271   -0.531964   -1.188156
     43          1           0        3.366212   -1.617993    1.252918
     44          1           0        2.029057   -1.191665   -1.319507
     45          1           0        1.463627    0.267703    1.156496
 ---------------------------------------------------------------------

 SCF Done:  E(RB3LYP) =  -1297.59809084     A.U. after   19 cycles

 The electronic state is 1-A.
 Alpha  occ. eigenvalues --  -19.21029 -19.20397 -19.19777 -19.19167 -19.18927
 Alpha  occ. eigenvalues --  -19.18693 -19.18172 -19.17235 -19.17198 -19.14569
 Alpha  occ. eigenvalues --  -19.13702 -10.31242 -10.31177 -10.30134 -10.27313
 Alpha  occ. eigenvalues --  -10.26916 -10.26422 -10.26078 -10.25302 -10.25276
 Alpha  occ. eigenvalues --  -10.24979 -10.24682 -10.19456  -1.10538  -1.09586
 Alpha  occ. eigenvalues --   -1.08658  -1.06628  -1.06234  -1.03839  -1.03323
 Alpha  occ. eigenvalues --   -1.03244  -1.02470  -1.00409  -0.99948  -0.84643
 Alpha  occ. eigenvalues --   -0.81891  -0.79739  -0.79553  -0.73843  -0.71075
 Alpha  occ. eigenvalues --   -0.68242  -0.65312  -0.63717  -0.63530  -0.61492
 Alpha  occ. eigenvalues --   -0.60600  -0.57713  -0.56836  -0.56574  -0.55962
 Alpha  occ. eigenvalues --   -0.55172  -0.54133  -0.53480  -0.52218  -0.51710
 Alpha  occ. eigenvalues --   -0.51350  -0.50625  -0.49809  -0.49181  -0.48032
 Alpha  occ. eigenvalues --   -0.46360  -0.45828  -0.45180  -0.43832  -0.43395
 Alpha  occ. eigenvalues --   -0.42305  -0.42141  -0.40760  -0.40081  -0.39112
 Alpha  occ. eigenvalues --   -0.38893  -0.38590  -0.38068  -0.37625  -0.37030
 Alpha  occ. eigenvalues --   -0.36918  -0.35117  -0.34528  -0.34037  -0.33737
 Alpha  occ. eigenvalues --   -0.33176  -0.32391  -0.31127  -0.30152  -0.29690
 Alpha  occ. eigenvalues --   -0.29324  -0.28511  -0.28217  -0.26932  -0.26288
 Alpha  occ. eigenvalues --   -0.13490
 Alpha virt. eigenvalues --   -0.07637  -0.02442  -0.01789  -0.01312   0.00290
 Alpha virt. eigenvalues --    0.01124   0.01213   0.02042   0.02615   0.03135
 Alpha virt. eigenvalues --    0.03272   0.03447   0.04060   0.04775   0.05212

 Mulliken atomic charges:
              1
     1  O   -0.596099
     2  C    0.251959
     3  C   -0.017515
     4  O   -0.479222
     5  H    0.352390
     6  C   -0.018901
     7  O   -0.566176
     8  H    0.461436
     9  C   -0.461335
    10  O   -0.503674
    11  H    0.387309
    12  C   -0.099684
    13  O   -0.400552
    14  C    0.159377
    15  O   -0.325984
    16  C    0.034213
    17  C    0.017304
    18  O   -0.545370
    19  H    0.415832
    20  C    0.089312
    21  O   -0.483895
    22  H    0.346982
    23  C   -0.073286
    24  O   -0.639848
    25  H    0.401081
    26  C   -0.094912
    27  O   -0.297596
    28  C    0.223812
    29  O   -0.558824
    30  H    0.394358
    31  H    0.164365
    32  H    0.370906
    33  H    0.151065
    34  H    0.172707
    35  H    0.135352
    36  H    0.147936
    37  H    0.144986
    38  H    0.140418
    39  H    0.150895
    40  H    0.137573
    41  H    0.362161
    42  H    0.145768
    43  H    0.156472
    44  H    0.125513
    45  H    0.121389
 Sum of Mulliken atomic charges =   0.00000

 Dipole moment (field-independent basis, Debye):
    X=              1.6008    Y=              0.7347    Z=             -0.9803  Tot=              2.0158
 Quadrupole moment (field-independent basis, Debye-Ang):
   XX=           -108.3122   YY=           -139.3965   ZZ=           -143.0217
   XY=             16.8378   XZ=             -0.9987   YZ=             -2.8183

  Exact polarizability: 241.776   7.122 223.222   1.662  -2.727 147.901
 Approx polarizability: 285.355   9.728 287.802   0.498  -0.011 240.436

 ******   12 imaginary frequencies (negative Signs) ******

                     1                      2                      3
                     A                      A                      A
 Frequencies -- -3186.4224             -1090.5560              -860.9802
 Red. masses --     1.1029                 1.1872                 1.2007
 Frc consts  --     6.5977                 0.8319                 0.5244
 IR Inten    --   161.2241               237.3273               485.3883
 Raman Activ --  7447.2674               100.3440               545.9944

                     4                      5                      6
                     A                      A                      A
 Frequencies --  -668.5876              -324.4979              -312.4648
 Red. masses --     5.8172                 1.7031                 1.5761
 Frc consts  --     1.5321                 0.1057                 0.0907
 IR Inten    --   214.5982                 0.5555               125.8214
 Raman Activ --   149.2782                 0.2607                63.8808

                     7                      8                      9
                     A                      A                      A
 Frequencies --  -276.8761              -163.3846               -92.4328
 Red. masses --     1.1834                 3.8989                 4.9162
 Frc consts  --     0.0534                 0.0613                 0.0247
 IR Inten    --   116.2824                46.0387                17.3065
 Raman Activ --     1.4191                 9.3004                 1.3312

                    10                     11                     12
                     A                      A                      A
 Frequencies --   -71.2547               -67.5187               -26.9905
 Red. masses --     6.0562                 5.8315                 5.6630
 Frc consts  --     0.0181                 0.0157                 0.0024
 IR Inten    --     3.4688                 4.1284                 9.0362
 Raman Activ --     0.4762                 0.7401                 0.9938

                    13                     14                     15
                     A                      A                      A
 Frequencies --    25.6840                56.2160                65.5175
 Red. masses --     6.2320                 5.2556                 6.5294
 Frc consts  --     0.0024                 0.0098                 0.0165
 IR Inten    --     3.0171                 8.7422                 1.0286
 Raman Activ --     0.4103                 2.2115                 0.2370

                    16                     17                     18
                     A                      A                      A
 Frequencies --    94.5770               112.3209               144.7474
 Red. masses --     5.3254                 7.3224                 5.5816
 Frc consts  --     0.0281                 0.0544                 0.0689
 IR Inten    --     9.3410                 7.9213                37.3538
 Raman Activ --     0.9194                 1.4334                 1.1808

                    19                     20                     21
                     A                      A                      A
 Frequencies --   172.2980               202.6522               220.4207
 Red. masses --     7.2559                 6.6492                 4.5861
 Frc consts  --     0.1269                 0.1609                 0.1313
 IR Inten    --     0.3524                 0.4221                 2.5296
 Raman Activ --     1.3485                 5.2144                 3.4085

                    22                     23                     24
                     A                      A                      A
 Frequencies --   235.8791               256.7274               270.5010
 Red. masses --     2.9710                 3.8962                 3.5807
 Frc consts  --     0.0974                 0.1513                 0.1544
 IR Inten    --    13.6148                 6.5323                 2.4498
 Raman Activ --     3.9001                 0.8429                 1.0028

                    25                     26                     27
                     A                      A                      A
 Frequencies --   290.6235               302.7324               315.2702
 Red. masses --     5.5308                 5.7724                 4.8608
 Frc consts  --     0.2752                 0.3117                 0.2847
 IR Inten    --     0.8217                 0.1366                12.7631
 Raman Activ --     0.6690                 2.9594                 4.6235

                    28                     29                     30
                     A                      A                      A
 Frequencies --   319.2426               328.8853               349.3299
 Red. masses --     2.0343                 5.8630                 4.3212
 Frc consts  --     0.1222                 0.3736                 0.3107
 IR Inten    --    48.2783                20.5076                 2.3338
 Raman Activ --    18.0021                 1.4604                 0.9668

                    31                     32                     33
                     A                      A                      A
 Frequencies --   374.0280               403.1093               416.5729
 Red. masses --     7.3590                 4.1778                 5.6141
 Frc consts  --     0.6066                 0.4000                 0.5740
 IR Inten    --     3.0605                15.8442                 4.9376
 Raman Activ --     5.2797                 0.3561                 0.9302

                    34                     35                     36
                     A                      A                      A
 Frequencies --   418.8847               435.6702               451.1518
 Red. masses --     5.4629                 4.5360                 5.4312
 Frc consts  --     0.5648                 0.5073                 0.6513
 IR Inten    --     0.0986                 6.6126                 5.6589
 Raman Activ --     9.8858                 1.3842                 4.3295

                    37                     38                     39
                     A                      A                      A
 Frequencies --   472.2530               480.0058               541.9385
 Red. masses --     4.1620                 4.1667                 3.0130
 Frc consts  --     0.5469                 0.5656                 0.5214
 IR Inten    --     4.3214                12.5787                28.7730
 Raman Activ --     5.5290                 0.3790                 2.9002

                    40                     41                     42
                     A                      A                      A
 Frequencies --   567.8304               584.6313               600.9643
 Red. masses --     3.4712                 3.3339                 5.6203
 Frc consts  --     0.6594                 0.6714                 1.1959
 IR Inten    --     6.9417                12.4745                25.0445
 Raman Activ --     2.7460                 0.6431                 2.9324

                    43                     44                     45
                     A                      A                      A
 Frequencies --   619.8809               625.4189               678.6241
 Red. masses --     4.4888                 4.0150                 4.1043
 Frc consts  --     1.0162                 0.9253                 1.1136
 IR Inten    --     2.1508                31.9366                 6.6899
 Raman Activ --     1.3499                21.0360                34.2710

                    46                     47                     48
                     A                      A                      A
 Frequencies --   695.2420               705.3750               747.2040
 Red. masses --     1.1391                 1.0823                 1.0821
 Frc consts  --     0.3244                 0.3173                 0.3559
 IR Inten    --    63.6174               147.3070                89.5263
 Raman Activ --     5.2579                 2.1256                 1.8330

                    49                     50                     51
                     A                      A                      A
 Frequencies --   765.5518               820.9451               837.1611
 Red. masses --     1.1038                 1.1855                 5.3801
 Frc consts  --     0.3811                 0.4707                 2.2216
 IR Inten    --    84.5845                86.6492               252.7922
 Raman Activ --     1.4476                 0.2947                95.4223

                    52                     53                     54
                     A                      A                      A
 Frequencies --   865.5361               903.4498               949.3972
 Red. masses --     1.5650                 5.9310                 4.8403
 Frc consts  --     0.6908                 2.8522                 2.5705
 IR Inten    --    27.4409                66.5812               150.6055
 Raman Activ --     3.8357                16.6221                16.9588

                    55                     56                     57
                     A                      A                      A
 Frequencies --   951.3208               983.6017               987.6199
 Red. masses --     5.4472                 5.6173                 5.5579
 Frc consts  --     2.9045                 3.2020                 3.1941
 IR Inten    --   103.2094                99.8844                56.5287
 Raman Activ --    39.6540                 3.7176                11.0899

                    58                     59                     60
                     A                      A                      A
 Frequencies --   999.5588              1006.0462              1016.3138
 Red. masses --     5.9386                 5.4046                 3.0731
 Frc consts  --     3.4959                 3.2229                 1.8701
 IR Inten    --   301.3421                80.2062                45.0034
 Raman Activ --     5.3271                 1.5818                 3.3636

                    61                     62                     63
                     A                      A                      A
 Frequencies --  1034.6072              1060.2036              1067.5855
 Red. masses --     3.8888                 4.1061                 3.9861
 Frc consts  --     2.4526                 2.7193                 2.6767
 IR Inten    --    48.1667               180.1472                26.3218
 Raman Activ --    26.5353                18.5158                24.6479

                    64                     65                     66
                     A                      A                      A
 Frequencies --  1076.7776              1081.5729              1094.7690
 Red. masses --     4.3613                 2.9567                 4.1173
 Frc consts  --     2.9794                 2.0378                 2.9074
 IR Inten    --    35.6520                71.2434                27.3994
 Raman Activ --    20.4555                38.5841                 9.2098

                    67                     68                     69
                     A                      A                      A
 Frequencies --  1112.9135              1120.5817              1130.1045
 Red. masses --     2.0312                 2.2824                 2.5821
 Frc consts  --     1.4823                 1.6886                 1.9430
 IR Inten    --    17.3851                 4.4392               218.3563
 Raman Activ --     7.9460                12.4135                 4.6867

                    70                     71                     72
                     A                      A                      A
 Frequencies --  1133.9561              1139.6820              1146.1197
 Red. masses --     2.4845                 2.0021                 2.5020
 Frc consts  --     1.8822                 1.5322                 1.9364
 IR Inten    --    35.7808                69.2066                 8.7846
 Raman Activ --     1.8562                10.2685                12.3818

                    73                     74                     75
                     A                      A                      A
 Frequencies --  1153.3685              1159.7697              1164.4955
 Red. masses --     1.6920                 1.7834                 1.8128
 Frc consts  --     1.3261                 1.4133                 1.4484
 IR Inten    --    65.4964                 9.7580                28.3010
 Raman Activ --    40.9898                 5.4912                 9.8288

                    76                     77                     78
                     A                      A                      A
 Frequencies --  1175.5524              1195.2691              1199.5603
 Red. masses --     1.6504                 2.0494                 1.4771
 Frc consts  --     1.3437                 1.7251                 1.2523
 IR Inten    --     6.4814                25.9507                42.1421
 Raman Activ --    33.8394                 5.8323                54.7682

                    79                     80                     81
                     A                      A                      A
 Frequencies --  1207.8002              1218.4689              1224.3261
 Red. masses --     1.3109                 1.5226                 1.5554
 Frc consts  --     1.1267                 1.3319                 1.3737
 IR Inten    --    19.3261                22.8689                23.3509
 Raman Activ --    44.1731                23.5017                 9.3187

                    82                     83                     84
                     A                      A                      A
 Frequencies --  1238.9334              1251.8031              1269.8054
 Red. masses --     1.4060                 1.2454                 1.3604
 Frc consts  --     1.2715                 1.1498                 1.2924
 IR Inten    --    39.9022                 1.3457                12.3714
 Raman Activ --     1.8251                 1.6235                 4.1741

                    85                     86                     87
                     A                      A                      A
 Frequencies --  1280.7417              1291.5750              1296.4080
 Red. masses --     1.2921                 1.3170                 1.2836
 Frc consts  --     1.2488                 1.2944                 1.2710
 IR Inten    --     5.2915                36.8524                17.1795
 Raman Activ --     1.0710                 0.4737                 1.9695

                    88                     89                     90
                     A                      A                      A
 Frequencies --  1316.1719              1317.7623              1322.0071
 Red. masses --     1.2965                 1.3502                 1.3803
 Frc consts  --     1.3232                 1.3814                 1.4213
 IR Inten    --    40.1629                20.5398                48.6947
 Raman Activ --     4.3887                 9.6701                17.2273

                    91                     92                     93
                     A                      A                      A
 Frequencies --  1330.2441              1343.8691              1354.0449
 Red. masses --     1.1871                 1.2210                 1.4189
 Frc consts  --     1.2376                 1.2992                 1.5328
 IR Inten    --    19.7977                27.5937                19.6845
 Raman Activ --     5.2724                 6.2518                10.0277

                    94                     95                     96
                     A                      A                      A
 Frequencies --  1359.7303              1363.2214              1364.0540
 Red. masses --     1.4634                 1.5331                 1.1704
 Frc consts  --     1.5941                 1.6786                 1.2831
 IR Inten    --    20.5319                13.6066                21.6643
 Raman Activ --     3.7169                12.1456                 6.3176

                    97                     98                     99
                     A                      A                      A
 Frequencies --  1390.0800              1391.2991              1399.0442
 Red. masses --     1.5643                 1.2107                 1.3269
 Frc consts  --     1.7809                 1.3808                 1.5302
 IR Inten    --    24.0843                29.3374                 7.8799
 Raman Activ --     8.5294                17.9362                22.6998

                   100                    101                    102
                     A                      A                      A
 Frequencies --  1401.5826              1402.8976              1451.5881
 Red. masses --     1.3829                 1.3908                 1.5022
 Frc consts  --     1.6005                 1.6128                 1.8649
 IR Inten    --     2.6123                 1.5173                32.1907
 Raman Activ --    55.8991                 6.6235                 1.3959

                   103                    104                    105
                     A                      A                      A
 Frequencies --  1453.8440              1474.8499              1480.9072
 Red. masses --     1.3256                 1.2953                 1.1962
 Frc consts  --     1.6508                 1.6601                 1.5457
 IR Inten    --    25.5598               154.1707                 5.2077
 Raman Activ --     1.8579                49.5344                 0.6583

                   106                    107                    108
                     A                      A                      A
 Frequencies --  1484.0412              1497.5257              2954.8466
 Red. masses --     1.1722                 1.3765                 1.0335
 Frc consts  --     1.5210                 1.8188                 5.3164
 IR Inten    --     6.2988                51.8373               305.3964
 Raman Activ --     5.7804                 3.5648              1343.3201

                   109                    110                    111
                     A                      A                      A
 Frequencies --  3183.9938              3235.6076              3256.3668
 Red. masses --     1.0803                 1.0707                 1.0798
 Frc consts  --     6.4530                 6.6043                 6.7460
 IR Inten    --   156.7603              1171.6781                48.4701
 Raman Activ --   198.7812               169.5381                65.9485

                   112                    113                    114
                     A                      A                      A
 Frequencies --  3268.0317              3272.6452              3274.9053
 Red. masses --     1.0810                 1.0635                 1.0782
 Frc consts  --     6.8023                 6.7109                 6.8129
 IR Inten    --    20.5326                 5.4227                 5.4353
 Raman Activ --   124.3693               196.4072                39.8195

                   115                    116                    117
                     A                      A                      A
 Frequencies --  3290.2290              3299.4754              3303.0130
 Red. masses --     1.0850                 1.0853                 1.0847
 Frc consts  --     6.9207                 6.9614                 6.9722
 IR Inten    --    20.1675                25.6330                19.3838
 Raman Activ --    13.9756                66.3921                34.8344

                   118                    119                    120
                     A                      A                      A
 Frequencies --  3314.7343              3317.5821              3321.2394
 Red. masses --     1.0877                 1.0865                 1.0878
 Frc consts  --     7.0414                 7.0459                 7.0694
 IR Inten    --    47.8098                 3.6657                37.3034
 Raman Activ --    47.3058               101.5249                37.7146

                   121                    122                    123
                     A                      A                      A
 Frequencies --  3322.7426              3335.1574              3364.3551
 Red. masses --     1.1036                 1.0713                 1.0680
 Frc consts  --     7.1789                 7.0207                 7.1223
 IR Inten    --    67.4085                28.5409               500.0836
 Raman Activ --    46.9104              2804.1294               160.8991

                   124                    125                    126
                     A                      A                      A
 Frequencies --  3385.1143              3386.0639              3386.7165
 Red. masses --     1.0644                 1.0657                 1.0673
 Frc consts  --     7.1864                 7.1992                 7.2125
 IR Inten    --    25.0372                41.1936                69.0545
 Raman Activ --   100.0789               111.9430               187.6702

                   127                    128                    129
                     A                      A                      A
 Frequencies --  3410.4265              3918.9492              3923.6145
 Red. masses --     1.1484                 1.0675                 1.0673
 Frc consts  --     7.8699                 9.6600                 9.6812
 IR Inten    --   152.3573                60.7432                84.3343
 Raman Activ --    66.7446               137.1983               105.0857

 - Thermochemistry -
 -------------------
 Temperature   298.150 Kelvin.  Pressure   1.00000 Atm.
 Atom     1 has atomic number  8 and mass  15.99491

 Molecular mass:   342.11621 amu.
 Principal axes and moments of inertia in atomic units:
                           1         2         3
     Eigenvalues --  4501.98288********************
           X            0.99997   0.00799  -0.00099
           Y           -0.00799   0.99997  -0.00074
           Z            0.00098   0.00075   1.00000
 This molecule is an asymmetric top.
 Rotational symmetry number  1.
 Warning -- assumption of classical behavior for rotation
           may cause significant error
 Rotational temperatures (Kelvin)      0.01924     0.00703     0.00526
 Rotational constants (GHZ):           0.40088     0.14655     0.10956
   12 imaginary frequencies ignored.
 Zero-point vibrational energy     943974.6 (Joules/Mol)
                                  225.61535 (Kcal/Mol)
 Warning -- explicit consideration of  31 degrees of freedom as
           vibrations may cause significant error
 Vibrational temperatures:     36.95    80.88    94.26   136.07   161.60
          (Kelvin)            208.26   247.90   291.57   317.14   339.38
                              369.37   389.19   418.14   435.56   453.60
                              459.32   473.19   502.61   538.14   579.98
                              599.35   602.68   626.83   649.11   679.47
                              690.62   779.73   816.98   841.15   864.65
                              891.87   899.84   976.39  1000.30  1014.88
                             1075.06  1101.46  1181.16  1204.49  1245.31
                             1299.86  1365.97  1368.74  1415.18  1420.96
                             1438.14  1447.47  1462.25  1488.57  1525.39
                             1536.02  1549.24  1556.14  1575.13  1601.23
                             1612.27  1625.97  1631.51  1639.75  1649.01
                             1659.44  1668.65  1675.45  1691.36  1719.72
                             1725.90  1737.75  1753.10  1761.53  1782.55
                             1801.06  1826.96  1842.70  1858.29  1865.24
                             1893.68  1895.96  1902.07  1913.92  1933.53
                             1948.17  1956.35  1961.37  1962.57  2000.01
                             2001.77  2012.91  2016.56  2018.45  2088.51
                             2091.75  2121.98  2130.69  2135.20  2154.60
                             4251.36  4581.05  4655.31  4685.18  4701.96
                             4708.60  4711.85  4733.90  4747.20  4752.29
                             4769.16  4773.25  4778.52  4780.68  4798.54
                             4840.55  4870.42  4871.78  4872.72  4906.84
                             5638.49  5645.20

 Zero-point correction=                           0.359541 (Hartree/Particle)
 Thermal correction to Energy=                    0.377523
 Thermal correction to Enthalpy=                  0.378467
 Thermal correction to Gibbs Free Energy=         0.313444
 Sum of electronic and zero-point Energies=          -1297.238550
 Sum of electronic and thermal Energies=             -1297.220568
 Sum of electronic and thermal Enthalpies=           -1297.219624
 Sum of electronic and thermal Free Energies=        -1297.284647

                     E (Thermal)             CV                S
                      KCal/Mol        Cal/Mol-Kelvin    Cal/Mol-Kelvin
 Total                  236.899             73.304            136.852
 Electronic               0.000              0.000              0.000
 Translational            0.889              2.981             43.384
 Rotational               0.889              2.981             35.167
 Vibrational            235.122             67.342             58.300
 Vibration     1          0.593              1.985              6.138
 Vibration     2          0.596              1.975              4.586
 Vibration     3          0.597              1.971              4.284
 Vibration     4          0.603              1.953              3.563
 Vibration     5          0.607              1.939              3.228
 Vibration     6          0.616              1.908              2.740
 Vibration     7          0.626              1.877              2.410
 Vibration     8          0.639              1.836              2.109
 Vibration     9          0.647              1.810              1.956
 Vibration    10          0.655              1.786              1.834
 Vibration    11          0.666              1.751              1.684
 Vibration    12          0.674              1.728              1.593
 Vibration    13          0.687              1.691              1.470
 Vibration    14          0.694              1.669              1.402
 Vibration    15          0.703              1.644              1.335
 Vibration    16          0.705              1.637              1.314
 Vibration    17          0.712              1.618              1.266
 Vibration    18          0.727              1.577              1.169
 Vibration    19          0.745              1.525              1.063
 Vibration    20          0.769              1.463              0.951
 Vibration    21          0.780              1.434              0.904
 Vibration    22          0.782              1.429              0.896
 Vibration    23          0.796              1.392              0.840
 Vibration    24          0.810              1.358              0.792
 Vibration    25          0.829              1.312              0.731
 Vibration    26          0.836              1.294              0.710
 Vibration    27          0.897              1.157              0.561
 Vibration    28          0.924              1.101              0.508
 Vibration    29          0.942              1.065              0.477
 Vibration    30          0.959              1.030              0.448
 Vibration    31          0.980              0.990              0.417

 Normal termination of Gaussian 09 at Tue Mar  1 03:53:45 2016.
