 Gaussian 09, Revision B.01,
 Gaussian 09:  EM64L-G09RevB.01 12-Aug-2010

 -------------------------------------------------
 # freq=raman b3lyp/6-31+g(2d,p) geom=connectivity
 -------------------------------------------------

 -----------------
 483 8302/8302.com
 -----------------
 Symbolic Z-matrix:
 Charge =  0 Multiplicity = 1

                         Standard orientation:
 ---------------------------------------------------------------------
 Center     Atomic      Atomic             Coordinates (Angstroms)
 Number     Number       Type             X           Y           Z
 ---------------------------------------------------------------------
      1          8           0        5.058412   -0.243086   -0.501237
      2          6           0        3.781625   -0.058059    0.127937
      3          6           0        3.173551    1.222365   -0.420993
      4          8           0        4.122431    2.269897   -0.173860
      5          1           0        4.980299    1.758687   -0.117490
      6          6           0        1.833648    1.498540    0.239949
      7          8           0        1.285281    2.715663   -0.287816
      8          1           0        0.392398    2.870022    0.135419
      9          6           0        3.167594   -2.568754    0.275221
     10          8           0        4.270562   -3.186246   -0.404125
     11          1           0        4.099996   -4.171741   -0.421039
     12          6           0        2.779599   -1.164115   -0.157253
     13          8           0        1.512074   -0.802965    0.410599
     14          6           0        0.859906    0.376412   -0.080494
     15          8           0       -0.353342    0.521227    0.672033
     16          6           0       -1.543611    0.159944   -0.043242
     17          6           0       -2.106062   -1.129043    0.533561
     18          8           0       -1.074392   -2.120115    0.637111
     19          1           0       -0.360904   -1.599641    1.106988
     20          6           0       -3.345410   -1.492698   -0.268263
     21          8           0       -3.886072   -2.774157    0.085043
     22          1           0       -4.842629   -2.839324   -0.197801
     23          6           0       -2.299818    2.645404   -0.082962
     24          8           0       -1.151477    3.209413    0.566753
     25          1           0       -1.186126    4.207846    0.526104
     26          6           0       -2.615939    1.196974    0.253139
     27          8           0       -3.794714    0.863188   -0.493960
     28          6           0       -4.378634   -0.390054   -0.109052
     29          8           0       -5.565148   -0.607328   -0.887170
     30          1           0       -6.293508   -0.832854   -0.303878
     31          1           0       -4.656175   -0.332628    0.922730
     32          1           0       -3.065868   -1.531415   -1.300376
     33          1           0       -2.431247   -0.913731    1.529952
     34          1           0       -1.361553    0.073327   -1.094076
     35          1           0       -2.852503    1.141379    1.295179
     36          1           0       -3.151781    3.239291    0.174637
     37          1           0       -2.150715    2.715709   -1.140187
     38          1           0        5.717093   -0.449251    0.166022
     39          1           0        2.311622   -3.198168    0.148536
     40          1           0        3.402687   -2.536545    1.318578
     41          1           0        2.648421   -1.194610   -1.218744
     42          1           0        3.916167    0.036451    1.185229
     43          1           0        3.030264    1.119468   -1.476351
     44          1           0        1.958656    1.582922    1.299266
     45          1           0        0.667781    0.309385   -1.130968
 ---------------------------------------------------------------------

 SCF Done:  E(RB3LYP) =  -1297.99489204     A.U. after   13 cycles

 The electronic state is 1-A.
 Alpha  occ. eigenvalues --  -19.19186 -19.19143 -19.18792 -19.18409 -19.17369
 Alpha  occ. eigenvalues --  -19.17014 -19.16423 -19.16262 -19.14794 -19.13947
 Alpha  occ. eigenvalues --  -19.12182 -10.31482 -10.30124 -10.26555 -10.25806
 Alpha  occ. eigenvalues --  -10.25759 -10.25266 -10.25099 -10.24805 -10.24672
 Alpha  occ. eigenvalues --  -10.23957 -10.23355 -10.23262  -1.09958  -1.09270
 Alpha  occ. eigenvalues --   -1.06003  -1.05688  -1.04508  -1.03996  -1.03031
 Alpha  occ. eigenvalues --   -1.02597  -1.01319  -1.01075  -0.99147  -0.82601
 Alpha  occ. eigenvalues --   -0.80157  -0.79839  -0.78042  -0.72188  -0.69949
 Alpha  occ. eigenvalues --   -0.67149  -0.64496  -0.63392  -0.62141  -0.61831
 Alpha  occ. eigenvalues --   -0.60347  -0.56936  -0.55936  -0.55497  -0.54671
 Alpha  occ. eigenvalues --   -0.54137  -0.53552  -0.53031  -0.51725  -0.50966
 Alpha  occ. eigenvalues --   -0.50790  -0.49650  -0.49288  -0.48401  -0.46942
 Alpha  occ. eigenvalues --   -0.46049  -0.45506  -0.44665  -0.43871  -0.43634
 Alpha  occ. eigenvalues --   -0.42517  -0.42010  -0.40810  -0.40575  -0.39979
 Alpha  occ. eigenvalues --   -0.38570  -0.38161  -0.37487  -0.36670  -0.35930
 Alpha  occ. eigenvalues --   -0.35820  -0.35416  -0.34410  -0.34017  -0.33592
 Alpha  occ. eigenvalues --   -0.33064  -0.31555  -0.31468  -0.30354  -0.29863
 Alpha  occ. eigenvalues --   -0.28914  -0.28733  -0.28310  -0.27125  -0.26790
 Alpha  occ. eigenvalues --   -0.25618
 Alpha virt. eigenvalues --   -0.02693  -0.02029  -0.01738  -0.00270   0.00142
 Alpha virt. eigenvalues --    0.00727   0.01714   0.02320   0.03375   0.03641
 Alpha virt. eigenvalues --    0.03970   0.04425   0.04885   0.05220   0.05415

 Mulliken atomic charges:
              1
     1  O   -0.538870
     2  C   -0.285982
     3  C    0.267905
     4  O   -0.555867
     5  H    0.345163
     6  C   -0.016813
     7  O   -0.603528
     8  H    0.431608
     9  C   -0.289766
    10  O   -0.512750
    11  H    0.339407
    12  C    0.275438
    13  O   -0.271903
    14  C    0.279660
    15  O   -0.245079
    16  C    0.275632
    17  C    0.091408
    18  O   -0.518481
    19  H    0.360961
    20  C    0.084497
    21  O   -0.538368
    22  H    0.329990
    23  C   -0.286153
    24  O   -0.565903
    25  H    0.365921
    26  C    0.015504
    27  O   -0.269972
    28  C    0.110240
    29  O   -0.545888
    30  H    0.341248
    31  H    0.122925
    32  H    0.122896
    33  H    0.106332
    34  H    0.113901
    35  H    0.120582
    36  H    0.149839
    37  H    0.160813
    38  H    0.346117
    39  H    0.152416
    40  H    0.137047
    41  H    0.108324
    42  H    0.125428
    43  H    0.119013
    44  H    0.123486
    45  H    0.121619
 Sum of Mulliken atomic charges =   0.00000

 Dipole moment (field-independent basis, Debye):
    X=             -3.5946    Y=             -0.3821    Z=              2.5576  Tot=              4.4282
 Quadrupole moment (field-independent basis, Debye-Ang):
   XX=           -117.6718   YY=           -138.1932   ZZ=           -139.9694
   XY=            -17.9356   XZ=              2.4725   YZ=              4.0893

  Exact polarizability: 232.461   0.496 195.248   1.950  -0.477 144.449
 Approx polarizability: 274.125  -0.024 255.406   2.867  -0.135 240.108

 ******    6 imaginary frequencies (negative Signs) ******

                     1                      2                      3
                     A                      A                      A
 Frequencies --  -272.1749              -235.1308              -210.7479
 Red. masses --     1.7461                 1.8156                 1.2737
 Frc consts  --     0.0762                 0.0591                 0.0333
 IR Inten    --     4.1643                 3.7312               108.7844
 Raman Activ --     0.1182                 0.0792                 0.6547

                     4                      5                      6
                     A                      A                      A
 Frequencies --   -98.2063               -77.1685               -35.3686
 Red. masses --     1.8271                 6.9587                 6.2409
 Frc consts  --     0.0104                 0.0244                 0.0046
 IR Inten    --    55.2391                 0.8423                 0.2669
 Raman Activ --     0.3275                 0.0461                 0.0686

                     7                      8                      9
                     A                      A                      A
 Frequencies --    28.2547                42.1270                79.7435
 Red. masses --     5.9953                 6.2681                 6.7451
 Frc consts  --     0.0028                 0.0066                 0.0253
 IR Inten    --     1.6310                 2.6523                 0.4969
 Raman Activ --     0.0232                 0.0992                 0.1051

                    10                     11                     12
                     A                      A                      A
 Frequencies --    89.7239               109.5337               142.9704
 Red. masses --     5.7930                 2.6840                 5.5924
 Frc consts  --     0.0275                 0.0190                 0.0674
 IR Inten    --     2.5185                43.7349                 0.9507
 Raman Activ --     0.3571                 0.3038                 0.0620

                    13                     14                     15
                     A                      A                      A
 Frequencies --   159.4640               178.9657               184.2088
 Red. masses --     6.3742                 7.8544                 5.7733
 Frc consts  --     0.0955                 0.1482                 0.1154
 IR Inten    --     2.8557                 0.4469                 7.7864
 Raman Activ --     0.3838                 1.0416                 0.3810

                    16                     17                     18
                     A                      A                      A
 Frequencies --   223.2922               237.7828               258.6221
 Red. masses --     6.6696                 5.7019                 4.2671
 Frc consts  --     0.1959                 0.1899                 0.1682
 IR Inten    --     0.1768                 1.9113                22.3939
 Raman Activ --     2.5580                 0.4576                 0.1601

                    19                     20                     21
                     A                      A                      A
 Frequencies --   286.6425               301.8515               305.2439
 Red. masses --     4.6319                 5.2375                 4.0648
 Frc consts  --     0.2242                 0.2812                 0.2231
 IR Inten    --     1.8061                 1.8479                 1.0834
 Raman Activ --     0.1771                 0.5919                 0.4365

                    22                     23                     24
                     A                      A                      A
 Frequencies --   309.5166               315.1949               335.1439
 Red. masses --     6.5464                 4.4893                 4.3323
 Frc consts  --     0.3695                 0.2628                 0.2867
 IR Inten    --     1.9503                 7.1957                 1.1157
 Raman Activ --     3.0489                 1.6630                 1.8357

                    25                     26                     27
                     A                      A                      A
 Frequencies --   351.3421               363.1154               385.8266
 Red. masses --     6.0863                 4.6864                 7.7441
 Frc consts  --     0.4427                 0.3641                 0.6792
 IR Inten    --    16.7552                 2.7653                 2.0554
 Raman Activ --     3.3043                 0.1370                 2.0030

                    28                     29                     30
                     A                      A                      A
 Frequencies --   411.1748               421.3483               430.4033
 Red. masses --     5.2412                 4.6681                 6.1631
 Frc consts  --     0.5221                 0.4883                 0.6727
 IR Inten    --     9.9029                 4.3081                 2.8137
 Raman Activ --     1.1460                 4.8057                 2.8876

                    31                     32                     33
                     A                      A                      A
 Frequencies --   436.4483               483.8734               490.7585
 Red. masses --     4.7849                 4.7638                 3.8931
 Frc consts  --     0.5370                 0.6572                 0.5524
 IR Inten    --     2.0346                10.1035                16.2094
 Raman Activ --     3.3852                 0.8383                 1.9044

                    34                     35                     36
                     A                      A                      A
 Frequencies --   515.8153               535.9881               570.7713
 Red. masses --     3.8562                 3.2749                 4.2006
 Frc consts  --     0.6045                 0.5543                 0.8063
 IR Inten    --    11.7370                 4.5922                22.0801
 Raman Activ --     2.7967                 4.5493                 1.2848

                    37                     38                     39
                     A                      A                      A
 Frequencies --   593.1575               599.5631               602.0939
 Red. masses --     4.5257                 3.3646                 6.0424
 Frc consts  --     0.9382                 0.7126                 1.2906
 IR Inten    --    12.0516                28.5864                32.0115
 Raman Activ --     0.7973                 0.8242                 0.8037

                    40                     41                     42
                     A                      A                      A
 Frequencies --   630.6711               675.9562               698.2682
 Red. masses --     3.8099                 4.6558                 1.0884
 Frc consts  --     0.8928                 1.2534                 0.3127
 IR Inten    --     3.8044                20.1849                91.7935
 Raman Activ --     0.4611                 0.3545                 1.6789

                    43                     44                     45
                     A                      A                      A
 Frequencies --   702.9690               727.3429               753.1187
 Red. masses --     1.0675                 1.0879                 1.1041
 Frc consts  --     0.3108                 0.3391                 0.3690
 IR Inten    --    79.6155               120.9947                61.3329
 Raman Activ --     1.7277                 1.7203                 0.9125

                    46                     47                     48
                     A                      A                      A
 Frequencies --   787.6731               849.5980               859.0819
 Red. masses --     1.1126                 1.7576                 1.5030
 Frc consts  --     0.4067                 0.7475                 0.6536
 IR Inten    --   164.7052                 1.3733                17.8215
 Raman Activ --     4.4577                 0.9861                 0.5839

                    49                     50                     51
                     A                      A                      A
 Frequencies --   898.1680               922.3556               952.9828
 Red. masses --     1.3901                 3.4910                 6.1134
 Frc consts  --     0.6607                 1.7499                 3.2712
 IR Inten    --    28.6734               184.9741                76.4174
 Raman Activ --     1.1257                 2.4157                 0.7105

                    52                     53                     54
                     A                      A                      A
 Frequencies --   964.0064               983.5446               989.3721
 Red. masses --     3.7535                 4.3647                 6.5329
 Frc consts  --     2.0551                 2.4877                 3.7677
 IR Inten    --    30.0036                11.2785               258.4843
 Raman Activ --     1.5062                 1.3308                 1.2800

                    55                     56                     57
                     A                      A                      A
 Frequencies --   997.8468              1016.8326              1024.4449
 Red. masses --     6.4550                 5.8896                 5.4793
 Frc consts  --     3.7868                 3.5878                 3.3881
 IR Inten    --   227.0783                77.0420               132.8780
 Raman Activ --     1.2045                 2.5744                 2.2141

                    58                     59                     60
                     A                      A                      A
 Frequencies --  1030.3346              1049.9433              1059.9010
 Red. masses --     7.8141                 6.5147                 3.4748
 Frc consts  --     4.8875                 4.2313                 2.2999
 IR Inten    --   438.4385               152.5474                43.0076
 Raman Activ --     1.8253                 0.7646                 5.4507

                    61                     62                     63
                     A                      A                      A
 Frequencies --  1063.4199              1068.9210              1076.5863
 Red. masses --     3.8289                 4.1999                 4.1316
 Frc consts  --     2.5511                 2.8274                 2.8214
 IR Inten    --    59.5349                 1.0955                 8.2644
 Raman Activ --     4.0891                 8.9965                15.6470

                    64                     65                     66
                     A                      A                      A
 Frequencies --  1087.3115              1098.9644              1106.4076
 Red. masses --     3.1603                 2.9369                 2.6986
 Frc consts  --     2.2013                 2.0898                 1.9463
 IR Inten    --    54.5453                17.4343               101.4481
 Raman Activ --    11.4728                 6.6774                 5.8216

                    67                     68                     69
                     A                      A                      A
 Frequencies --  1121.5920              1122.7627              1132.9339
 Red. masses --     2.1019                 2.3908                 1.8081
 Frc consts  --     1.5579                 1.7757                 1.3674
 IR Inten    --    14.6533                30.9947                41.1479
 Raman Activ --     7.7639                 7.3034                 1.6598

                    70                     71                     72
                     A                      A                      A
 Frequencies --  1142.5025              1149.3551              1155.8834
 Red. masses --     2.1907                 3.0441                 2.7301
 Frc consts  --     1.6848                 2.3693                 2.1491
 IR Inten    --     8.4877                21.6544                49.5918
 Raman Activ --     4.9494                 3.7610                 2.4209

                    73                     74                     75
                     A                      A                      A
 Frequencies --  1167.4478              1180.4615              1186.5644
 Red. masses --     2.0421                 1.8327                 2.0469
 Frc consts  --     1.6398                 1.5047                 1.6980
 IR Inten    --     3.3358                 1.6960                16.3475
 Raman Activ --     2.5980                 1.9024                 2.9019

                    76                     77                     78
                     A                      A                      A
 Frequencies --  1204.2825              1206.3027              1217.9987
 Red. masses --     1.3224                 1.2885                 1.5246
 Frc consts  --     1.1300                 1.1047                 1.3326
 IR Inten    --     7.7267                 9.9568                 1.5451
 Raman Activ --     0.8877                 0.8985                 2.8070

                    79                     80                     81
                     A                      A                      A
 Frequencies --  1243.5027              1253.2186              1262.4602
 Red. masses --     1.2302                 1.2226                 1.2049
 Frc consts  --     1.1208                 1.1313                 1.1314
 IR Inten    --     7.9399                 9.6785                 7.5773
 Raman Activ --     1.0544                 0.9499                 1.8716

                    82                     83                     84
                     A                      A                      A
 Frequencies --  1269.2483              1275.0758              1287.7559
 Red. masses --     1.3173                 1.2712                 1.3062
 Frc consts  --     1.2504                 1.2177                 1.2762
 IR Inten    --     7.6020                19.2069                 2.2296
 Raman Activ --     3.9466                 2.9641                 3.0600

                    85                     86                     87
                     A                      A                      A
 Frequencies --  1289.9565              1295.6732              1302.6228
 Red. masses --     1.3397                 1.3266                 1.2725
 Frc consts  --     1.3134                 1.3121                 1.2722
 IR Inten    --    28.4594                36.8682                26.0867
 Raman Activ --     1.1114                 4.8376                 2.9630

                    88                     89                     90
                     A                      A                      A
 Frequencies --  1307.6961              1311.1642              1329.4349
 Red. masses --     1.3020                 1.2872                 1.2082
 Frc consts  --     1.3118                 1.3038                 1.2581
 IR Inten    --     5.4298                 7.5393                 7.1265
 Raman Activ --     3.7862                 9.5688                 4.9107

                    91                     92                     93
                     A                      A                      A
 Frequencies --  1335.8059              1347.0650              1348.1693
 Red. masses --     1.2489                 1.2790                 1.1655
 Frc consts  --     1.3130                 1.3674                 1.2481
 IR Inten    --    57.6353                24.6167                43.5172
 Raman Activ --     5.0123                 2.0371                 1.7236

                    94                     95                     96
                     A                      A                      A
 Frequencies --  1364.6769              1370.9561              1376.1097
 Red. masses --     1.1962                 1.4105                 1.5164
 Frc consts  --     1.3126                 1.5619                 1.6919
 IR Inten    --    33.5682                 2.9693                 6.1592
 Raman Activ --     6.8982                13.2966                 3.5398

                    97                     98                     99
                     A                      A                      A
 Frequencies --  1386.4282              1392.5400              1395.4945
 Red. masses --     1.2566                 1.5095                 1.4505
 Frc consts  --     1.4231                 1.7247                 1.6643
 IR Inten    --     0.7719                 2.7739                 4.4857
 Raman Activ --     0.8770                 4.7790                 3.9576

                   100                    101                    102
                     A                      A                      A
 Frequencies --  1419.1695              1458.1376              1466.2233
 Red. masses --     1.5006                 1.4196                 1.2531
 Frc consts  --     1.7807                 1.7784                 1.5872
 IR Inten    --    36.9783                35.1489                20.6628
 Raman Activ --     0.9315                 1.1827                 3.4722

                   103                    104                    105
                     A                      A                      A
 Frequencies --  1473.3363              1476.6807              1503.7757
 Red. masses --     1.1579                 1.0816                 1.3124
 Frc consts  --     1.4808                 1.3896                 1.7485
 IR Inten    --     7.8842                 3.5154                35.0256
 Raman Activ --     1.9584                 4.6541                 2.4069

                   106                    107                    108
                     A                      A                      A
 Frequencies --  1507.7489              1523.0145              3230.7994
 Red. masses --     1.2381                 1.2420                 1.0684
 Frc consts  --     1.6583                 1.6974                 6.5704
 IR Inten    --    71.5097                55.4100              1052.0406
 Raman Activ --     0.5419                 1.1912               142.7613

                   109                    110                    111
                     A                      A                      A
 Frequencies --  3254.9184              3258.0685              3265.6494
 Red. masses --     1.0593                 1.0825                 1.0589
 Frc consts  --     6.6119                 6.7700                 6.6532
 IR Inten    --    25.3961                25.3464                17.5499
 Raman Activ --   100.2838                 7.0294               175.3244

                   112                    113                    114
                     A                      A                      A
 Frequencies --  3267.8229              3268.7946              3276.7930
 Red. masses --     1.0806                 1.0825                 1.0822
 Frc consts  --     6.7990                 6.8151                 6.8463
 IR Inten    --    25.1000                 1.0774                12.1652
 Raman Activ --    20.0271                90.5989               142.9363

                   115                    116                    117
                     A                      A                      A
 Frequencies --  3277.9485              3284.4385              3286.6666
 Red. masses --     1.0827                 1.0854                 1.0856
 Frc consts  --     6.8540                 6.8988                 6.9091
 IR Inten    --     8.6393                16.5650                33.8001
 Raman Activ --    76.4574                44.5837                41.8449

                   118                    119                    120
                     A                      A                      A
 Frequencies --  3290.2596              3301.1418              3305.4982
 Red. masses --     1.0868                 1.0875                 1.0866
 Frc consts  --     6.9318                 6.9822                 6.9952
 IR Inten    --    20.8167                12.6164                74.9238
 Raman Activ --    22.6990                 7.4461                26.1683

                   121                    122                    123
                     A                      A                      A
 Frequencies --  3312.7558              3321.7267              3339.5062
 Red. masses --     1.1046                 1.1070                 1.0646
 Frc consts  --     7.1422                 7.1963                 6.9951
 IR Inten    --    52.2308                41.6831                62.4354
 Raman Activ --    31.1488                49.4501                72.8632

                   124                    125                    126
                     A                      A                      A
 Frequencies --  3349.8334              3367.6737              3371.2198
 Red. masses --     1.0648                 1.0687                 1.0659
 Frc consts  --     7.0399                 7.1410                 7.1376
 IR Inten    --   188.3599                45.6292                34.2506
 Raman Activ --    85.4480               140.6687               129.6290

                   127                    128                    129
                     A                      A                      A
 Frequencies --  3374.9130              3888.5730              3892.2195
 Red. masses --     1.0669                 1.0675                 1.0676
 Frc consts  --     7.1599                 9.5108                 9.5287
 IR Inten    --    67.7864                76.8706                88.2836
 Raman Activ --   142.0658                90.0250               101.1812

 - Thermochemistry -
 -------------------
 Temperature   298.150 Kelvin.  Pressure   1.00000 Atm.
 Atom     1 has atomic number  8 and mass  15.99491

 Molecular mass:   342.11621 amu.
 Principal axes and moments of inertia in atomic units:
                           1         2         3
     Eigenvalues --  4369.01070********************
           X            0.99997  -0.00796  -0.00007
           Y            0.00796   0.99997   0.00001
           Z            0.00007  -0.00001   1.00000
 This molecule is an asymmetric top.
 Rotational symmetry number  1.
 Warning -- assumption of classical behavior for rotation
           may cause significant error
 Rotational temperatures (Kelvin)      0.01982     0.00688     0.00528
 Rotational constants (GHZ):           0.41308     0.14342     0.11003
    6 imaginary frequencies ignored.
 Zero-point vibrational energy     976179.3 (Joules/Mol)
                                  233.31245 (Kcal/Mol)
 Warning -- explicit consideration of  33 degrees of freedom as
           vibrations may cause significant error
 Vibrational temperatures:     40.65    60.61   114.73   129.09   157.59
          (Kelvin)            205.70   229.43   257.49   265.04   321.27
                              342.12   372.10   412.41   434.30   439.18
                              445.32   453.49   482.20   505.50   522.44
                              555.12   591.59   606.23   619.25   627.95
                              696.19   706.09   742.14   771.17   821.21
                              853.42   862.64   866.28   907.39   972.55
                             1004.65  1011.41  1046.48  1083.57  1133.28
                             1222.38  1236.03  1292.26  1327.06  1371.13
                             1386.99  1415.10  1423.48  1435.68  1462.99
                             1473.95  1482.42  1510.63  1524.96  1530.02
                             1537.94  1548.97  1564.40  1581.16  1591.87
                             1613.72  1615.40  1630.04  1643.80  1653.66
                             1663.06  1679.69  1698.42  1707.20  1732.69
                             1735.60  1752.43  1789.12  1803.10  1816.40
                             1826.16  1834.55  1852.79  1855.96  1864.18
                             1874.18  1881.48  1886.47  1912.76  1921.92
                             1938.12  1939.71  1963.46  1972.50  1979.91
                             1994.76  2003.55  2007.80  2041.87  2097.93
                             2109.57  2119.80  2124.61  2163.60  2169.31
                             2191.28  4648.39  4683.10  4687.63  4698.54
                             4701.66  4703.06  4714.57  4716.23  4725.57
                             4728.77  4733.94  4749.60  4755.87  4766.31
                             4779.22  4804.80  4819.66  4845.33  4850.43
                             4855.74  5594.78  5600.03

 Zero-point correction=                           0.371807 (Hartree/Particle)
 Thermal correction to Energy=                    0.390771
 Thermal correction to Enthalpy=                  0.391715
 Thermal correction to Gibbs Free Energy=         0.324947
 Sum of electronic and zero-point Energies=          -1297.623085
 Sum of electronic and thermal Energies=             -1297.604121
 Sum of electronic and thermal Enthalpies=           -1297.603177
 Sum of electronic and thermal Free Energies=        -1297.669945

                     E (Thermal)             CV                S
                      KCal/Mol        Cal/Mol-Kelvin    Cal/Mol-Kelvin
 Total                  245.212             77.617            140.526
 Electronic               0.000              0.000              0.000
 Translational            0.889              2.981             43.384
 Rotational               0.889              2.981             35.154
 Vibrational            243.435             71.655             61.987
 Vibration     1          0.593              1.984              5.948
 Vibration     2          0.595              1.980              5.156
 Vibration     3          0.600              1.963              3.897
 Vibration     4          0.602              1.956              3.666
 Vibration     5          0.606              1.942              3.277
 Vibration     6          0.616              1.910              2.764
 Vibration     7          0.621              1.892              2.556
 Vibration     8          0.629              1.868              2.339
 Vibration     9          0.631              1.861              2.285
 Vibration    10          0.649              1.806              1.932
 Vibration    11          0.656              1.783              1.819
 Vibration    12          0.667              1.748              1.671
 Vibration    13          0.684              1.699              1.494
 Vibration    14          0.694              1.670              1.407
 Vibration    15          0.696              1.664              1.388
 Vibration    16          0.699              1.656              1.365
 Vibration    17          0.703              1.645              1.335
 Vibration    18          0.716              1.605              1.235
 Vibration    19          0.728              1.573              1.160
 Vibration    20          0.737              1.548              1.109
 Vibration    21          0.755              1.500              1.016
 Vibration    22          0.775              1.446              0.922
 Vibration    23          0.784              1.424              0.887
 Vibration    24          0.792              1.404              0.857
 Vibration    25          0.797              1.391              0.838
 Vibration    26          0.840              1.286              0.700
 Vibration    27          0.847              1.271              0.682
 Vibration    28          0.871              1.215              0.620
 Vibration    29          0.891              1.170              0.574
 Vibration    30          0.927              1.094              0.503
 Vibration    31          0.951              1.046              0.462
 Vibration    32          0.958              1.033              0.450
 Vibration    33          0.960              1.027              0.446

 Normal termination of Gaussian 09 at Thu Mar 31 02:57:01 2016.
