 Gaussian 09, Revision B.01,
 Gaussian 09:  EM64L-G09RevB.01 12-Aug-2010

 --------------------------------------------------
 # freq=raman b3lyp/6-31+g(2df,p) geom=connectivity
 --------------------------------------------------

 ------------
 500 9000.com
 ------------
 Symbolic Z-matrix:
 Charge =  0 Multiplicity = 1

                         Standard orientation:
 ---------------------------------------------------------------------
 Center     Atomic      Atomic             Coordinates (Angstroms)
 Number     Number       Type             X           Y           Z
 ---------------------------------------------------------------------
      1          8           0       -5.071901   -0.749647    0.256133
      2          6           0       -3.835139   -0.125665   -0.116561
      3          6           0       -3.435947    1.278704    0.306794
      4          8           0       -4.454972    2.214528   -0.073525
      5          1           0       -5.322378    1.857561    0.274800
      6          6           0       -1.987029    1.706820    0.138876
      7          8           0       -1.615061    2.738641    1.063841
      8          1           0       -2.121764    3.600393    1.075913
      9          6           0       -3.115519   -2.346553   -0.660555
     10          8           0       -2.269237   -3.446001   -0.292198
     11          1           0       -2.566256   -4.222088   -0.848929
     12          6           0       -2.686057   -1.098555    0.093590
     13          8           0       -1.433404   -0.618279   -0.413963
     14          6           0       -0.991093    0.565280    0.266611
     15          8           0        0.126421    0.621070   -0.631648
     16          6           0        1.412091    0.261559   -0.104670
     17          6           0        1.769704   -1.214435   -0.049636
     18          8           0        0.797369   -2.002037    0.653778
     19          1           0       -0.078835   -1.737996    0.250417
     20          6           0        3.165876   -1.478351    0.488867
     21          8           0        3.387677   -2.895397    0.443198
     22          1           0        2.664893   -3.320505    0.988386
     23          6           0        2.166867    2.424686   -0.228165
     24          8           0        2.995056    3.581334   -0.416344
     25          1           0        2.402592    4.366810   -0.237641
     26          6           0        2.507316    1.057129   -0.796400
     27          8           0        3.816056    0.808871   -0.263136
     28          6           0        4.148248   -0.586646   -0.252624
     29          8           0        5.379224   -0.573738    0.485120
     30          1           0        6.100274   -0.329591   -0.099757
     31          1           0        4.309935   -0.944674   -1.247899
     32          1           0        3.178709   -1.184122    1.517538
     33          1           0        1.765648   -1.562437   -1.061456
     34          1           0        1.407820    0.593204    0.912627
     35          1           0        2.457952    1.022423   -1.864697
     36          1           0        2.062516    2.295833    0.828910
     37          1           0        1.200274    2.679103   -0.610094
     38          1           0       -5.643483   -0.811606   -0.512668
     39          1           0       -3.035159   -2.172131   -1.713180
     40          1           0       -4.130336   -2.580022   -0.414511
     41          1           0       -2.590324   -1.322846    1.135429
     42          1           0       -3.915238   -0.043956   -1.180426
     43          1           0       -3.536644    1.240061    1.371345
     44          1           0       -1.886765    2.109474   -0.847388
     45          1           0       -0.697177    0.368508    1.276460
 ---------------------------------------------------------------------

 SCF Done:  E(RB3LYP) =  -1297.96439718     A.U. after   13 cycles

 The electronic state is 1-A.
 Alpha  occ. eigenvalues --  -19.19536 -19.19336 -19.18253 -19.18121 -19.17535
 Alpha  occ. eigenvalues --  -19.16493 -19.16447 -19.14964 -19.14708 -19.14593
 Alpha  occ. eigenvalues --  -19.14389 -10.32126 -10.28936 -10.28091 -10.26836
 Alpha  occ. eigenvalues --  -10.26741 -10.25699 -10.24711 -10.24519 -10.24312
 Alpha  occ. eigenvalues --  -10.23887 -10.23280 -10.21922  -1.11563  -1.07501
 Alpha  occ. eigenvalues --   -1.07263  -1.05413  -1.03893  -1.03669  -1.02795
 Alpha  occ. eigenvalues --   -1.02390  -1.01116  -1.00276  -0.99789  -0.82787
 Alpha  occ. eigenvalues --   -0.82245  -0.78977  -0.77999  -0.72347  -0.69233
 Alpha  occ. eigenvalues --   -0.68003  -0.65202  -0.63550  -0.61978  -0.61388
 Alpha  occ. eigenvalues --   -0.59498  -0.57655  -0.57040  -0.55390  -0.54237
 Alpha  occ. eigenvalues --   -0.53798  -0.53431  -0.53138  -0.52172  -0.51121
 Alpha  occ. eigenvalues --   -0.50635  -0.49296  -0.49074  -0.48510  -0.46793
 Alpha  occ. eigenvalues --   -0.45901  -0.45093  -0.44468  -0.43997  -0.43417
 Alpha  occ. eigenvalues --   -0.42906  -0.41913  -0.40997  -0.40109  -0.39772
 Alpha  occ. eigenvalues --   -0.37875  -0.37712  -0.37043  -0.36578  -0.36043
 Alpha  occ. eigenvalues --   -0.35910  -0.35423  -0.34265  -0.34105  -0.33369
 Alpha  occ. eigenvalues --   -0.33019  -0.31294  -0.30895  -0.30291  -0.29650
 Alpha  occ. eigenvalues --   -0.29532  -0.28767  -0.28286  -0.27228  -0.27159
 Alpha  occ. eigenvalues --   -0.25992
 Alpha virt. eigenvalues --   -0.03475  -0.02032  -0.01189  -0.00371   0.00722
 Alpha virt. eigenvalues --    0.00794   0.01433   0.01661   0.01981   0.02858
 Alpha virt. eigenvalues --    0.03184   0.04253   0.04783   0.05107   0.05857

 Mulliken atomic charges:
              1
     1  O   -0.456909
     2  C   -0.205133
     3  C    0.028604
     4  O   -0.474065
     5  H    0.352727
     6  C    0.185707
     7  O   -0.497754
     8  H    0.374896
     9  C   -0.379995
    10  O   -0.444970
    11  H    0.336638
    12  C    0.048835
    13  O   -0.046249
    14  C   -0.220485
    15  O   -0.016291
    16  C   -0.094963
    17  C    0.129836
    18  O   -0.501378
    19  H    0.412342
    20  C   -0.204051
    21  O   -0.441280
    22  H    0.364254
    23  C   -0.334690
    24  O   -0.453952
    25  H    0.330859
    26  C   -0.074387
    27  O   -0.014347
    28  C    0.097099
    29  O   -0.433874
    30  H    0.334849
    31  H    0.126835
    32  H    0.138176
    33  H    0.122788
    34  H    0.102588
    35  H    0.137213
    36  H    0.136523
    37  H    0.151315
    38  H    0.360123
    39  H    0.148975
    40  H    0.166206
    41  H    0.134843
    42  H    0.124367
    43  H    0.135124
    44  H    0.147570
    45  H    0.165479
 Sum of Mulliken atomic charges =   0.00000

 Dipole moment (field-independent basis, Debye):
    X=             -8.3208    Y=              0.8533    Z=             -2.3990  Tot=              8.7017
 Quadrupole moment (field-independent basis, Debye-Ang):
   XX=           -131.4150   YY=           -137.1872   ZZ=           -136.4004
   XY=              3.7203   XZ=             -0.7813   YZ=              9.8225

  Exact polarizability: 225.821  -1.908 201.950   1.258   1.433 145.953
 Approx polarizability: 269.776  -0.019 262.963   1.991   0.732 242.354

 ******    7 imaginary frequencies (negative Signs) ******

                     1                      2                      3
                     A                      A                      A
 Frequencies --  -301.3682              -198.6397              -173.8356
 Red. masses --     1.6597                 2.0480                 1.0890
 Frc consts  --     0.0888                 0.0476                 0.0194
 IR Inten    --     2.6847                 4.0505               104.4589
 Raman Activ --     0.1155                 0.0804                 1.8169

                     4                      5                      6
                     A                      A                      A
 Frequencies --   -86.3237               -68.2865               -51.4629
 Red. masses --     6.1002                 6.8324                 6.0418
 Frc consts  --     0.0268                 0.0188                 0.0094
 IR Inten    --     1.1534                 0.3351                 0.2313
 Raman Activ --     0.0747                 0.0929                 0.0470

                     7                      8                      9
                     A                      A                      A
 Frequencies --   -27.4442                42.5805                61.6869
 Red. masses --     6.1613                 6.9282                 6.0709
 Frc consts  --     0.0027                 0.0074                 0.0136
 IR Inten    --     1.4256                 0.3242                 0.7770
 Raman Activ --     0.0770                 0.0355                 0.0604

                    10                     11                     12
                     A                      A                      A
 Frequencies --    72.4091               109.9679               129.4408
 Red. masses --     5.8641                 6.8104                 6.1159
 Frc consts  --     0.0181                 0.0485                 0.0604
 IR Inten    --     3.5970                 1.1108                 0.7922
 Raman Activ --     0.1035                 0.2302                 0.4574

                    13                     14                     15
                     A                      A                      A
 Frequencies --   139.3431               164.8350               187.5082
 Red. masses --     5.4070                 6.7541                 2.1119
 Frc consts  --     0.0619                 0.1081                 0.0437
 IR Inten    --     1.1555                 1.5479                86.6396
 Raman Activ --     0.2657                 1.9451                 0.4673

                    16                     17                     18
                     A                      A                      A
 Frequencies --   209.5469               225.2427               228.9377
 Red. masses --     3.3641                 4.9869                 4.6067
 Frc consts  --     0.0870                 0.1491                 0.1423
 IR Inten    --    18.5346                 9.8009                12.6717
 Raman Activ --     1.9473                 0.2989                 0.4298

                    19                     20                     21
                     A                      A                      A
 Frequencies --   270.5541               284.6016               306.8176
 Red. masses --     4.3559                 6.0315                 5.5419
 Frc consts  --     0.1879                 0.2878                 0.3074
 IR Inten    --     7.5800                 1.0765                 3.5326
 Raman Activ --     0.0586                 0.4702                 0.1858

                    22                     23                     24
                     A                      A                      A
 Frequencies --   313.2004               330.5338               344.0112
 Red. masses --     4.8651                 4.4348                 6.4221
 Frc consts  --     0.2812                 0.2855                 0.4478
 IR Inten    --     2.9208                 4.2403                 4.2018
 Raman Activ --     0.8758                 1.1405                 1.9008

                    25                     26                     27
                     A                      A                      A
 Frequencies --   354.7312               366.4249               369.5775
 Red. masses --     6.4645                 4.8610                 4.8721
 Frc consts  --     0.4793                 0.3845                 0.3921
 IR Inten    --     1.7173                15.2166                 0.5291
 Raman Activ --     6.3387                 0.7745                 1.1496

                    28                     29                     30
                     A                      A                      A
 Frequencies --   407.9815               420.3974               434.3085
 Red. masses --     5.1098                 4.4570                 6.6368
 Frc consts  --     0.5011                 0.4641                 0.7376
 IR Inten    --     2.9644                 3.8428                 1.6728
 Raman Activ --     4.2030                 1.5586                 3.8330

                    31                     32                     33
                     A                      A                      A
 Frequencies --   439.1130               470.8135               487.0518
 Red. masses --     4.6170                 3.2483                 4.1502
 Frc consts  --     0.5245                 0.4242                 0.5801
 IR Inten    --     8.8998                18.8119                 1.9552
 Raman Activ --     3.5185                 1.0642                 1.1413

                    34                     35                     36
                     A                      A                      A
 Frequencies --   516.1968               531.1408               567.7001
 Red. masses --     3.7630                 3.9768                 4.0764
 Frc consts  --     0.5908                 0.6610                 0.7740
 IR Inten    --    11.8635                35.8511                28.9028
 Raman Activ --     1.3930                 7.0197                 0.6117

                    37                     38                     39
                     A                      A                      A
 Frequencies --   581.4344               593.7998               613.7431
 Red. masses --     4.1274                 3.0454                 3.0645
 Frc consts  --     0.8221                 0.6327                 0.6801
 IR Inten    --    18.2789                14.2147                 9.9229
 Raman Activ --     2.1087                 0.5184                 0.3373

                    40                     41                     42
                     A                      A                      A
 Frequencies --   646.3780               652.5881               679.5872
 Red. masses --     1.1069                 3.5245                 3.7351
 Frc consts  --     0.2725                 0.8844                 1.0163
 IR Inten    --    69.3621                68.1190                12.5530
 Raman Activ --     1.3263                 0.5419                 0.2739

                    43                     44                     45
                     A                      A                      A
 Frequencies --   709.2883               710.5092               739.9244
 Red. masses --     1.0829                 1.0725                 1.1336
 Frc consts  --     0.3210                 0.3190                 0.3657
 IR Inten    --    96.4632               131.9847               101.3536
 Raman Activ --     1.6935                 1.4325                 1.9446

                    46                     47                     48
                     A                      A                      A
 Frequencies --   745.7724               847.7053               862.4584
 Red. masses --     1.0700                 2.5391                 1.7518
 Frc consts  --     0.3506                 1.0750                 0.7677
 IR Inten    --    91.2544                11.7137                56.6134
 Raman Activ --     1.8837                 1.5105                 7.9791

                    49                     50                     51
                     A                      A                      A
 Frequencies --   873.6288               910.5915               956.6763
 Red. masses --     1.3954                 5.9733                 6.4036
 Frc consts  --     0.6275                 2.9182                 3.4531
 IR Inten    --    28.6218               110.9632               228.7213
 Raman Activ --     5.2680                 4.8793                 1.3460

                    52                     53                     54
                     A                      A                      A
 Frequencies --   971.0521               976.3740               989.9113
 Red. masses --     6.6205                 5.1485                 4.8980
 Frc consts  --     3.6781                 2.8918                 2.8279
 IR Inten    --    25.0422                66.6287                82.2552
 Raman Activ --     4.1565                 2.9183                 0.5450

                    55                     56                     57
                     A                      A                      A
 Frequencies --   997.0840              1010.6677              1026.9504
 Red. masses --     4.5395                 4.9361                 3.6876
 Frc consts  --     2.6590                 2.9707                 2.2914
 IR Inten    --    20.5777               294.9717                88.2234
 Raman Activ --     1.4749                 1.4775                 1.8242

                    58                     59                     60
                     A                      A                      A
 Frequencies --  1037.4921              1050.9728              1053.6733
 Red. masses --     2.8232                 5.3095                 4.2706
 Frc consts  --     1.7905                 3.4553                 2.7935
 IR Inten    --   206.3139                30.4683               163.9030
 Raman Activ --     0.4558                 3.0245                 6.8823

                    61                     62                     63
                     A                      A                      A
 Frequencies --  1065.3175              1070.4464              1081.5447
 Red. masses --     2.8660                 4.0639                 3.5904
 Frc consts  --     1.9164                 2.7436                 2.4745
 IR Inten    --    40.5200                39.3955                97.5406
 Raman Activ --    14.6237                 4.3332                 6.2031

                    64                     65                     66
                     A                      A                      A
 Frequencies --  1085.6395              1098.4316              1104.4375
 Red. masses --     3.2135                 2.1287                 3.5143
 Frc consts  --     2.2315                 1.5133                 2.5257
 IR Inten    --    64.6161                 2.5763                 6.6785
 Raman Activ --     6.7718                 1.8853                 5.3615

                    67                     68                     69
                     A                      A                      A
 Frequencies --  1114.6649              1123.2530              1144.7316
 Red. masses --     2.6072                 2.7050                 3.3367
 Frc consts  --     1.9086                 2.0108                 2.5762
 IR Inten    --    20.1614                 8.0150                 0.6626
 Raman Activ --     8.9139                 2.6117                 4.0041

                    70                     71                     72
                     A                      A                      A
 Frequencies --  1149.5354              1154.5368              1160.0877
 Red. masses --     2.2095                 1.8099                 1.8406
 Frc consts  --     1.7202                 1.4214                 1.4595
 IR Inten    --    61.4660                26.4463                25.3181
 Raman Activ --     4.4525                 2.4077                 2.8912

                    73                     74                     75
                     A                      A                      A
 Frequencies --  1174.4660              1188.2306              1191.7790
 Red. masses --     3.5933                 1.6253                 2.1615
 Frc consts  --     2.9203                 1.3520                 1.8088
 IR Inten    --     7.6764                 6.4113                26.4548
 Raman Activ --     3.0105                 3.0587                 4.8133

                    76                     77                     78
                     A                      A                      A
 Frequencies --  1199.4862              1207.6760              1220.7281
 Red. masses --     1.3937                 1.8081                 1.3251
 Frc consts  --     1.1815                 1.5537                 1.1634
 IR Inten    --    10.9808                10.6907                43.6234
 Raman Activ --     3.1779                 1.1840                 0.9748

                    79                     80                     81
                     A                      A                      A
 Frequencies --  1224.1485              1236.6773              1247.5227
 Red. masses --     1.3906                 1.2484                 1.2684
 Frc consts  --     1.2278                 1.1249                 1.1631
 IR Inten    --    25.2562                 9.0471                 5.7735
 Raman Activ --     3.3465                 4.8431                 0.5546

                    82                     83                     84
                     A                      A                      A
 Frequencies --  1255.0301              1276.0258              1283.6691
 Red. masses --     1.3065                 1.3838                 1.4363
 Frc consts  --     1.2125                 1.3275                 1.3945
 IR Inten    --     2.8863                18.8316                15.9409
 Raman Activ --     3.1739                 1.0974                 2.2955

                    85                     86                     87
                     A                      A                      A
 Frequencies --  1288.6995              1302.0585              1312.9653
 Red. masses --     1.3372                 1.2433                 1.2537
 Frc consts  --     1.3084                 1.2419                 1.2734
 IR Inten    --    15.3651                19.6440                19.0778
 Raman Activ --     5.0664                 3.7484                 1.6204

                    88                     89                     90
                     A                      A                      A
 Frequencies --  1314.5390              1324.8810              1327.2385
 Red. masses --     1.2593                 1.2966                 1.2508
 Frc consts  --     1.2821                 1.3410                 1.2982
 IR Inten    --     6.1060                41.8217                18.2954
 Raman Activ --     3.2512                 1.8064                 6.6179

                    91                     92                     93
                     A                      A                      A
 Frequencies --  1333.2930              1344.6728              1347.8040
 Red. masses --     1.3641                 1.2151                 1.3797
 Frc consts  --     1.4287                 1.2945                 1.4766
 IR Inten    --    45.2695                 7.3486                 6.1589
 Raman Activ --     3.5996                 8.6577                 1.4113

                    94                     95                     96
                     A                      A                      A
 Frequencies --  1362.8005              1366.6688              1376.3638
 Red. masses --     1.2090                 1.3301                 1.4402
 Frc consts  --     1.3229                 1.4638                 1.6075
 IR Inten    --    25.1528                16.3427                 5.8938
 Raman Activ --     2.6988                 4.3362                 5.7502

                    97                     98                     99
                     A                      A                      A
 Frequencies --  1377.9012              1400.6448              1427.1446
 Red. masses --     1.3593                 1.3848                 1.1147
 Frc consts  --     1.5206                 1.6006                 1.3377
 IR Inten    --    47.3806                 1.8017                30.7119
 Raman Activ --     2.7858                 4.4439                 5.4137

                   100                    101                    102
                     A                      A                      A
 Frequencies --  1429.5139              1451.3590              1452.0004
 Red. masses --     1.1608                 1.3379                 1.1310
 Frc consts  --     1.3976                 1.6604                 1.4049
 IR Inten    --     0.5304                24.4892                 4.1530
 Raman Activ --     4.6279                 2.6013                 3.1270

                   103                    104                    105
                     A                      A                      A
 Frequencies --  1459.5103              1460.5196              1476.4863
 Red. masses --     1.3143                 1.4359                 1.1655
 Frc consts  --     1.6495                 1.8047                 1.4970
 IR Inten    --    14.0339                44.8473                16.0247
 Raman Activ --     1.3262                 3.3779                 4.9916

                   106                    107                    108
                     A                      A                      A
 Frequencies --  1495.0033              1498.3327              3238.0586
 Red. masses --     1.2584                 1.2365                 1.0776
 Frc consts  --     1.6571                 1.6356                 6.6571
 IR Inten    --    35.4170                20.9764                 1.9093
 Raman Activ --     2.1532                 1.4477               105.6958

                   109                    110                    111
                     A                      A                      A
 Frequencies --  3244.7811              3256.0283              3256.8021
 Red. masses --     1.0685                 1.0744                 1.0746
 Frc consts  --     6.6280                 6.7110                 6.7152
 IR Inten    --    34.6874                 6.4199                 6.6692
 Raman Activ --     9.9640                22.1679               152.3322

                   112                    113                    114
                     A                      A                      A
 Frequencies --  3260.1717              3268.6083              3276.2796
 Red. masses --     1.0648                 1.0786                 1.0833
 Frc consts  --     6.6681                 6.7897                 6.8508
 IR Inten    --    48.6554                29.1833                 0.8338
 Raman Activ --   100.6613                 5.3009               109.3052

                   115                    116                    117
                     A                      A                      A
 Frequencies --  3282.6178              3286.2652              3289.1738
 Red. masses --     1.0814                 1.0841                 1.0840
 Frc consts  --     6.8653                 6.8977                 6.9098
 IR Inten    --    41.5918                46.2712                82.9332
 Raman Activ --    64.3195                24.8545                32.9407

                   118                    119                    120
                     A                      A                      A
 Frequencies --  3290.5264              3293.0807              3304.7045
 Red. masses --     1.0736                 1.0887                 1.0864
 Frc consts  --     6.8488                 6.9559                 6.9903
 IR Inten    --   340.1049                55.6344                43.0465
 Raman Activ --   141.1255                65.2529                71.6967

                   121                    122                    123
                     A                      A                      A
 Frequencies --  3310.3942              3321.8242              3351.7489
 Red. masses --     1.0973                 1.1073                 1.0663
 Frc consts  --     7.0847                 7.1992                 7.0578
 IR Inten    --   100.3572                20.3870                54.2388
 Raman Activ --     7.9716                49.8796                94.5682

                   124                    125                    126
                     A                      A                      A
 Frequencies --  3354.8143              3356.4450              3362.3648
 Red. masses --     1.0663                 1.0679                 1.0658
 Frc consts  --     7.0707                 7.0884                 7.0995
 IR Inten    --    32.2805                28.0188                60.4497
 Raman Activ --   162.2487               118.8475                60.9811

                   127                    128                    129
                     A                      A                      A
 Frequencies --  3367.9360              3868.5633              3874.6430
 Red. masses --     1.0682                 1.0679                 1.0669
 Frc consts  --     7.1388                 9.4165                 9.4373
 IR Inten    --    87.0425                85.9070                59.5860
 Raman Activ --   148.6457                78.8383               138.2682

 - Thermochemistry -
 -------------------
 Temperature   298.150 Kelvin.  Pressure   1.00000 Atm.
 Atom     1 has atomic number  8 and mass  15.99491

 Molecular mass:   342.11621 amu.
 Principal axes and moments of inertia in atomic units:
                           1         2         3
     Eigenvalues --  4636.65952********************
           X            0.99999   0.00512   0.00080
           Y           -0.00513   0.99997   0.00652
           Z           -0.00077  -0.00652   0.99998
 This molecule is an asymmetric top.
 Rotational symmetry number  1.
 Warning -- assumption of classical behavior for rotation
           may cause significant error
 Rotational temperatures (Kelvin)      0.01868     0.00725     0.00544
 Rotational constants (GHZ):           0.38923     0.15114     0.11330
    7 imaginary frequencies ignored.
 Zero-point vibrational energy     973336.9 (Joules/Mol)
                                  232.63309 (Kcal/Mol)
 Warning -- explicit consideration of  32 degrees of freedom as
           vibrations may cause significant error
 Vibrational temperatures:     61.26    88.75   104.18   158.22   186.24
          (Kelvin)            200.48   237.16   269.78   301.49   324.07
                              329.39   389.27   409.48   441.44   450.63
                              475.56   494.95   510.38   527.20   531.74
                              586.99   604.86   624.87   631.78   677.39
                              700.76   742.69   764.19   816.79   836.55
                              854.34   883.04   929.99   938.93   977.77
                             1020.51  1022.26  1064.58  1073.00  1219.66
                             1240.88  1256.96  1310.14  1376.44  1397.13
                             1404.78  1424.26  1434.58  1454.12  1477.55
                             1492.72  1512.11  1516.00  1532.75  1540.13
                             1556.10  1561.99  1580.40  1589.04  1603.75
                             1616.11  1647.01  1653.92  1661.12  1669.11
                             1689.79  1709.60  1714.70  1725.79  1737.57
                             1756.35  1761.27  1779.30  1794.90  1805.71
                             1835.91  1846.91  1854.15  1873.37  1889.06
                             1891.33  1906.21  1909.60  1918.31  1934.68
                             1939.19  1960.76  1966.33  1980.28  1982.49
                             2015.21  2053.34  2056.75  2088.18  2089.10
                             2099.91  2101.36  2124.33  2150.97  2155.76
                             4658.84  4668.51  4684.69  4685.81  4690.65
                             4702.79  4713.83  4722.95  4728.20  4732.38
                             4734.33  4738.00  4754.73  4762.91  4779.36
                             4822.41  4826.82  4829.17  4837.69  4845.70
                             5565.99  5574.74

 Zero-point correction=                           0.370724 (Hartree/Particle)
 Thermal correction to Energy=                    0.389112
 Thermal correction to Enthalpy=                  0.390056
 Thermal correction to Gibbs Free Energy=         0.325098
 Sum of electronic and zero-point Energies=          -1297.593673
 Sum of electronic and thermal Energies=             -1297.575285
 Sum of electronic and thermal Enthalpies=           -1297.574341
 Sum of electronic and thermal Free Energies=        -1297.639299

                     E (Thermal)             CV                S
                      KCal/Mol        Cal/Mol-Kelvin    Cal/Mol-Kelvin
 Total                  244.172             76.099            136.717
 Electronic               0.000              0.000              0.000
 Translational            0.889              2.981             43.384
 Rotational               0.889              2.981             35.132
 Vibrational            242.394             70.137             58.200
 Vibration     1          0.595              1.980              5.135
 Vibration     2          0.597              1.973              4.402
 Vibration     3          0.599              1.967              4.087
 Vibration     4          0.606              1.941              3.269
 Vibration     5          0.612              1.924              2.954
 Vibration     6          0.615              1.914              2.813
 Vibration     7          0.623              1.886              2.494
 Vibration     8          0.632              1.857              2.252
 Vibration     9          0.642              1.826              2.048
 Vibration    10          0.650              1.803              1.917
 Vibration    11          0.652              1.797              1.887
 Vibration    12          0.674              1.727              1.593
 Vibration    13          0.683              1.702              1.506
 Vibration    14          0.697              1.661              1.379
 Vibration    15          0.701              1.649              1.345
 Vibration    16          0.713              1.615              1.257
 Vibration    17          0.723              1.587              1.193
 Vibration    18          0.731              1.566              1.145
 Vibration    19          0.739              1.541              1.095
 Vibration    20          0.742              1.535              1.082
 Vibration    21          0.773              1.453              0.934
 Vibration    22          0.783              1.426              0.891
 Vibration    23          0.795              1.395              0.845
 Vibration    24          0.799              1.385              0.829
 Vibration    25          0.828              1.315              0.735
 Vibration    26          0.843              1.279              0.691
 Vibration    27          0.871              1.214              0.619
 Vibration    28          0.886              1.181              0.585
 Vibration    29          0.924              1.101              0.509
 Vibration    30          0.938              1.071              0.483
 Vibration    31          0.951              1.045              0.460
 Vibration    32          0.973              1.003              0.427

 Normal termination of Gaussian 09 at Tue Feb 16 13:29:18 2016.
