 Gaussian 09, Revision B.01,
 Gaussian 09:  EM64L-G09RevB.01 12-Aug-2010

 ------------------------------------------------
 # freq=raman b3lyp/6-31+g(d,p) geom=connectivity
 ------------------------------------------------

 ------------
 500 9000.com
 ------------
 Symbolic Z-matrix:
 Charge =  0 Multiplicity = 1

                         Standard orientation:
 ---------------------------------------------------------------------
 Center     Atomic      Atomic             Coordinates (Angstroms)
 Number     Number       Type             X           Y           Z
 ---------------------------------------------------------------------
      1          8           0       -5.071901   -0.749647    0.256133
      2          6           0       -3.835139   -0.125665   -0.116561
      3          6           0       -3.435947    1.278704    0.306794
      4          8           0       -4.454972    2.214528   -0.073525
      5          1           0       -5.322378    1.857561    0.274800
      6          6           0       -1.987029    1.706820    0.138876
      7          8           0       -1.615061    2.738641    1.063841
      8          1           0       -2.121764    3.600393    1.075913
      9          6           0       -3.115519   -2.346553   -0.660555
     10          8           0       -2.269237   -3.446001   -0.292198
     11          1           0       -2.566256   -4.222088   -0.848929
     12          6           0       -2.686057   -1.098555    0.093590
     13          8           0       -1.433404   -0.618279   -0.413963
     14          6           0       -0.991093    0.565280    0.266611
     15          8           0        0.126421    0.621070   -0.631648
     16          6           0        1.412091    0.261559   -0.104670
     17          6           0        1.769704   -1.214435   -0.049636
     18          8           0        0.797369   -2.002037    0.653778
     19          1           0       -0.078835   -1.737996    0.250417
     20          6           0        3.165876   -1.478351    0.488867
     21          8           0        3.387677   -2.895397    0.443198
     22          1           0        2.664893   -3.320505    0.988386
     23          6           0        2.166867    2.424686   -0.228165
     24          8           0        2.995056    3.581334   -0.416344
     25          1           0        2.402592    4.366810   -0.237641
     26          6           0        2.507316    1.057129   -0.796400
     27          8           0        3.816056    0.808871   -0.263136
     28          6           0        4.148248   -0.586646   -0.252624
     29          8           0        5.379224   -0.573738    0.485120
     30          1           0        6.100274   -0.329591   -0.099757
     31          1           0        4.309935   -0.944674   -1.247899
     32          1           0        3.178709   -1.184122    1.517538
     33          1           0        1.765648   -1.562437   -1.061456
     34          1           0        1.407820    0.593204    0.912627
     35          1           0        2.457952    1.022423   -1.864697
     36          1           0        2.062516    2.295833    0.828910
     37          1           0        1.200274    2.679103   -0.610094
     38          1           0       -5.643483   -0.811606   -0.512668
     39          1           0       -3.035159   -2.172131   -1.713180
     40          1           0       -4.130336   -2.580022   -0.414511
     41          1           0       -2.590324   -1.322846    1.135429
     42          1           0       -3.915238   -0.043956   -1.180426
     43          1           0       -3.536644    1.240061    1.371345
     44          1           0       -1.886765    2.109474   -0.847388
     45          1           0       -0.697177    0.368508    1.276460
 ---------------------------------------------------------------------

 SCF Done:  E(RB3LYP) =  -1297.88803404     A.U. after   13 cycles

 The electronic state is 1-A.
 Alpha  occ. eigenvalues --  -19.20547 -19.20337 -19.19220 -19.19078 -19.18527
 Alpha  occ. eigenvalues --  -19.17358 -19.17348 -19.15823 -19.15507 -19.15425
 Alpha  occ. eigenvalues --  -19.15181 -10.32862 -10.29532 -10.28640 -10.27435
 Alpha  occ. eigenvalues --  -10.27295 -10.26263 -10.25259 -10.25007 -10.24821
 Alpha  occ. eigenvalues --  -10.24313 -10.23743 -10.22336  -1.11884  -1.07836
 Alpha  occ. eigenvalues --   -1.07473  -1.05676  -1.04144  -1.03918  -1.02964
 Alpha  occ. eigenvalues --   -1.02595  -1.01254  -1.00409  -0.99931  -0.83083
 Alpha  occ. eigenvalues --   -0.82537  -0.79228  -0.78194  -0.72624  -0.69474
 Alpha  occ. eigenvalues --   -0.68269  -0.65466  -0.63796  -0.62213  -0.61587
 Alpha  occ. eigenvalues --   -0.59675  -0.57973  -0.57302  -0.55657  -0.54485
 Alpha  occ. eigenvalues --   -0.54006  -0.53620  -0.53405  -0.52391  -0.51322
 Alpha  occ. eigenvalues --   -0.50803  -0.49538  -0.49269  -0.48702  -0.46934
 Alpha  occ. eigenvalues --   -0.46118  -0.45292  -0.44592  -0.44207  -0.43580
 Alpha  occ. eigenvalues --   -0.43080  -0.42035  -0.41165  -0.40213  -0.39909
 Alpha  occ. eigenvalues --   -0.37992  -0.37777  -0.37125  -0.36627  -0.36194
 Alpha  occ. eigenvalues --   -0.35909  -0.35574  -0.34332  -0.34171  -0.33474
 Alpha  occ. eigenvalues --   -0.33026  -0.31385  -0.31030  -0.30318  -0.29636
 Alpha  occ. eigenvalues --   -0.29599  -0.28866  -0.28313  -0.27190  -0.27117
 Alpha  occ. eigenvalues --   -0.26052
 Alpha virt. eigenvalues --   -0.03677  -0.02141  -0.01303  -0.00477   0.00681
 Alpha virt. eigenvalues --    0.00740   0.01360   0.01579   0.01948   0.02815
 Alpha virt. eigenvalues --    0.03165   0.04228   0.04698   0.05098   0.05838

 Mulliken atomic charges:
              1
     1  O   -0.544864
     2  C   -0.246226
     3  C    0.120112
     4  O   -0.514095
     5  H    0.361964
     6  C    0.385574
     7  O   -0.561013
     8  H    0.384442
     9  C   -0.145821
    10  O   -0.540696
    11  H    0.349762
    12  C    0.146145
    13  O   -0.396032
    14  C   -0.011602
    15  O   -0.306761
    16  C   -0.280224
    17  C    0.298426
    18  O   -0.564987
    19  H    0.432536
    20  C   -0.171664
    21  O   -0.485005
    22  H    0.374880
    23  C   -0.228197
    24  O   -0.508976
    25  H    0.339246
    26  C    0.014504
    27  O   -0.276170
    28  C    0.379408
    29  O   -0.497114
    30  H    0.350140
    31  H    0.122048
    32  H    0.147932
    33  H    0.138863
    34  H    0.108536
    35  H    0.148553
    36  H    0.122235
    37  H    0.139582
    38  H    0.380645
    39  H    0.136651
    40  H    0.152286
    41  H    0.150480
    42  H    0.132772
    43  H    0.146820
    44  H    0.156462
    45  H    0.158447
 Sum of Mulliken atomic charges =   0.00000

 Dipole moment (field-independent basis, Debye):
    X=             -8.6822    Y=              0.8746    Z=             -2.5415  Tot=              9.0887
 Quadrupole moment (field-independent basis, Debye-Ang):
   XX=           -131.6513   YY=           -137.6424   ZZ=           -136.9975
   XY=              3.8201   XZ=             -0.6843   YZ=             10.2736

  Exact polarizability: 220.497  -1.891 196.982   1.305   1.414 143.352
 Approx polarizability: 260.476   0.083 253.465   2.137   0.753 233.327

 ******    8 imaginary frequencies (negative Signs) ******

                     1                      2                      3
                     A                      A                      A
 Frequencies --  -306.0907              -283.1891              -208.3582
 Red. masses --     1.6566                 1.0692                 2.0081
 Frc consts  --     0.0914                 0.0505                 0.0514
 IR Inten    --     5.0318               116.9133                 7.5674
 Raman Activ --     0.1302                 2.0713                 0.0781

                     4                      5                      6
                     A                      A                      A
 Frequencies --  -108.1310               -85.1570               -67.7661
 Red. masses --     1.7157                 4.3457                 5.4990
 Frc consts  --     0.0118                 0.0186                 0.0149
 IR Inten    --    81.3061                14.7130                 8.0083
 Raman Activ --     0.7473                 0.1656                 0.2246

                     7                      8                      9
                     A                      A                      A
 Frequencies --   -51.8211               -31.8434                38.4370
 Red. masses --     5.4040                 5.1601                 6.5672
 Frc consts  --     0.0086                 0.0031                 0.0057
 IR Inten    --     8.9438                11.8716                 0.2467
 Raman Activ --     0.1832                 0.0994                 0.0481

                    10                     11                     12
                     A                      A                      A
 Frequencies --    56.3923                67.2295               107.7984
 Red. masses --     5.9416                 6.0062                 6.7707
 Frc consts  --     0.0111                 0.0160                 0.0464
 IR Inten    --     1.5727                 3.7653                 0.4391
 Raman Activ --     0.0805                 0.1014                 0.1782

                    13                     14                     15
                     A                      A                      A
 Frequencies --   127.3497               140.3356               163.2263
 Red. masses --     6.2786                 5.5947                 6.8025
 Frc consts  --     0.0600                 0.0649                 0.1068
 IR Inten    --     1.6021                11.2486                 1.6695
 Raman Activ --     0.4637                 0.1709                 1.8589

                    16                     17                     18
                     A                      A                      A
 Frequencies --   201.7959               222.3964               225.1709
 Red. masses --     5.7364                 6.3533                 5.0052
 Frc consts  --     0.1376                 0.1851                 0.1495
 IR Inten    --     0.2698                 2.3986                 9.9739
 Raman Activ --     1.0833                 0.8443                 0.4243

                    19                     20                     21
                     A                      A                      A
 Frequencies --   266.7892               282.7886               304.4762
 Red. masses --     4.8685                 6.3073                 5.6674
 Frc consts  --     0.2042                 0.2972                 0.3096
 IR Inten    --     3.8538                 0.2718                 4.4459
 Raman Activ --     0.0685                 0.4953                 0.1693

                    22                     23                     24
                     A                      A                      A
 Frequencies --   311.9763               328.7493               343.9659
 Red. masses --     5.1474                 4.7537                 6.5497
 Frc consts  --     0.2952                 0.3027                 0.4566
 IR Inten    --     5.5505                 4.2424                 5.6532
 Raman Activ --     0.8330                 1.0831                 1.8421

                    25                     26                     27
                     A                      A                      A
 Frequencies --   354.7541               365.9916               369.6175
 Red. masses --     6.5143                 5.3883                 5.0068
 Frc consts  --     0.4830                 0.4253                 0.4030
 IR Inten    --     2.0172                14.9938                 2.1285
 Raman Activ --     6.0941                 1.0004                 1.2326

                    28                     29                     30
                     A                      A                      A
 Frequencies --   409.4194               421.6460               435.9717
 Red. masses --     5.0158                 4.5471                 6.6377
 Frc consts  --     0.4954                 0.4763                 0.7433
 IR Inten    --     3.2219                 3.1850                 1.7324
 Raman Activ --     4.5144                 1.9428                 3.7325

                    31                     32                     33
                     A                      A                      A
 Frequencies --   440.0058               470.5741               487.2745
 Red. masses --     4.6527                 3.2087                 4.0821
 Frc consts  --     0.5307                 0.4186                 0.5711
 IR Inten    --     9.8678                21.1888                 2.4786
 Raman Activ --     3.5170                 1.0992                 1.0658

                    34                     35                     36
                     A                      A                      A
 Frequencies --   517.4915               532.4680               568.9167
 Red. masses --     3.8112                 3.9017                 3.8229
 Frc consts  --     0.6013                 0.6518                 0.7290
 IR Inten    --    12.7272                40.8694                38.5981
 Raman Activ --     1.6544                 6.6340                 0.5237

                    37                     38                     39
                     A                      A                      A
 Frequencies --   582.2344               595.4969               615.2347
 Red. masses --     3.9691                 2.9661                 2.5751
 Frc consts  --     0.7928                 0.6197                 0.5743
 IR Inten    --    21.4830                13.5203                25.9161
 Raman Activ --     2.2338                 0.6080                 0.4443

                    40                     41                     42
                     A                      A                      A
 Frequencies --   629.9980               654.1216               680.1820
 Red. masses --     1.2374                 3.4031                 3.3363
 Frc consts  --     0.2894                 0.8579                 0.9094
 IR Inten    --    53.3337                62.9374                16.7406
 Raman Activ --     1.2801                 0.5528                 0.2108

                    43                     44                     45
                     A                      A                      A
 Frequencies --   682.8270               689.7612               720.6878
 Red. masses --     1.0874                 1.0879                 1.1821
 Frc consts  --     0.2987                 0.3049                 0.3617
 IR Inten    --   119.8500               138.0618               106.1012
 Raman Activ --     2.0269                 1.4129                 2.3412

                    46                     47                     48
                     A                      A                      A
 Frequencies --   729.7754               850.3133               863.2278
 Red. masses --     1.0703                 2.4690                 1.4213
 Frc consts  --     0.3358                 1.0518                 0.6240
 IR Inten    --   104.8108                 8.2885                76.4340
 Raman Activ --     1.9758                 1.7341                 6.1576

                    49                     50                     51
                     A                      A                      A
 Frequencies --   873.7651               921.9224               966.9520
 Red. masses --     1.6770                 5.9742                 6.0601
 Frc consts  --     0.7544                 2.9917                 3.3384
 IR Inten    --    15.6949                92.8223               205.7826
 Raman Activ --     7.7736                 4.0758                 1.3264

                    52                     53                     54
                     A                      A                      A
 Frequencies --   980.5954               985.2375               999.6585
 Red. masses --     5.7881                 4.9749                 4.6561
 Frc consts  --     3.2792                 2.8452                 2.7414
 IR Inten    --    15.0336                64.8542                75.3806
 Raman Activ --     3.4742                 3.1466                 0.8177

                    55                     56                     57
                     A                      A                      A
 Frequencies --  1005.0085              1019.6662              1031.8705
 Red. masses --     3.7994                 4.6600                 3.2339
 Frc consts  --     2.2610                 2.8546                 2.0288
 IR Inten    --     1.1586               300.7659               161.6755
 Raman Activ --     1.9939                 1.6803                 1.7639

                    58                     59                     60
                     A                      A                      A
 Frequencies --  1039.6065              1060.5364              1062.2894
 Red. masses --     2.6694                 3.3312                 4.6768
 Frc consts  --     1.6998                 2.2075                 3.1095
 IR Inten    --   134.3189               154.1285                23.9459
 Raman Activ --     1.4846                 5.3838                 3.3332

                    61                     62                     63
                     A                      A                      A
 Frequencies --  1073.6288              1078.8877              1090.7860
 Red. masses --     3.1202                 3.4352                 3.9906
 Frc consts  --     2.1191                 2.3559                 2.7975
 IR Inten    --   149.1645                 9.8693               153.7376
 Raman Activ --     7.7523                 5.9444                 6.6465

                    64                     65                     66
                     A                      A                      A
 Frequencies --  1093.2664              1101.8106              1113.0892
 Red. masses --     3.3465                 2.0090                 3.7390
 Frc consts  --     2.3566                 1.4370                 2.7294
 IR Inten    --    32.7820                 3.1864                 5.9544
 Raman Activ --     8.7878                 2.1249                 4.7886

                    67                     68                     69
                     A                      A                      A
 Frequencies --  1120.8887              1128.5407              1150.6129
 Red. masses --     2.6444                 2.8389                 3.0777
 Frc consts  --     1.9575                 2.1303                 2.4007
 IR Inten    --    16.5808                10.9042                 1.4041
 Raman Activ --     9.6085                 2.7601                 4.3386

                    70                     71                     72
                     A                      A                      A
 Frequencies --  1152.3552              1160.9014              1166.6462
 Red. masses --     2.1260                 1.7621                 1.8454
 Frc consts  --     1.6633                 1.3991                 1.4798
 IR Inten    --    54.8159                38.1713                24.7680
 Raman Activ --     4.5349                 1.5028                 3.4850

                    73                     74                     75
                     A                      A                      A
 Frequencies --  1183.3242              1192.9880              1198.3392
 Red. masses --     2.8989                 1.7607                 2.1618
 Frc consts  --     2.3916                 1.4764                 1.8290
 IR Inten    --    12.8621                 4.5929                25.7857
 Raman Activ --     2.8372                 3.5518                 4.9464

                    76                     77                     78
                     A                      A                      A
 Frequencies --  1205.6203              1210.4505              1222.5861
 Red. masses --     1.4355                 1.8259                 1.3441
 Frc consts  --     1.2294                 1.5762                 1.1837
 IR Inten    --    16.2754                14.7934                36.8749
 Raman Activ --     3.6534                 1.4203                 1.4936

                    79                     80                     81
                     A                      A                      A
 Frequencies --  1232.3796              1240.9145              1251.9424
 Red. masses --     1.4271                 1.3497                 1.2933
 Frc consts  --     1.2770                 1.2246                 1.1943
 IR Inten    --    43.5273                 7.7612                 6.5801
 Raman Activ --     2.9905                 6.8579                 0.7892

                    82                     83                     84
                     A                      A                      A
 Frequencies --  1259.9630              1281.5191              1286.0043
 Red. masses --     1.3135                 1.3623                 1.4441
 Frc consts  --     1.2286                 1.3182                 1.4071
 IR Inten    --     2.4632                20.6491                17.4459
 Raman Activ --     3.3478                 1.5119                 2.5939

                    85                     86                     87
                     A                      A                      A
 Frequencies --  1295.7009              1307.4171              1318.5514
 Red. masses --     1.3281                 1.2631                 1.2047
 Frc consts  --     1.3136                 1.2721                 1.2340
 IR Inten    --    15.7984                21.3540                12.7660
 Raman Activ --     4.7124                 3.8750                 3.8138

                    88                     89                     90
                     A                      A                      A
 Frequencies --  1321.1573              1330.6953              1335.4207
 Red. masses --     1.2571                 1.3427                 1.2886
 Frc consts  --     1.2928                 1.4008                 1.3540
 IR Inten    --    18.2615                22.2044                50.5519
 Raman Activ --     2.1227                 1.0865                 4.6105

                    91                     92                     93
                     A                      A                      A
 Frequencies --  1338.2331              1351.3827              1356.9049
 Red. masses --     1.3805                 1.1851                 1.3656
 Frc consts  --     1.4566                 1.2751                 1.4814
 IR Inten    --    25.6611                 9.5232                16.5693
 Raman Activ --     8.8991                10.9496                 0.9105

                    94                     95                     96
                     A                      A                      A
 Frequencies --  1367.9832              1372.5386              1378.0267
 Red. masses --     1.2973                 1.3709                 1.3553
 Frc consts  --     1.4304                 1.5217                 1.5164
 IR Inten    --     8.7124                37.6084                20.0522
 Raman Activ --     1.1743                 6.8121                 4.9297

                    97                     98                     99
                     A                      A                      A
 Frequencies --  1386.1996              1410.4240              1427.6635
 Red. masses --     1.4315                 1.3973                 1.1499
 Frc consts  --     1.6206                 1.6378                 1.3809
 IR Inten    --    36.2493                 2.3247                28.4859
 Raman Activ --     3.2647                 4.9055                 6.1136

                   100                    101                    102
                     A                      A                      A
 Frequencies --  1439.4040              1448.8771              1457.6856
 Red. masses --     1.1573                 1.3834                 1.5620
 Frc consts  --     1.4127                 1.7110                 1.9555
 IR Inten    --     0.9540                13.5714                14.2844
 Raman Activ --     4.8744                 2.1409                 4.6933

                   103                    104                    105
                     A                      A                      A
 Frequencies --  1460.5449              1466.8725              1485.1498
 Red. masses --     1.4240                 1.1413                 1.1306
 Frc consts  --     1.7897                 1.4468                 1.4693
 IR Inten    --    45.3456                 1.3625                 8.8580
 Raman Activ --     0.7053                 3.7785                 5.6406

                   106                    107                    108
                     A                      A                      A
 Frequencies --  1493.6101              1500.5412              3252.5006
 Red. masses --     1.2429                 1.1923                 1.0789
 Frc consts  --     1.6336                 1.5817                 6.7246
 IR Inten    --    44.2182                 5.3114                 2.1017
 Raman Activ --     2.2660                 2.5468               104.6710

                   109                    110                    111
                     A                      A                      A
 Frequencies --  3259.0304              3269.4208              3272.8758
 Red. masses --     1.0667                 1.0759                 1.0767
 Frc consts  --     6.6754                 6.7760                 6.7952
 IR Inten    --    34.7850                 8.2335                 2.9204
 Raman Activ --    17.0523                28.0678               119.6692

                   112                    113                    114
                     A                      A                      A
 Frequencies --  3274.2576              3284.1163              3293.8495
 Red. masses --     1.0646                 1.0809                 1.0842
 Frc consts  --     6.7247                 6.8689                 6.9309
 IR Inten    --    51.7921                24.0141                 0.4165
 Raman Activ --   114.4000                 6.5747               111.9264

                   115                    116                    117
                     A                      A                      A
 Frequencies --  3300.9689              3303.7232              3306.5925
 Red. masses --     1.0841                 1.0848                 1.0862
 Frc consts  --     6.9600                 6.9763                 6.9973
 IR Inten    --     2.3996                39.1132                54.6019
 Raman Activ --    88.6078                 7.5471                12.4943

                   118                    119                    120
                     A                      A                      A
 Frequencies --  3310.7191              3320.9015              3325.7206
 Red. masses --     1.0931                 1.0847                 1.0951
 Frc consts  --     7.0589                 7.0480                 7.1361
 IR Inten    --    17.1228                57.8406                51.5764
 Raman Activ --    85.4179                18.6936                66.2598

                   121                    122                    123
                     A                      A                      A
 Frequencies --  3332.8126              3336.6624              3384.5565
 Red. masses --     1.0746                 1.1044                 1.0665
 Frc consts  --     7.0324                 7.2445                 7.1978
 IR Inten    --   454.6218                57.1651                51.8088
 Raman Activ --   112.8108                87.1515                98.5283

                   124                    125                    126
                     A                      A                      A
 Frequencies --  3387.0634              3387.9782              3396.0257
 Red. masses --     1.0665                 1.0675                 1.0660
 Frc consts  --     7.2085                 7.2196                 7.2436
 IR Inten    --    28.9678                25.8614                59.7498
 Raman Activ --   165.1012               124.7501                62.3243

                   127                    128                    129
                     A                      A                      A
 Frequencies --  3402.2057              3911.7777              3917.6037
 Red. masses --     1.0684                 1.0681                 1.0671
 Frc consts  --     7.2862                 9.6298                 9.6491
 IR Inten    --    85.3513                82.2261                56.8740
 Raman Activ --   151.9318                80.7252               141.7999

 - Thermochemistry -
 -------------------
 Temperature   298.150 Kelvin.  Pressure   1.00000 Atm.
 Atom     1 has atomic number  8 and mass  15.99491

 Molecular mass:   342.11621 amu.
 Principal axes and moments of inertia in atomic units:
                           1         2         3
     Eigenvalues --  4636.65952********************
           X            0.99999   0.00512   0.00080
           Y           -0.00513   0.99997   0.00652
           Z           -0.00077  -0.00652   0.99998
 This molecule is an asymmetric top.
 Rotational symmetry number  1.
 Warning -- assumption of classical behavior for rotation
           may cause significant error
 Rotational temperatures (Kelvin)      0.01868     0.00725     0.00544
 Rotational constants (GHZ):           0.38923     0.15114     0.11330
    8 imaginary frequencies ignored.
 Zero-point vibrational energy     976653.8 (Joules/Mol)
                                  233.42586 (Kcal/Mol)
 Warning -- explicit consideration of  31 degrees of freedom as
           vibrations may cause significant error
 Vibrational temperatures:     55.30    81.14    96.73   155.10   183.23
          (Kelvin)            201.91   234.85   290.34   319.98   323.97
                              383.85   406.87   438.07   448.86   473.00
                              494.89   510.41   526.58   531.80   589.06
                              606.65   627.27   633.07   677.05   701.08
                              744.55   766.10   818.54   837.70   856.79
                              885.18   906.43   941.13   978.63   982.43
                              992.41  1036.91  1049.98  1223.41  1241.99
                             1257.15  1326.44  1391.23  1410.86  1417.54
                             1438.28  1445.98  1467.07  1484.63  1495.76
                             1525.87  1528.40  1544.71  1552.28  1569.40
                             1572.96  1585.26  1601.49  1612.71  1623.72
                             1655.47  1657.98  1670.28  1678.54  1702.54
                             1716.44  1724.14  1734.62  1741.57  1759.03
                             1773.12  1785.40  1801.26  1812.80  1843.82
                             1850.27  1864.22  1881.08  1897.10  1900.85
                             1914.57  1921.37  1925.42  1944.34  1952.28
                             1968.22  1974.77  1982.67  1994.43  2029.28
                             2054.09  2070.98  2084.61  2097.28  2101.40
                             2110.50  2136.80  2148.97  2158.94  4679.62
                             4689.01  4703.96  4708.93  4710.92  4725.10
                             4739.11  4749.35  4753.31  4757.44  4763.38
                             4778.03  4784.96  4795.17  4800.71  4869.62
                             4873.22  4874.54  4886.12  4895.01  5628.17
                             5636.55

 Zero-point correction=                           0.371988 (Hartree/Particle)
 Thermal correction to Energy=                    0.389870
 Thermal correction to Enthalpy=                  0.390814
 Thermal correction to Gibbs Free Energy=         0.326549
 Sum of electronic and zero-point Energies=          -1297.516046
 Sum of electronic and thermal Energies=             -1297.498164
 Sum of electronic and thermal Enthalpies=           -1297.497220
 Sum of electronic and thermal Free Energies=        -1297.561485

                     E (Thermal)             CV                S
                      KCal/Mol        Cal/Mol-Kelvin    Cal/Mol-Kelvin
 Total                  244.647             74.193            135.257
 Electronic               0.000              0.000              0.000
 Translational            0.889              2.981             43.384
 Rotational               0.889              2.981             35.132
 Vibrational            242.870             68.232             56.740
 Vibration     1          0.594              1.982              5.338
 Vibration     2          0.596              1.975              4.580
 Vibration     3          0.598              1.970              4.233
 Vibration     4          0.606              1.943              3.308
 Vibration     5          0.611              1.926              2.986
 Vibration     6          0.615              1.913              2.799
 Vibration     7          0.623              1.888              2.512
 Vibration     8          0.639              1.837              2.117
 Vibration     9          0.648              1.807              1.940
 Vibration    10          0.650              1.803              1.917
 Vibration    11          0.672              1.734              1.617
 Vibration    12          0.682              1.706              1.517
 Vibration    13          0.695              1.665              1.392
 Vibration    14          0.700              1.651              1.352
 Vibration    15          0.712              1.618              1.266
 Vibration    16          0.723              1.588              1.194
 Vibration    17          0.731              1.566              1.145
 Vibration    18          0.739              1.542              1.097
 Vibration    19          0.742              1.535              1.081
 Vibration    20          0.774              1.450              0.929
 Vibration    21          0.784              1.423              0.886
 Vibration    22          0.796              1.392              0.839
 Vibration    23          0.800              1.383              0.827
 Vibration    24          0.828              1.315              0.736
 Vibration    25          0.843              1.278              0.691
 Vibration    26          0.873              1.211              0.616
 Vibration    27          0.887              1.178              0.582
 Vibration    28          0.925              1.098              0.506
 Vibration    29          0.939              1.070              0.481
 Vibration    30          0.953              1.041              0.457
 Vibration    31          0.975              1.000              0.424

 Normal termination of Gaussian 09 at Thu Jan 21 18:10:15 2016.
