 Gaussian 09, Revision B.01,
 Gaussian 09:  EM64L-G09RevB.01 12-Aug-2010

 -------------------------------------------------
 # freq=raman b3lyp/6-31+g(2d,p) geom=connectivity
 -------------------------------------------------

 -----------------
 423 7814/7814.com
 -----------------
 Symbolic Z-matrix:
 Charge =  0 Multiplicity = 1

                         Standard orientation:
 ---------------------------------------------------------------------
 Center     Atomic      Atomic             Coordinates (Angstroms)
 Number     Number       Type             X           Y           Z
 ---------------------------------------------------------------------
      1          8           0       -4.973715   -0.612728    0.459312
      2          6           0       -3.680918   -0.239491   -0.039693
      3          6           0       -3.279059    1.188443    0.288597
      4          8           0       -4.264357    2.138741   -0.144945
      5          1           0       -5.115010    1.612628   -0.138107
      6          6           0       -1.904650    1.581813   -0.230660
      7          8           0       -1.560719    2.910622    0.185062
      8          1           0       -0.635767    3.142107   -0.118134
      9          6           0       -2.706664   -2.621912   -0.096452
     10          8           0       -3.867461   -3.345938    0.338976
     11          1           0       -3.777547   -4.313139    0.099979
     12          6           0       -2.556765   -1.180521    0.361302
     13          8           0       -1.326337   -0.791326   -0.266421
     14          6           0       -0.906717    0.508753    0.173041
     15          8           0        0.353578    0.696170   -0.489088
     16          6           0        1.520569    0.180687    0.167752
     17          6           0        2.000205   -1.098154   -0.500041
     18          8           0        0.973381   -2.061618   -0.774199
     19          1           0        0.211216   -1.556868   -1.179382
     20          6           0        3.306918   -1.518535    0.153127
     21          8           0        3.808555   -2.810998   -0.215575
     22          1           0        4.659893   -2.965232    0.285521
     23          6           0        2.170388    2.688192    0.206552
     24          8           0        1.014363    3.297603   -0.384719
     25          1           0        1.159251    4.286653   -0.368782
     26          6           0        2.521433    1.265535   -0.194509
     27          8           0        3.819614    0.893509    0.291136
     28          6           0        4.335327   -0.411041   -0.011925
     29          8           0        5.452256   -0.506224    0.883610
     30          1           0        6.262240   -0.597152    0.376404
     31          1           0        3.013682    3.305653   -0.022573
     32          1           0        2.034551    2.700273    1.267826
     33          1           0        2.587107    1.265847   -1.262492
     34          1           0        1.390242    0.078376    1.224846
     35          1           0        2.300831   -0.780529   -1.476585
     36          1           0        3.103083   -1.576235    1.201946
     37          1           0        4.695000   -0.418268   -1.019637
     38          1           0       -5.550927   -0.828155   -0.276907
     39          1           0       -1.843921   -3.160168    0.236500
     40          1           0       -2.703860   -2.625195   -1.166443
     41          1           0       -2.436179   -1.156450    1.424213
     42          1           0       -3.749122   -0.293117   -1.106170
     43          1           0       -3.234682    1.255907    1.355546
     44          1           0       -1.954340    1.585593   -1.299499
     45          1           0       -0.769396    0.512347    1.234187
 ---------------------------------------------------------------------

 SCF Done:  E(RB3LYP) =  -1297.97806542     A.U. after   13 cycles

 The electronic state is 1-A.
 Alpha  occ. eigenvalues --  -19.19117 -19.18318 -19.18110 -19.17841 -19.17380
 Alpha  occ. eigenvalues --  -19.17091 -19.16787 -19.15706 -19.14851 -19.14452
 Alpha  occ. eigenvalues --  -19.13115 -10.31122 -10.30165 -10.25911 -10.25704
 Alpha  occ. eigenvalues --  -10.25647 -10.25521 -10.25409 -10.25147 -10.24743
 Alpha  occ. eigenvalues --  -10.24022 -10.23846 -10.23644  -1.09983  -1.08971
 Alpha  occ. eigenvalues --   -1.05966  -1.05201  -1.04032  -1.03486  -1.02734
 Alpha  occ. eigenvalues --   -1.02087  -1.01757  -1.00994  -0.99666  -0.82576
 Alpha  occ. eigenvalues --   -0.80177  -0.80041  -0.78250  -0.72130  -0.69988
 Alpha  occ. eigenvalues --   -0.67519  -0.64230  -0.63252  -0.62201  -0.61596
 Alpha  occ. eigenvalues --   -0.60209  -0.56559  -0.56076  -0.55326  -0.54664
 Alpha  occ. eigenvalues --   -0.53904  -0.53282  -0.52978  -0.51277  -0.50897
 Alpha  occ. eigenvalues --   -0.50723  -0.50036  -0.49348  -0.48787  -0.46870
 Alpha  occ. eigenvalues --   -0.46370  -0.45011  -0.44639  -0.43636  -0.43189
 Alpha  occ. eigenvalues --   -0.42662  -0.41794  -0.40847  -0.40412  -0.39019
 Alpha  occ. eigenvalues --   -0.38785  -0.38142  -0.37878  -0.36174  -0.35728
 Alpha  occ. eigenvalues --   -0.34928  -0.34657  -0.34521  -0.33871  -0.33790
 Alpha  occ. eigenvalues --   -0.33144  -0.31549  -0.30750  -0.30229  -0.29960
 Alpha  occ. eigenvalues --   -0.29419  -0.28216  -0.27768  -0.27086  -0.26812
 Alpha  occ. eigenvalues --   -0.26233
 Alpha virt. eigenvalues --   -0.02114  -0.01961  -0.01822  -0.00247   0.00153
 Alpha virt. eigenvalues --    0.00512   0.01663   0.02354   0.02859   0.03487
 Alpha virt. eigenvalues --    0.03849   0.04363   0.04749   0.05264   0.05783

 Mulliken atomic charges:
              1
     1  O   -0.531229
     2  C   -0.183913
     3  C    0.330314
     4  O   -0.549468
     5  H    0.336387
     6  C   -0.084006
     7  O   -0.588745
     8  H    0.416507
     9  C   -0.190821
    10  O   -0.539811
    11  H    0.337565
    12  C    0.079753
    13  O   -0.191109
    14  C    0.105666
    15  O   -0.259394
    16  C    0.429871
    17  C    0.115722
    18  O   -0.522532
    19  H    0.356712
    20  C    0.018779
    21  O   -0.537334
    22  H    0.335510
    23  C   -0.304641
    24  O   -0.554002
    25  H    0.364227
    26  C   -0.043738
    27  O   -0.262550
    28  C    0.208272
    29  O   -0.512288
    30  H    0.333532
    31  H    0.148497
    32  H    0.154665
    33  H    0.117283
    34  H    0.113692
    35  H    0.091799
    36  H    0.119378
    37  H    0.122084
    38  H    0.344404
    39  H    0.161853
    40  H    0.135819
    41  H    0.108970
    42  H    0.113771
    43  H    0.116541
    44  H    0.123499
    45  H    0.114506
 Sum of Mulliken atomic charges =   0.00000

 Dipole moment (field-independent basis, Debye):
    X=              3.4670    Y=             -0.2261    Z=             -1.6349  Tot=              3.8398
 Quadrupole moment (field-independent basis, Debye-Ang):
   XX=           -121.7485   YY=           -136.5883   ZZ=           -139.3271
   XY=             17.4402   XZ=              5.2644   YZ=             -1.4606

  Exact polarizability: 231.711  -1.228 199.261   2.738   0.864 144.767
 Approx polarizability: 273.196  -0.197 260.855   3.564   0.630 241.052

 ******    7 imaginary frequencies (negative Signs) ******

                     1                      2                      3
                     A                      A                      A
 Frequencies --  -268.9697              -262.4407              -214.6748
 Red. masses --     1.7371                 1.7485                 1.2643
 Frc consts  --     0.0740                 0.0710                 0.0343
 IR Inten    --     1.8599                20.5264                81.2291
 Raman Activ --     0.0379                 0.0893                 0.7032

                     4                      5                      6
                     A                      A                      A
 Frequencies --  -200.6933               -72.9458               -51.8708
 Red. masses --     1.2238                 7.0075                 6.5220
 Frc consts  --     0.0290                 0.0220                 0.0103
 IR Inten    --    98.9708                 0.4177                 0.1101
 Raman Activ --     0.7667                 0.0984                 0.0353

                     7                      8                      9
                     A                      A                      A
 Frequencies --   -35.7616                19.6863                50.8985
 Red. masses --     6.3399                 6.1306                 6.1194
 Frc consts  --     0.0048                 0.0014                 0.0093
 IR Inten    --     1.5301                 1.1634                 2.4703
 Raman Activ --     0.0962                 0.1994                 0.0300

                    10                     11                     12
                     A                      A                      A
 Frequencies --    74.2339                88.4168                98.3562
 Red. masses --     6.3513                 6.4367                 6.1924
 Frc consts  --     0.0206                 0.0296                 0.0353
 IR Inten    --     1.1496                 0.6474                 4.3631
 Raman Activ --     0.0351                 0.3672                 0.1265

                    13                     14                     15
                     A                      A                      A
 Frequencies --   155.5142               173.9487               190.6317
 Red. masses --     5.8001                 6.3754                 7.8164
 Frc consts  --     0.0826                 0.1137                 0.1674
 IR Inten    --     3.1658                 0.2460                 0.7923
 Raman Activ --     0.1582                 0.7343                 0.6032

                    16                     17                     18
                     A                      A                      A
 Frequencies --   219.9120               238.8302               262.9060
 Red. masses --     6.8796                 5.6526                 4.6131
 Frc consts  --     0.1960                 0.1900                 0.1879
 IR Inten    --     0.0465                 1.1929                 1.3538
 Raman Activ --     2.5507                 0.1796                 0.1358

                    19                     20                     21
                     A                      A                      A
 Frequencies --   269.4074               284.2333               296.6379
 Red. masses --     4.3318                 4.1617                 4.8417
 Frc consts  --     0.1852                 0.1981                 0.2510
 IR Inten    --    17.6168                 1.2357                 3.6316
 Raman Activ --     0.2413                 0.1345                 0.2826

                    22                     23                     24
                     A                      A                      A
 Frequencies --   299.5338               313.4647               324.8443
 Red. masses --     4.5320                 5.7526                 6.3112
 Frc consts  --     0.2396                 0.3330                 0.3924
 IR Inten    --     1.7109                 0.6302                 0.4947
 Raman Activ --     0.4177                 4.3755                 2.9738

                    25                     26                     27
                     A                      A                      A
 Frequencies --   342.8968               349.0570               381.6733
 Red. masses --     6.0676                 5.2285                 4.5238
 Frc consts  --     0.4203                 0.3753                 0.3883
 IR Inten    --    10.0057                 7.8519                 3.2907
 Raman Activ --     1.5002                 1.8405                 1.1677

                    28                     29                     30
                     A                      A                      A
 Frequencies --   405.0342               419.8188               427.5003
 Red. masses --     6.6432                 5.3078                 6.3914
 Frc consts  --     0.6421                 0.5512                 0.6882
 IR Inten    --    11.0861                 5.9594                 1.3123
 Raman Activ --     1.9926                 8.4627                 3.4689

                    31                     32                     33
                     A                      A                      A
 Frequencies --   432.7506               471.5854               473.7371
 Red. masses --     4.2433                 4.6509                 4.2161
 Frc consts  --     0.4682                 0.6094                 0.5575
 IR Inten    --     2.8753                14.3112                 8.7451
 Raman Activ --     1.8575                 1.6141                 3.6506

                    34                     35                     36
                     A                      A                      A
 Frequencies --   505.9453               523.0788               558.3588
 Red. masses --     4.7040                 3.0604                 4.3269
 Frc consts  --     0.7095                 0.4934                 0.7948
 IR Inten    --     2.5708                13.5423                22.6043
 Raman Activ --     2.9469                 2.8211                 1.4146

                    37                     38                     39
                     A                      A                      A
 Frequencies --   587.3412               592.9137               612.2787
 Red. masses --     4.2273                 4.4571                 3.4873
 Frc consts  --     0.8592                 0.9232                 0.7703
 IR Inten    --    17.7283                13.7643                20.9956
 Raman Activ --     0.6292                 0.4753                 0.3041

                    40                     41                     42
                     A                      A                      A
 Frequencies --   634.3507               696.3289               701.9690
 Red. masses --     4.8699                 4.7040                 1.0827
 Frc consts  --     1.1546                 1.3438                 0.3143
 IR Inten    --    36.5226                24.5117                91.4307
 Raman Activ --     1.1648                 0.1674                 1.9823

                    43                     44                     45
                     A                      A                      A
 Frequencies --   713.3744               720.6275               731.9305
 Red. masses --     1.1139                 1.0854                 1.0724
 Frc consts  --     0.3340                 0.3321                 0.3385
 IR Inten    --   142.3089               142.0422                95.7631
 Raman Activ --     5.6644                 1.7701                 1.8393

                    46                     47                     48
                     A                      A                      A
 Frequencies --   733.0133               804.3278               853.5767
 Red. masses --     1.0892                 1.0808                 1.7898
 Frc consts  --     0.3448                 0.4120                 0.7683
 IR Inten    --    72.4857               101.6410                 2.2158
 Raman Activ --     0.9718                 1.3882                 0.9661

                    49                     50                     51
                     A                      A                      A
 Frequencies --   854.1318               919.3694               938.9046
 Red. masses --     1.7195                 5.9147                 6.3130
 Frc consts  --     0.7391                 2.9456                 3.2789
 IR Inten    --     6.5862               211.2818                26.2315
 Raman Activ --     0.6549                 2.5994                 0.3655

                    52                     53                     54
                     A                      A                      A
 Frequencies --   958.9417               976.1832               985.2048
 Red. masses --     5.8484                 7.0414                 4.2780
 Frc consts  --     3.1687                 3.9534                 2.4465
 IR Inten    --    40.0823               141.8912                40.7906
 Raman Activ --     2.0372                 1.1376                 0.7988

                    55                     56                     57
                     A                      A                      A
 Frequencies --  1000.6304              1006.8311              1020.2815
 Red. masses --     4.8971                 6.4978                 6.7839
 Frc consts  --     2.8889                 3.8809                 4.1607
 IR Inten    --   176.7300                10.5212               149.5537
 Raman Activ --     2.0423                 1.7590                 2.5154

                    58                     59                     60
                     A                      A                      A
 Frequencies --  1038.5640              1047.9726              1063.6579
 Red. masses --     6.5388                 5.4840                 4.8510
 Frc consts  --     4.1554                 3.5485                 3.2336
 IR Inten    --   526.9851                50.4863                17.5589
 Raman Activ --     2.8162                 3.1579                15.4199

                    61                     62                     63
                     A                      A                      A
 Frequencies --  1069.3645              1072.1886              1089.0932
 Red. masses --     5.9225                 3.2522                 5.3992
 Frc consts  --     3.9903                 2.2027                 3.7732
 IR Inten    --   104.2175                27.3174                75.6507
 Raman Activ --     3.3555                11.9161                 5.0010

                    64                     65                     66
                     A                      A                      A
 Frequencies --  1102.2126              1105.4243              1116.6560
 Red. masses --     3.2222                 2.7998                 2.3684
 Frc consts  --     2.3064                 2.0158                 1.7400
 IR Inten    --    30.2670                58.3628                33.8445
 Raman Activ --     7.7703                 7.0199                10.6245

                    67                     68                     69
                     A                      A                      A
 Frequencies --  1120.4612              1140.3239              1142.4422
 Red. masses --     2.2676                 2.1682                 2.5997
 Frc consts  --     1.6773                 1.6611                 1.9992
 IR Inten    --    27.3776                57.8471                54.8130
 Raman Activ --     6.5211                 0.8882                 2.9935

                    70                     71                     72
                     A                      A                      A
 Frequencies --  1150.5355              1159.3886              1160.5477
 Red. masses --     3.0481                 1.8338                 2.5860
 Frc consts  --     2.3773                 1.4523                 2.0521
 IR Inten    --    19.6942                 3.9741                24.5362
 Raman Activ --     4.7017                 4.3722                 3.1087

                    73                     74                     75
                     A                      A                      A
 Frequencies --  1166.8496              1177.7074              1188.6383
 Red. masses --     2.0846                 1.6869                 1.9151
 Frc consts  --     1.6722                 1.3785                 1.5942
 IR Inten    --    53.4900                 7.8538                16.0261
 Raman Activ --     1.7587                 2.5523                 2.9069

                    76                     77                     78
                     A                      A                      A
 Frequencies --  1216.0366              1228.7509              1239.2627
 Red. masses --     1.2914                 1.5458                 1.2161
 Frc consts  --     1.1251                 1.3751                 1.1004
 IR Inten    --     5.3812                 6.8157                 7.6620
 Raman Activ --     2.5193                 1.3846                 2.1894

                    79                     80                     81
                     A                      A                      A
 Frequencies --  1243.6793              1249.6130              1268.2100
 Red. masses --     1.2884                 1.2312                 1.2978
 Frc consts  --     1.1742                 1.1328                 1.2298
 IR Inten    --     0.7404                 4.1493                27.0805
 Raman Activ --     4.1048                 1.3908                 2.9614

                    82                     83                     84
                     A                      A                      A
 Frequencies --  1281.9356              1284.5430              1293.2650
 Red. masses --     1.2834                 1.2398                 1.2531
 Frc consts  --     1.2426                 1.2054                 1.2348
 IR Inten    --     3.5679                 8.1774                 9.4405
 Raman Activ --     2.0953                 1.1917                 2.3645

                    85                     86                     87
                     A                      A                      A
 Frequencies --  1297.1846              1299.4926              1309.9532
 Red. masses --     1.2809                 1.2198                 1.1881
 Frc consts  --     1.2699                 1.2136                 1.2012
 IR Inten    --    14.2037                 9.1149                10.2014
 Raman Activ --     2.8705                 1.0601                 4.3499

                    88                     89                     90
                     A                      A                      A
 Frequencies --  1315.9363              1325.6863              1332.3715
 Red. masses --     1.2686                 1.2529                 1.2834
 Frc consts  --     1.2943                 1.2973                 1.3423
 IR Inten    --    48.0378                36.9690                 9.6706
 Raman Activ --    10.5226                 1.8770                 4.0556

                    91                     92                     93
                     A                      A                      A
 Frequencies --  1343.2261              1350.8336              1359.5176
 Red. masses --     1.2353                 1.2216                 1.2983
 Frc consts  --     1.3132                 1.3133                 1.4138
 IR Inten    --    14.5125                37.3692                15.8224
 Raman Activ --     2.5068                 5.6524                 3.5982

                    94                     95                     96
                     A                      A                      A
 Frequencies --  1364.6647              1373.0905              1382.8305
 Red. masses --     1.3193                 1.6523                 1.3534
 Frc consts  --     1.4476                 1.8354                 1.5248
 IR Inten    --     5.4038                11.4125                 5.5745
 Raman Activ --     7.1524                 5.3908                 3.0475

                    97                     98                     99
                     A                      A                      A
 Frequencies --  1394.0068              1404.4588              1413.7920
 Red. masses --     1.5348                 1.3512                 1.1236
 Frc consts  --     1.7573                 1.5703                 1.3232
 IR Inten    --    31.5520                 1.9024                14.9458
 Raman Activ --     6.9392                 6.1466                 1.5494

                   100                    101                    102
                     A                      A                      A
 Frequencies --  1440.2375              1453.5150              1460.2024
 Red. masses --     1.3707                 1.3606                 1.3962
 Frc consts  --     1.6752                 1.6936                 1.7540
 IR Inten    --    28.7255                23.9404                12.5575
 Raman Activ --     1.7075                 0.7950                 2.0571

                   103                    104                    105
                     A                      A                      A
 Frequencies --  1470.7599              1475.7223              1477.7785
 Red. masses --     1.0786                 1.2932                 1.1659
 Frc consts  --     1.3746                 1.6593                 1.5001
 IR Inten    --     5.3757                37.5169                11.9295
 Raman Activ --     4.7263                 2.2282                 2.4441

                   106                    107                    108
                     A                      A                      A
 Frequencies --  1496.2144              1521.3783              3238.2542
 Red. masses --     1.3302                 1.2333                 1.0802
 Frc consts  --     1.7545                 1.6818                 6.6741
 IR Inten    --    35.0951                51.0369                 4.7682
 Raman Activ --     1.9327                 1.4252                47.8462

                   109                    110                    111
                     A                      A                      A
 Frequencies --  3250.3188              3257.7517              3261.9705
 Red. masses --     1.0655                 1.0585                 1.0773
 Frc consts  --     6.6321                 6.6185                 6.7535
 IR Inten    --   693.6684                25.7069                 2.7751
 Raman Activ --    53.3709                48.8292               282.0165

                   112                    113                    114
                     A                      A                      A
 Frequencies --  3263.8685              3264.6067              3269.6091
 Red. masses --     1.0816                 1.0688                 1.0815
 Frc consts  --     6.7884                 6.7111                 6.8122
 IR Inten    --    10.4447               143.0649                40.6389
 Raman Activ --   100.5935               149.9804                21.0053

                   115                    116                    117
                     A                      A                      A
 Frequencies --  3270.8972              3278.6550              3283.0495
 Red. masses --     1.0770                 1.0830                 1.0858
 Frc consts  --     6.7887                 6.8589                 6.8951
 IR Inten    --    53.7253                18.9138                11.7162
 Raman Activ --    35.0161                64.2446                51.5010

                   118                    119                    120
                     A                      A                      A
 Frequencies --  3283.6568              3294.8586              3299.3353
 Red. masses --     1.0865                 1.0872                 1.0867
 Frc consts  --     6.9026                 6.9543                 6.9695
 IR Inten    --    60.8179                44.2680                84.5861
 Raman Activ --    42.3061                 4.9960                32.5580

                   121                    122                    123
                     A                      A                      A
 Frequencies --  3314.5760              3316.8406              3353.0207
 Red. masses --     1.1059                 1.1056                 1.0656
 Frc consts  --     7.1586                 7.1661                 7.0586
 IR Inten    --    38.3963                48.9529               256.2762
 Raman Activ --    28.9444                44.2713               101.8365

                   124                    125                    126
                     A                      A                      A
 Frequencies --  3357.5573              3362.7632              3371.6319
 Red. masses --     1.0651                 1.0673                 1.0660
 Frc consts  --     7.0743                 7.1113                 7.1401
 IR Inten    --    28.7651                44.9823                42.4536
 Raman Activ --    79.7042               175.2591               126.6762

                   127                    128                    129
                     A                      A                      A
 Frequencies --  3373.2347              3887.7223              3891.9307
 Red. masses --     1.0670                 1.0678                 1.0675
 Frc consts  --     7.1532                 9.5091                 9.5268
 IR Inten    --    50.5513                83.0326                79.3325
 Raman Activ --   166.7841                78.7900               124.0923

 - Thermochemistry -
 -------------------
 Temperature   298.150 Kelvin.  Pressure   1.00000 Atm.
 Atom     1 has atomic number  8 and mass  15.99491

 Molecular mass:   342.11621 amu.
 Principal axes and moments of inertia in atomic units:
                           1         2         3
     Eigenvalues --  4543.54240********************
           X            0.99997   0.00820   0.00064
           Y           -0.00820   0.99997   0.00104
           Z           -0.00063  -0.00105   1.00000
 This molecule is an asymmetric top.
 Rotational symmetry number  1.
 Warning -- assumption of classical behavior for rotation
           may cause significant error
 Rotational temperatures (Kelvin)      0.01906     0.00724     0.00540
 Rotational constants (GHZ):           0.39721     0.15080     0.11256
    7 imaginary frequencies ignored.
 Zero-point vibrational energy     974488.1 (Joules/Mol)
                                  232.90825 (Kcal/Mol)
 Warning -- explicit consideration of  32 degrees of freedom as
           vibrations may cause significant error
 Vibrational temperatures:     28.32    73.23   106.81   127.21   141.51
          (Kelvin)            223.75   250.27   274.28   316.40   343.62
                              378.26   387.62   408.95   426.80   430.96
                              451.01   467.38   493.35   502.21   549.14
                              582.75   604.02   615.08   622.63   678.51
                              681.60   727.94   752.59   803.35   845.05
                              853.07   880.93   912.69  1001.86  1009.98
                             1026.39  1036.82  1053.08  1054.64  1157.25
                             1228.10  1228.90  1322.77  1350.87  1379.70
                             1404.51  1417.49  1439.68  1448.60  1467.96
                             1494.26  1507.80  1530.36  1538.58  1542.64
                             1566.96  1585.84  1590.46  1606.62  1612.09
                             1640.67  1643.72  1655.36  1668.10  1669.77
                             1678.83  1694.46  1710.18  1749.60  1767.90
                             1783.02  1789.37  1797.91  1824.67  1844.42
                             1848.17  1860.72  1866.36  1869.68  1884.73
                             1893.34  1907.36  1916.98  1932.60  1943.55
                             1956.04  1963.45  1975.57  1989.58  2005.66
                             2020.70  2034.13  2072.18  2091.28  2100.90
                             2116.09  2123.23  2126.19  2152.72  2188.92
                             4659.12  4676.48  4687.17  4693.24  4695.97
                             4697.03  4704.23  4706.09  4717.25  4723.57
                             4724.44  4740.56  4747.00  4768.93  4772.19
                             4824.24  4830.77  4838.26  4851.02  4853.33
                             5593.56  5599.61

 Zero-point correction=                           0.371163 (Hartree/Particle)
 Thermal correction to Energy=                    0.389704
 Thermal correction to Enthalpy=                  0.390648
 Thermal correction to Gibbs Free Energy=         0.324490
 Sum of electronic and zero-point Energies=          -1297.606902
 Sum of electronic and thermal Energies=             -1297.588362
 Sum of electronic and thermal Enthalpies=           -1297.587418
 Sum of electronic and thermal Free Energies=        -1297.653575

                     E (Thermal)             CV                S
                      KCal/Mol        Cal/Mol-Kelvin    Cal/Mol-Kelvin
 Total                  244.543             76.158            139.241
 Electronic               0.000              0.000              0.000
 Translational            0.889              2.981             43.384
 Rotational               0.889              2.981             35.121
 Vibrational            242.765             70.196             60.735
 Vibration     1          0.593              1.986              6.666
 Vibration     2          0.595              1.977              4.782
 Vibration     3          0.599              1.966              4.038
 Vibration     4          0.601              1.957              3.695
 Vibration     5          0.604              1.950              3.487
 Vibration     6          0.620              1.897              2.604
 Vibration     7          0.627              1.875              2.392
 Vibration     8          0.634              1.853              2.222
 Vibration     9          0.647              1.811              1.960
 Vibration    10          0.657              1.781              1.812
 Vibration    11          0.670              1.741              1.642
 Vibration    12          0.674              1.729              1.600
 Vibration    13          0.683              1.703              1.508
 Vibration    14          0.690              1.680              1.436
 Vibration    15          0.692              1.675              1.420
 Vibration    16          0.701              1.648              1.344
 Vibration    17          0.709              1.626              1.286
 Vibration    18          0.722              1.590              1.199
 Vibration    19          0.726              1.577              1.170
 Vibration    20          0.751              1.509              1.033
 Vibration    21          0.770              1.459              0.944
 Vibration    22          0.782              1.427              0.893
 Vibration    23          0.789              1.410              0.867
 Vibration    24          0.794              1.399              0.850
 Vibration    25          0.829              1.313              0.733
 Vibration    26          0.831              1.308              0.727
 Vibration    27          0.861              1.237              0.643
 Vibration    28          0.878              1.199              0.603
 Vibration    29          0.914              1.121              0.527
 Vibration    30          0.944              1.059              0.472
 Vibration    31          0.950              1.047              0.462
 Vibration    32          0.972              1.006              0.429

 Normal termination of Gaussian 09 at Sun Mar 27 05:54:55 2016.
