 Gaussian 09, Revision B.01,
 Gaussian 09:  EM64L-G09RevB.01 12-Aug-2010

 -------------------------------------------------
 # freq=raman b3lyp/6-31+g(2d,p) geom=connectivity
 -------------------------------------------------

 -----------------
 500 8990/8990.com
 -----------------
 Symbolic Z-matrix:
 Charge =  0 Multiplicity = 1

                         Standard orientation:
 ---------------------------------------------------------------------
 Center     Atomic      Atomic             Coordinates (Angstroms)
 Number     Number       Type             X           Y           Z
 ---------------------------------------------------------------------
      1          8           0        5.043898   -0.610942   -0.416623
      2          6           0        3.812023   -0.169118    0.172346
      3          6           0        3.415541    1.214050   -0.316843
      4          8           0        4.526678    2.119548   -0.401291
      5          1           0        5.395574    1.626660   -0.448730
      6          6           0        2.099551    1.674834    0.287364
      7          8           0        1.659143    2.958628   -0.177586
      8          1           0        2.419133    3.600399   -0.284049
      9          6           0        3.054543   -2.463075    0.295091
     10          8           0        2.106033   -3.512413    0.054744
     11          1           0        2.544197   -4.388040    0.254682
     12          6           0        2.650238   -1.080381   -0.188844
     13          8           0        1.491700   -0.682462    0.558478
     14          6           0        1.059937    0.589853    0.056441
     15          8           0       -0.190381    0.801179    0.727361
     16          6           0       -1.376147    0.363322    0.047454
     17          6           0       -1.722211   -1.087397    0.344339
     18          8           0       -0.671117   -1.916670   -0.170897
     19          1           0        0.233785   -1.624498    0.139511
     20          6           0       -2.981787   -1.467022   -0.415664
     21          8           0       -3.184734   -2.871507   -0.200758
     22          1           0       -2.538140   -3.547920   -0.552185
     23          6           0       -2.616799    2.511044   -0.412918
     24          8           0       -2.987748    3.712613    0.278886
     25          1           0       -2.684189    4.511534   -0.240810
     26          6           0       -2.585264    1.219217    0.386709
     27          8           0       -3.925405    0.733561    0.221152
     28          6           0       -4.142066   -0.684479    0.177401
     29          8           0       -5.271437   -1.037193   -0.635105
     30          1           0       -6.053180   -1.109096   -0.082559
     31          1           0       -4.315471   -1.033215    1.174002
     32          1           0       -2.873750   -1.254338   -1.458733
     33          1           0       -1.849539   -1.242406    1.395367
     34          1           0       -1.199113    0.448912   -1.004322
     35          1           0       -2.482911    1.490930    1.416561
     36          1           0       -3.302731    2.376317   -1.223008
     37          1           0       -1.642055    2.661473   -0.827822
     38          1           0        5.696835   -0.749617    0.273336
     39          1           0        3.230724   -2.408559    1.349078
     40          1           0        3.973253   -2.728363   -0.185007
     41          1           0        2.459881   -1.074421   -1.241759
     42          1           0        3.921511   -0.146232    1.236483
     43          1           0        3.162939    1.051365   -1.343793
     44          1           0        2.246395    1.755199    1.344189
     45          1           0        0.878458    0.504089   -0.994564
 ---------------------------------------------------------------------

 SCF Done:  E(RB3LYP) =  -1297.97189948     A.U. after   13 cycles

 The electronic state is 1-A.
 Alpha  occ. eigenvalues --  -19.20561 -19.20296 -19.18008 -19.17923 -19.17541
 Alpha  occ. eigenvalues --  -19.16690 -19.15565 -19.15081 -19.14203 -19.13389
 Alpha  occ. eigenvalues --  -19.12074 -10.32033 -10.28300 -10.27857 -10.27304
 Alpha  occ. eigenvalues --  -10.27147 -10.26587 -10.25061 -10.24782 -10.23860
 Alpha  occ. eigenvalues --  -10.23357 -10.22580 -10.21771  -1.11692  -1.08252
 Alpha  occ. eigenvalues --   -1.06203  -1.05057  -1.04557  -1.03191  -1.03061
 Alpha  occ. eigenvalues --   -1.01375  -1.00790  -1.00123  -0.98300  -0.83718
 Alpha  occ. eigenvalues --   -0.82211  -0.78999  -0.77471  -0.72427  -0.69204
 Alpha  occ. eigenvalues --   -0.67406  -0.64794  -0.63871  -0.63616  -0.61576
 Alpha  occ. eigenvalues --   -0.59012  -0.58094  -0.56112  -0.55425  -0.54558
 Alpha  occ. eigenvalues --   -0.54273  -0.53456  -0.52610  -0.51737  -0.51014
 Alpha  occ. eigenvalues --   -0.50886  -0.49847  -0.48872  -0.48365  -0.46709
 Alpha  occ. eigenvalues --   -0.45979  -0.45113  -0.44539  -0.43648  -0.43392
 Alpha  occ. eigenvalues --   -0.42570  -0.41777  -0.40669  -0.40105  -0.39638
 Alpha  occ. eigenvalues --   -0.38640  -0.38150  -0.37407  -0.36877  -0.36085
 Alpha  occ. eigenvalues --   -0.35603  -0.34885  -0.33625  -0.33132  -0.32925
 Alpha  occ. eigenvalues --   -0.31949  -0.31520  -0.30476  -0.29913  -0.29556
 Alpha  occ. eigenvalues --   -0.29397  -0.29146  -0.27316  -0.26644  -0.26009
 Alpha  occ. eigenvalues --   -0.25257
 Alpha virt. eigenvalues --   -0.04023  -0.01996  -0.00947   0.00154   0.00776
 Alpha virt. eigenvalues --    0.01114   0.01715   0.02383   0.02736   0.03278
 Alpha virt. eigenvalues --    0.03793   0.04113   0.04729   0.05443   0.05865

 Mulliken atomic charges:
              1
     1  O   -0.562823
     2  C   -0.165142
     3  C    0.208695
     4  O   -0.608221
     5  H    0.354134
     6  C   -0.056189
     7  O   -0.553795
     8  H    0.357085
     9  C   -0.400697
    10  O   -0.532361
    11  H    0.341005
    12  C    0.356900
    13  O   -0.302764
    14  C    0.185058
    15  O   -0.273433
    16  C    0.514678
    17  C    0.235483
    18  O   -0.604604
    19  H    0.432337
    20  C   -0.080881
    21  O   -0.547874
    22  H    0.360582
    23  C   -0.432827
    24  O   -0.512101
    25  H    0.325381
    26  C   -0.022165
    27  O   -0.307602
    28  C    0.307112
    29  O   -0.502888
    30  H    0.322786
    31  H    0.122716
    32  H    0.127421
    33  H    0.122089
    34  H    0.105409
    35  H    0.127332
    36  H    0.153473
    37  H    0.130358
    38  H    0.348417
    39  H    0.140405
    40  H    0.161158
    41  H    0.136666
    42  H    0.127913
    43  H    0.105791
    44  H    0.127407
    45  H    0.128578
 Sum of Mulliken atomic charges =   0.00000

 Dipole moment (field-independent basis, Debye):
    X=              8.5714    Y=             -1.0962    Z=              0.6529  Tot=              8.6659
 Quadrupole moment (field-independent basis, Debye-Ang):
   XX=           -119.8343   YY=           -135.7036   ZZ=           -138.1894
   XY=             -8.5666   XZ=              5.2032   YZ=             -9.3429

  Exact polarizability: 225.915   2.807 204.117   0.147  -1.151 143.497
 Approx polarizability: 269.713   1.500 263.674  -1.065  -0.303 238.338

 ******    7 imaginary frequencies (negative Signs) ******

                     1                      2                      3
                     A                      A                      A
 Frequencies --  -273.9706              -230.6555              -157.1873
 Red. masses --     1.8914                 1.8356                 1.0946
 Frc consts  --     0.0836                 0.0575                 0.0159
 IR Inten    --     4.4763                 4.1085                91.6432
 Raman Activ --     0.2373                 0.0915                 1.1033

                     4                      5                      6
                     A                      A                      A
 Frequencies --   -97.1948               -65.0676               -49.4547
 Red. masses --     6.6735                 6.7002                 5.6702
 Frc consts  --     0.0371                 0.0167                 0.0082
 IR Inten    --     1.1034                 1.8879                 2.3603
 Raman Activ --     0.0698                 0.0737                 0.1294

                     7                      8                      9
                     A                      A                      A
 Frequencies --   -29.9420                63.7624                67.4003
 Red. masses --     3.8244                 2.6565                 6.9110
 Frc consts  --     0.0020                 0.0064                 0.0185
 IR Inten    --    22.7304                34.7057                 1.3292
 Raman Activ --     0.1498                 0.2794                 0.0723

                    10                     11                     12
                     A                      A                      A
 Frequencies --    80.7643                92.1841               108.6925
 Red. masses --     6.3519                 4.4322                 3.8080
 Frc consts  --     0.0244                 0.0222                 0.0265
 IR Inten    --     2.4404                25.5325                15.2691
 Raman Activ --     0.0468                 0.3565                 0.1462

                    13                     14                     15
                     A                      A                      A
 Frequencies --   126.9142               181.2668               189.4990
 Red. masses --     5.1430                 5.4774                 6.7368
 Frc consts  --     0.0488                 0.1060                 0.1425
 IR Inten    --    10.5075                 0.4029                 1.0110
 Raman Activ --     0.4869                 0.2211                 2.5226

                    16                     17                     18
                     A                      A                      A
 Frequencies --   202.1336               238.3666               269.8044
 Red. masses --     6.4309                 4.9454                 5.7721
 Frc consts  --     0.1548                 0.1656                 0.2476
 IR Inten    --     0.2806                 8.3829                 5.4524
 Raman Activ --     0.3999                 0.3697                 0.8672

                    19                     20                     21
                     A                      A                      A
 Frequencies --   282.2680               295.0632               302.2441
 Red. masses --     4.9584                 4.6883                 6.5861
 Frc consts  --     0.2328                 0.2405                 0.3545
 IR Inten    --     8.5446                 6.3780                 7.7874
 Raman Activ --     0.4180                 0.2772                 1.6153

                    22                     23                     24
                     A                      A                      A
 Frequencies --   313.3544               323.3975               345.7862
 Red. masses --     4.9350                 5.7419                 4.4981
 Frc consts  --     0.2855                 0.3538                 0.3169
 IR Inten    --     2.4398                 5.3496                 2.8476
 Raman Activ --     1.6322                 0.3544                 3.0531

                    25                     26                     27
                     A                      A                      A
 Frequencies --   355.8842               368.3661               379.9121
 Red. masses --     6.1551                 4.5083                 5.8933
 Frc consts  --     0.4593                 0.3604                 0.5012
 IR Inten    --     0.8590                 2.1314                 3.5116
 Raman Activ --     0.8413                 3.5575                 0.8074

                    28                     29                     30
                     A                      A                      A
 Frequencies --   414.1081               422.4267               434.4028
 Red. masses --     3.7779                 7.4668                 6.3667
 Frc consts  --     0.3817                 0.7850                 0.7079
 IR Inten    --    11.7707                 4.5913                 2.7875
 Raman Activ --     2.3413                 3.7204                 2.7367

                    31                     32                     33
                     A                      A                      A
 Frequencies --   458.4864               473.6651               484.7449
 Red. masses --     6.2206                 3.4581                 4.7289
 Frc consts  --     0.7704                 0.4571                 0.6547
 IR Inten    --     4.3825                18.2467                 5.0797
 Raman Activ --     3.6322                 0.7705                 0.9838

                    34                     35                     36
                     A                      A                      A
 Frequencies --   533.2613               540.7821               552.7699
 Red. masses --     3.7184                 3.9424                 5.0235
 Frc consts  --     0.6230                 0.6793                 0.9044
 IR Inten    --    11.0815                13.6578                 6.6680
 Raman Activ --     0.8455                 1.1296                 7.9545

                    37                     38                     39
                     A                      A                      A
 Frequencies --   582.7291               586.8970               609.0770
 Red. masses --     1.5268                 3.1280                 3.5026
 Frc consts  --     0.3055                 0.6348                 0.7656
 IR Inten    --   121.6971                34.3709                 1.5965
 Raman Activ --     0.4713                 0.6378                 0.5229

                    40                     41                     42
                     A                      A                      A
 Frequencies --   624.1652               641.6940               669.8242
 Red. masses --     1.7563                 2.8401                 1.3933
 Frc consts  --     0.4031                 0.6890                 0.3683
 IR Inten    --    33.9307                24.5379                76.9560
 Raman Activ --     0.9727                 0.5790                 1.4425

                    43                     44                     45
                     A                      A                      A
 Frequencies --   672.2098               681.5372               684.1454
 Red. masses --     1.6896                 1.3400                 1.0684
 Frc consts  --     0.4498                 0.3667                 0.2946
 IR Inten    --    55.9112                73.8200               102.6769
 Raman Activ --     1.1754                 0.9886                 1.8058

                    46                     47                     48
                     A                      A                      A
 Frequencies --   692.3978               852.4867               862.1585
 Red. masses --     1.0783                 2.4990                 2.8138
 Frc consts  --     0.3046                 1.0700                 1.2323
 IR Inten    --   112.0122                13.0306                21.3066
 Raman Activ --     2.1575                 4.3526                 1.5179

                    49                     50                     51
                     A                      A                      A
 Frequencies --   886.1977               924.9367               957.2175
 Red. masses --     1.1126                 5.7293                 6.4484
 Frc consts  --     0.5148                 2.8878                 3.4812
 IR Inten    --    54.3977               117.1202               266.2981
 Raman Activ --     1.4565                 1.1790                 1.1941

                    52                     53                     54
                     A                      A                      A
 Frequencies --   969.1095               976.2889               983.7935
 Red. masses --     4.5083                 8.3674                 3.9487
 Frc consts  --     2.4947                 4.6989                 2.2517
 IR Inten    --    25.1770                38.2626               115.9668
 Raman Activ --     3.4027                 3.0283                 4.7775

                    55                     56                     57
                     A                      A                      A
 Frequencies --   986.9818               998.3136              1011.4159
 Red. masses --     4.6588                 4.6793                 5.9521
 Frc consts  --     2.6739                 2.7477                 3.5874
 IR Inten    --    59.2523               333.8412               206.8690
 Raman Activ --     1.0422                 1.7656                 0.6548

                    58                     59                     60
                     A                      A                      A
 Frequencies --  1041.1703              1045.6657              1056.0420
 Red. masses --     3.8346                 4.5848                 3.4988
 Frc consts  --     2.4491                 2.9537                 2.2990
 IR Inten    --   229.2728                71.6833                13.7439
 Raman Activ --     6.4259                 2.7056                 1.4702

                    61                     62                     63
                     A                      A                      A
 Frequencies --  1061.5226              1069.6140              1072.4550
 Red. masses --     2.6398                 5.9485                 3.5880
 Frc consts  --     1.7526                 4.0097                 2.4314
 IR Inten    --    14.6656               234.8259                 4.1272
 Raman Activ --    13.4474                14.0431                 4.1932

                    64                     65                     66
                     A                      A                      A
 Frequencies --  1081.0900              1082.9013              1095.9351
 Red. masses --     2.6099                 2.8761                 2.8834
 Frc consts  --     1.7972                 1.9871                 2.0404
 IR Inten    --    28.1501                 4.7336                14.0437
 Raman Activ --     2.6834                 3.1405                 7.1172

                    67                     68                     69
                     A                      A                      A
 Frequencies --  1114.3020              1119.8140              1132.6422
 Red. masses --     2.0590                 2.4397                 2.2421
 Frc consts  --     1.5063                 1.8025                 1.6947
 IR Inten    --    13.3061                 4.7213                12.9877
 Raman Activ --     2.7110                 5.7440                 1.6647

                    70                     71                     72
                     A                      A                      A
 Frequencies --  1142.2039              1145.0144              1154.6344
 Red. masses --     3.3710                 1.8477                 1.8213
 Frc consts  --     2.5912                 1.4273                 1.4306
 IR Inten    --    30.8725                16.8031                23.5145
 Raman Activ --     1.5799                 2.5718                 5.2049

                    73                     74                     75
                     A                      A                      A
 Frequencies --  1162.3777              1166.9609              1180.9385
 Red. masses --     3.0685                 2.2752                 1.5550
 Frc consts  --     2.4427                 1.8255                 1.2777
 IR Inten    --    43.3964                 3.8201                28.0564
 Raman Activ --     4.4729                 1.3955                 1.6510

                    76                     77                     78
                     A                      A                      A
 Frequencies --  1190.8339              1218.2749              1221.9530
 Red. masses --     1.7541                 1.3699                 1.3152
 Frc consts  --     1.4656                 1.1979                 1.1570
 IR Inten    --    18.0250                 7.9770                 5.7849
 Raman Activ --     1.5208                 2.0852                 0.6635

                    79                     80                     81
                     A                      A                      A
 Frequencies --  1250.4005              1257.8796              1264.2050
 Red. masses --     1.3106                 1.1960                 1.2240
 Frc consts  --     1.2073                 1.1149                 1.1526
 IR Inten    --    21.9824                 6.9395                 4.7627
 Raman Activ --     4.0539                 2.6928                 3.0748

                    82                     83                     84
                     A                      A                      A
 Frequencies --  1270.3534              1285.0588              1288.2124
 Red. masses --     1.2919                 1.1451                 1.1912
 Frc consts  --     1.2284                 1.1141                 1.1647
 IR Inten    --    39.8816                 6.5320                 9.0526
 Raman Activ --     2.7349                 5.2351                 1.4338

                    85                     86                     87
                     A                      A                      A
 Frequencies --  1294.0457              1304.5812              1312.9275
 Red. masses --     1.2351                 1.2848                 1.5350
 Frc consts  --     1.2186                 1.2884                 1.5589
 IR Inten    --     5.3179                 2.0526                30.6907
 Raman Activ --     1.3206                 1.6721                 3.8344

                    88                     89                     90
                     A                      A                      A
 Frequencies --  1315.4243              1320.0004              1326.6839
 Red. masses --     1.2062                 1.2458                 1.2632
 Frc consts  --     1.2297                 1.2789                 1.3100
 IR Inten    --    34.3416                14.7688                28.3188
 Raman Activ --     7.5290                 1.9231                 5.6458

                    91                     92                     93
                     A                      A                      A
 Frequencies --  1328.3601              1338.7284              1341.6507
 Red. masses --     1.2917                 1.1826                 1.4848
 Frc consts  --     1.3429                 1.2487                 1.5747
 IR Inten    --    35.8265                11.5538                15.7797
 Raman Activ --     2.7691                 3.8861                 3.2743

                    94                     95                     96
                     A                      A                      A
 Frequencies --  1342.8099              1350.4564              1351.4511
 Red. masses --     1.4295                 1.2845                 1.2203
 Frc consts  --     1.5187                 1.3802                 1.3132
 IR Inten    --    39.7856                25.2900                57.1732
 Raman Activ --     1.8066                 1.6754                 3.4945

                    97                     98                     99
                     A                      A                      A
 Frequencies --  1387.2732              1391.8377              1406.9286
 Red. masses --     1.3602                 1.2837                 1.4669
 Frc consts  --     1.5424                 1.4652                 1.7108
 IR Inten    --     4.9476                10.5307                31.0598
 Raman Activ --     7.6483                 1.8714                 2.4275

                   100                    101                    102
                     A                      A                      A
 Frequencies --  1416.4059              1431.2974              1432.5601
 Red. masses --     1.7116                 1.2589                 1.4047
 Frc consts  --     2.0232                 1.5195                 1.6985
 IR Inten    --     4.6300                19.0338                40.6696
 Raman Activ --     7.9584                 3.2690                 3.8116

                   103                    104                    105
                     A                      A                      A
 Frequencies --  1459.8288              1460.6646              1462.7995
 Red. masses --     1.2961                 1.2860                 1.1964
 Frc consts  --     1.6274                 1.6165                 1.5083
 IR Inten    --     6.8111                20.0427                 4.5891
 Raman Activ --     0.3486                 1.5416                 3.1114

                   106                    107                    108
                     A                      A                      A
 Frequencies --  1468.9556              1481.4627              3240.5072
 Red. masses --     1.0994                 1.2392                 1.0685
 Frc consts  --     1.3978                 1.6024                 6.6108
 IR Inten    --     4.2345                36.1563              1016.1463
 Raman Activ --     4.6111                 2.2775               192.7634

                   109                    110                    111
                     A                      A                      A
 Frequencies --  3245.8732              3253.9635              3259.9237
 Red. masses --     1.0795                 1.0593                 1.0579
 Frc consts  --     6.7009                 6.6085                 6.6238
 IR Inten    --     8.1823                35.1234                20.3001
 Raman Activ --    55.4180                65.7220                95.7693

                   112                    113                    114
                     A                      A                      A
 Frequencies --  3267.1820              3273.1384              3278.9060
 Red. masses --     1.0819                 1.0821                 1.0850
 Frc consts  --     6.8042                 6.8303                 6.8727
 IR Inten    --    12.3106                 3.6136                22.5803
 Raman Activ --    34.8972                72.4185               101.9206

                   115                    116                    117
                     A                      A                      A
 Frequencies --  3282.5549              3286.1920              3288.3924
 Red. masses --     1.0838                 1.0850                 1.0851
 Frc consts  --     6.8805                 6.9032                 6.9134
 IR Inten    --     3.9514                 5.4541                21.6473
 Raman Activ --    22.7318               128.2966                63.7882

                   118                    119                    120
                     A                      A                      A
 Frequencies --  3289.7216              3300.6818              3304.5306
 Red. masses --     1.0840                 1.0885                 1.0869
 Frc consts  --     6.9119                 6.9867                 6.9929
 IR Inten    --    35.4162                41.3611                79.4990
 Raman Activ --    62.4724                10.9511                 2.8551

                   121                    122                    123
                     A                      A                      A
 Frequencies --  3305.7643              3318.3129              3365.2776
 Red. masses --     1.1048                 1.1033                 1.0675
 Frc consts  --     7.1136                 7.1578                 7.1228
 IR Inten    --    38.2278                42.2317                40.8427
 Raman Activ --    34.1189                44.0803               124.4091

                   124                    125                    126
                     A                      A                      A
 Frequencies --  3365.6429              3372.5230              3377.6323
 Red. masses --     1.0661                 1.0671                 1.0672
 Frc consts  --     7.1148                 7.1513                 7.1734
 IR Inten    --    68.7341                72.2620                42.0424
 Raman Activ --   110.7677               103.5021               179.8558

                   127                    128                    129
                     A                      A                      A
 Frequencies --  3386.1790              3886.6658              3886.7664
 Red. masses --     1.0679                 1.0675                 1.0674
 Frc consts  --     7.2146                 9.5011                 9.5010
 IR Inten    --    79.8573               120.5326                23.4712
 Raman Activ --    97.8019                32.4775               203.4995

 - Thermochemistry -
 -------------------
 Temperature   298.150 Kelvin.  Pressure   1.00000 Atm.
 Atom     1 has atomic number  8 and mass  15.99491

 Molecular mass:   342.11621 amu.
 Principal axes and moments of inertia in atomic units:
                           1         2         3
     Eigenvalues --  4736.24068********************
           X            0.99997  -0.00749   0.00146
           Y            0.00750   0.99995  -0.00665
           Z           -0.00141   0.00666   0.99998
 This molecule is an asymmetric top.
 Rotational symmetry number  1.
 Warning -- assumption of classical behavior for rotation
           may cause significant error
 Rotational temperatures (Kelvin)      0.01829     0.00735     0.00538
 Rotational constants (GHZ):           0.38105     0.15305     0.11219
    7 imaginary frequencies ignored.
 Zero-point vibrational energy     971913.3 (Joules/Mol)
                                  232.29284 (Kcal/Mol)
 Warning -- explicit consideration of  32 degrees of freedom as
           vibrations may cause significant error
 Vibrational temperatures:     91.74    96.97   116.20   132.63   156.38
          (Kelvin)            182.60   260.80   272.65   290.82   342.96
                              388.19   406.12   424.53   434.86   450.85
                              465.30   497.51   512.04   530.00   546.61
                              595.81   607.78   625.01   659.66   681.50
                              697.44   767.24   778.06   795.31   838.42
                              844.41   876.32   898.03   923.25   963.73
                              967.16   980.58   984.33   996.20  1226.54
                             1240.45  1275.04  1330.78  1377.22  1394.33
                             1404.66  1415.46  1420.04  1436.35  1455.20
                             1498.01  1504.48  1519.41  1527.29  1538.93
                             1543.02  1555.45  1558.05  1576.80  1603.23
                             1611.16  1629.62  1643.37  1647.42  1661.26
                             1672.40  1678.99  1699.11  1713.34  1752.82
                             1758.12  1799.05  1809.81  1818.91  1827.75
                             1848.91  1853.45  1861.84  1877.00  1889.01
                             1892.60  1899.18  1908.80  1911.21  1926.13
                             1930.33  1932.00  1943.00  1944.43  1995.97
                             2002.54  2024.25  2037.89  2059.32  2061.13
                             2100.37  2101.57  2104.64  2113.50  2131.49
                             4662.36  4670.08  4681.72  4690.30  4700.74
                             4709.31  4717.61  4722.86  4728.09  4731.26
                             4733.17  4748.94  4754.48  4756.25  4774.31
                             4841.88  4842.40  4852.30  4859.65  4871.95
                             5592.04  5592.18

 Zero-point correction=                           0.370182 (Hartree/Particle)
 Thermal correction to Energy=                    0.388538
 Thermal correction to Enthalpy=                  0.389482
 Thermal correction to Gibbs Free Energy=         0.324893
 Sum of electronic and zero-point Energies=          -1297.601717
 Sum of electronic and thermal Energies=             -1297.583362
 Sum of electronic and thermal Enthalpies=           -1297.582417
 Sum of electronic and thermal Free Energies=        -1297.647006

                     E (Thermal)             CV                S
                      KCal/Mol        Cal/Mol-Kelvin    Cal/Mol-Kelvin
 Total                  243.811             76.447            135.939
 Electronic               0.000              0.000              0.000
 Translational            0.889              2.981             43.384
 Rotational               0.889              2.981             35.151
 Vibrational            242.034             70.486             57.404
 Vibration     1          0.597              1.972              4.337
 Vibration     2          0.598              1.970              4.228
 Vibration     3          0.600              1.962              3.872
 Vibration     4          0.602              1.955              3.613
 Vibration     5          0.606              1.942              3.292
 Vibration     6          0.611              1.926              2.992
 Vibration     7          0.630              1.865              2.315
 Vibration     8          0.633              1.854              2.233
 Vibration     9          0.639              1.837              2.114
 Vibration    10          0.656              1.782              1.815
 Vibration    11          0.674              1.729              1.597
 Vibration    12          0.681              1.706              1.520
 Vibration    13          0.689              1.683              1.445
 Vibration    14          0.694              1.669              1.404
 Vibration    15          0.701              1.648              1.345
 Vibration    16          0.708              1.629              1.293
 Vibration    17          0.724              1.584              1.185
 Vibration    18          0.731              1.563              1.140
 Vibration    19          0.741              1.537              1.087
 Vibration    20          0.750              1.513              1.040
 Vibration    21          0.778              1.440              0.912
 Vibration    22          0.785              1.421              0.884
 Vibration    23          0.795              1.395              0.844
 Vibration    24          0.817              1.342              0.771
 Vibration    25          0.830              1.308              0.727
 Vibration    26          0.841              1.284              0.697
 Vibration    27          0.888              1.176              0.580
 Vibration    28          0.896              1.160              0.564
 Vibration    29          0.908              1.134              0.538
 Vibration    30          0.940              1.069              0.480
 Vibration    31          0.944              1.060              0.473
 Vibration    32          0.968              1.013              0.434

 Normal termination of Gaussian 09 at Sat Apr  2 16:30:22 2016.
