 Gaussian 09, Revision B.01,
 Gaussian 09:  EM64L-G09RevB.01 12-Aug-2010

 -------------------------------------------------
 # freq=raman b3lyp/6-31+g(2d,p) geom=connectivity
 -------------------------------------------------

 -------------------
 483 10000/10000.com
 -------------------
 Symbolic Z-matrix:
 Charge =  0 Multiplicity = 1

                         Standard orientation:
 ---------------------------------------------------------------------
 Center     Atomic      Atomic             Coordinates (Angstroms)
 Number     Number       Type             X           Y           Z
 ---------------------------------------------------------------------
      1          8           0       -5.016234   -0.486595    0.460377
      2          6           0       -3.762204   -0.088931   -0.115022
      3          6           0       -3.282080    1.300801    0.272570
      4          8           0       -4.330824    2.156404   -0.205097
      5          1           0       -5.180902    1.713630    0.078839
      6          6           0       -1.886274    1.607574   -0.246871
      7          8           0       -1.169053    2.790045    0.135613
      8          1           0       -0.252338    2.760417   -0.261382
      9          6           0       -2.807838   -2.493128   -0.220695
     10          8           0       -3.987459   -3.174636    0.228553
     11          1           0       -3.807930   -4.154354    0.139994
     12          6           0       -2.723099   -1.091342    0.359911
     13          8           0       -1.451462   -0.778039   -0.225977
     14          6           0       -0.923833    0.501397    0.154379
     15          8           0        0.304245    0.558804   -0.586910
     16          6           0        1.486923    0.209827    0.146644
     17          6           0        1.911525   -1.152791   -0.377961
     18          8           0        0.956052   -2.175461   -0.060212
     19          1           0        0.104272   -1.844208   -0.464923
     20          6           0        3.302431   -1.517351    0.115325
     21          8           0        3.746474   -2.778470   -0.407496
     22          1           0        4.554644   -3.085662    0.094587
     23          6           0        2.332901    2.598549    0.383264
     24          8           0        1.368375    3.274175   -0.436842
     25          1           0        1.300272    4.238427   -0.181577
     26          6           0        2.577253    1.213001   -0.191879
     27          8           0        3.865110    0.829778    0.312479
     28          6           0        4.323200   -0.433672   -0.191100
     29          8           0        5.415348   -0.568558    0.729200
     30          1           0        6.218439   -0.773711    0.244890
     31          1           0        4.631797   -0.399082   -1.215049
     32          1           0        3.248212   -1.613689    1.179599
     33          1           0        1.959777   -1.082570   -1.444564
     34          1           0        1.297366    0.179780    1.199290
     35          1           0        2.641026    1.294801   -1.256840
     36          1           0        3.248969    3.151428    0.390046
     37          1           0        1.957980    2.512117    1.381695
     38          1           0       -5.614932   -0.763371   -0.237158
     39          1           0       -2.826162   -2.428969   -1.288613
     40          1           0       -1.945572   -3.049812    0.081796
     41          1           0       -2.659292   -1.115932    1.427724
     42          1           0       -3.836944   -0.144725   -1.180950
     43          1           0       -3.260201    1.362553    1.340562
     44          1           0       -1.945922    1.608847   -1.315207
     45          1           0       -0.730558    0.530904    1.206365
 ---------------------------------------------------------------------

 SCF Done:  E(RB3LYP) =  -1297.99544710     A.U. after   13 cycles

 The electronic state is 1-A.
 Alpha  occ. eigenvalues --  -19.18485 -19.18053 -19.17343 -19.17343 -19.17325
 Alpha  occ. eigenvalues --  -19.17275 -19.16157 -19.15729 -19.15138 -19.14169
 Alpha  occ. eigenvalues --  -19.13425 -10.30287 -10.30052 -10.25458 -10.25327
 Alpha  occ. eigenvalues --  -10.25317 -10.25030 -10.24955 -10.24741 -10.24607
 Alpha  occ. eigenvalues --  -10.24573 -10.24129 -10.23583  -1.09955  -1.09111
 Alpha  occ. eigenvalues --   -1.05729  -1.05281  -1.03945  -1.03074  -1.02415
 Alpha  occ. eigenvalues --   -1.02024  -1.01917  -1.00863  -1.00341  -0.82019
 Alpha  occ. eigenvalues --   -0.80130  -0.79096  -0.78255  -0.71496  -0.69586
 Alpha  occ. eigenvalues --   -0.67380  -0.64769  -0.63209  -0.62200  -0.61286
 Alpha  occ. eigenvalues --   -0.60222  -0.56762  -0.55981  -0.54788  -0.54237
 Alpha  occ. eigenvalues --   -0.54055  -0.53356  -0.52892  -0.51797  -0.51220
 Alpha  occ. eigenvalues --   -0.50325  -0.49953  -0.49059  -0.48630  -0.46381
 Alpha  occ. eigenvalues --   -0.45800  -0.44875  -0.44522  -0.43578  -0.43070
 Alpha  occ. eigenvalues --   -0.42145  -0.41922  -0.41207  -0.40141  -0.39227
 Alpha  occ. eigenvalues --   -0.38624  -0.38168  -0.37618  -0.36507  -0.36146
 Alpha  occ. eigenvalues --   -0.35708  -0.34728  -0.34634  -0.34037  -0.33501
 Alpha  occ. eigenvalues --   -0.32337  -0.31617  -0.30861  -0.30319  -0.29887
 Alpha  occ. eigenvalues --   -0.29724  -0.28474  -0.28034  -0.27445  -0.26659
 Alpha  occ. eigenvalues --   -0.26230
 Alpha virt. eigenvalues --   -0.01609  -0.01572  -0.01306  -0.00065   0.00323
 Alpha virt. eigenvalues --    0.00801   0.01891   0.02216   0.02652   0.03443
 Alpha virt. eigenvalues --    0.03901   0.04307   0.04935   0.05402   0.05770

 Mulliken atomic charges:
              1
     1  O   -0.554223
     2  C   -0.007275
     3  C    0.273746
     4  O   -0.554143
     5  H    0.348021
     6  C   -0.214233
     7  O   -0.579628
     8  H    0.433403
     9  C   -0.206676
    10  O   -0.541116
    11  H    0.335027
    12  C    0.050871
    13  O   -0.241353
    14  C    0.200567
    15  O   -0.252157
    16  C    0.501902
    17  C   -0.026398
    18  O   -0.523767
    19  H    0.365011
    20  C    0.077474
    21  O   -0.549982
    22  H    0.334677
    23  C   -0.210331
    24  O   -0.549995
    25  H    0.357790
    26  C   -0.174478
    27  O   -0.228831
    28  C    0.150325
    29  O   -0.522739
    30  H    0.326096
    31  H    0.137433
    32  H    0.133885
    33  H    0.120888
    34  H    0.112689
    35  H    0.125933
    36  H    0.149539
    37  H    0.150587
    38  H    0.349448
    39  H    0.141450
    40  H    0.149392
    41  H    0.116153
    42  H    0.124035
    43  H    0.120178
    44  H    0.129296
    45  H    0.121512
 Sum of Mulliken atomic charges =   0.00000

 Dipole moment (field-independent basis, Debye):
    X=              2.4910    Y=             -0.6767    Z=             -0.9696  Tot=              2.7573
 Quadrupole moment (field-independent basis, Debye-Ang):
   XX=           -120.5475   YY=           -137.8316   ZZ=           -138.6840
   XY=             12.7855   XZ=              1.2684   YZ=              2.5598

  Exact polarizability: 233.697  -1.138 195.775   1.090   1.060 143.445
 Approx polarizability: 274.792   0.314 255.157   1.712   0.949 240.651

 ******    7 imaginary frequencies (negative Signs) ******

                     1                      2                      3
                     A                      A                      A
 Frequencies --  -255.2877              -232.0128              -177.7080
 Red. masses --     1.1674                 1.2596                 2.0296
 Frc consts  --     0.0448                 0.0399                 0.0378
 IR Inten    --   101.0319               102.0536                 6.9549
 Raman Activ --     0.9593                 0.7225                 0.1354

                     4                      5                      6
                     A                      A                      A
 Frequencies --  -171.9113               -80.8929               -63.3902
 Red. masses --     1.7746                 6.3789                 6.4255
 Frc consts  --     0.0309                 0.0246                 0.0152
 IR Inten    --    11.5587                 0.8923                 1.2478
 Raman Activ --     0.2660                 0.0408                 0.0474

                     7                      8                      9
                     A                      A                      A
 Frequencies --   -38.4580                49.0950                65.3589
 Red. masses --     5.7968                 6.6600                 6.3146
 Frc consts  --     0.0051                 0.0095                 0.0159
 IR Inten    --     0.9740                 1.6694                 0.2881
 Raman Activ --     0.0555                 0.0260                 0.0665

                    10                     11                     12
                     A                      A                      A
 Frequencies --    75.7785                82.2760               104.9545
 Red. masses --     5.5235                 6.5137                 5.8100
 Frc consts  --     0.0187                 0.0260                 0.0377
 IR Inten    --     7.3539                 0.6527                 1.6116
 Raman Activ --     0.1794                 0.1634                 0.0892

                    13                     14                     15
                     A                      A                      A
 Frequencies --   164.5316               178.8904               194.9241
 Red. masses --     6.2959                 5.5928                 7.9460
 Frc consts  --     0.1004                 0.1055                 0.1779
 IR Inten    --     6.0422                 2.8799                 0.5857
 Raman Activ --     0.3049                 0.2544                 0.7066

                    16                     17                     18
                     A                      A                      A
 Frequencies --   212.1089               233.5050               270.8450
 Red. masses --     7.0498                 5.4195                 4.1950
 Frc consts  --     0.1869                 0.1741                 0.1813
 IR Inten    --     0.6199                 1.1308                15.4165
 Raman Activ --     2.7113                 0.4784                 0.2310

                    19                     20                     21
                     A                      A                      A
 Frequencies --   274.0589               288.7584               306.5079
 Red. masses --     5.3836                 5.0408                 5.3415
 Frc consts  --     0.2382                 0.2476                 0.2957
 IR Inten    --     3.8773                 0.0488                 2.3486
 Raman Activ --     0.2131                 0.0739                 0.1913

                    22                     23                     24
                     A                      A                      A
 Frequencies --   312.0689               324.8493               341.0616
 Red. masses --     5.8399                 5.0067                 6.3417
 Frc consts  --     0.3351                 0.3113                 0.4346
 IR Inten    --     3.2261                 1.1049                 0.6234
 Raman Activ --     0.9168                 1.1468                 1.6008

                    25                     26                     27
                     A                      A                      A
 Frequencies --   356.8846               366.2304               393.2681
 Red. masses --     6.5549                 4.3731                 7.6579
 Frc consts  --     0.4919                 0.3456                 0.6978
 IR Inten    --    13.2605                 4.4959                 3.5065
 Raman Activ --     4.7211                 0.1924                 1.4849

                    28                     29                     30
                     A                      A                      A
 Frequencies --   406.3459               421.8376               438.1082
 Red. masses --     4.6282                 5.2512                 5.8319
 Frc consts  --     0.4502                 0.5506                 0.6595
 IR Inten    --    11.1464                12.5622                 1.0520
 Raman Activ --     2.9551                 3.8027                 8.7716

                    31                     32                     33
                     A                      A                      A
 Frequencies --   447.9563               489.7748               502.6658
 Red. masses --     4.2980                 4.6444                 3.4360
 Frc consts  --     0.5081                 0.6564                 0.5115
 IR Inten    --     5.6227                 7.8097                11.2718
 Raman Activ --     1.2651                 0.8921                 1.4120

                    34                     35                     36
                     A                      A                      A
 Frequencies --   516.7129               534.3390               568.3627
 Red. masses --     3.9337                 3.1463                 3.4510
 Frc consts  --     0.6188                 0.5293                 0.6568
 IR Inten    --     5.8964                 9.5193                37.1173
 Raman Activ --     2.2350                 3.5726                 1.5215

                    37                     38                     39
                     A                      A                      A
 Frequencies --   592.8475               620.7255               636.9890
 Red. masses --     2.9057                 5.4662                 4.4227
 Frc consts  --     0.6017                 1.2409                 1.0573
 IR Inten    --    42.0967                 5.9280                 7.0810
 Raman Activ --     0.5749                 0.4392                 0.6330

                    40                     41                     42
                     A                      A                      A
 Frequencies --   660.1866               707.8059               726.9192
 Red. masses --     5.8209                 5.3203                 1.0712
 Frc consts  --     1.4948                 1.5704                 0.3335
 IR Inten    --    39.5398                13.5697                71.0534
 Raman Activ --     0.4277                 0.4902                 1.4264

                    43                     44                     45
                     A                      A                      A
 Frequencies --   731.6722               757.3606               776.6222
 Red. masses --     1.0776                 1.0916                 1.0650
 Frc consts  --     0.3399                 0.3689                 0.3785
 IR Inten    --   109.8467               140.4227               157.7679
 Raman Activ --     2.1740                 1.7760                 2.3267

                    46                     47                     48
                     A                      A                      A
 Frequencies --   779.9166               846.7238               857.7029
 Red. masses --     1.0996                 1.1972                 1.6085
 Frc consts  --     0.3941                 0.5057                 0.6972
 IR Inten    --   104.1079                53.3007                 4.4978
 Raman Activ --     3.5278                 0.6187                 1.2839

                    49                     50                     51
                     A                      A                      A
 Frequencies --   886.4779               920.6872               948.0148
 Red. masses --     1.5505                 5.8535                 5.3534
 Frc consts  --     0.7179                 2.9234                 2.8347
 IR Inten    --    23.6187               130.9100                87.5154
 Raman Activ --     1.3262                 3.0619                 0.8183

                    52                     53                     54
                     A                      A                      A
 Frequencies --   969.3941               986.9471               988.9355
 Red. masses --     4.5640                 5.5342                 4.8814
 Frc consts  --     2.5270                 3.1761                 2.8128
 IR Inten    --    61.5248                44.0438                46.4106
 Raman Activ --     1.4744                 3.1118                 1.1449

                    55                     56                     57
                     A                      A                      A
 Frequencies --  1003.7770              1012.4259              1027.1016
 Red. masses --     5.2873                 6.5386                 5.8959
 Frc consts  --     3.1388                 3.9487                 3.6646
 IR Inten    --   289.7895                26.5399               143.6528
 Raman Activ --     3.5466                 1.7713                 4.7282

                    58                     59                     60
                     A                      A                      A
 Frequencies --  1040.8751              1049.3110              1061.9494
 Red. masses --     4.9062                 4.7173                 4.1299
 Frc consts  --     3.1318                 3.0602                 2.7441
 IR Inten    --   121.3391               100.3210                91.1487
 Raman Activ --     7.4014                 8.9224                14.4254

                    61                     62                     63
                     A                      A                      A
 Frequencies --  1072.2949              1077.1641              1081.9735
 Red. masses --     4.3417                 4.3424                 2.5466
 Frc consts  --     2.9413                 2.9685                 1.7565
 IR Inten    --   143.1547                12.1861                15.6367
 Raman Activ --     4.3491                18.2409                 1.4645

                    64                     65                     66
                     A                      A                      A
 Frequencies --  1092.6658              1099.9447              1106.7072
 Red. masses --     4.0677                 2.7031                 2.6142
 Frc consts  --     2.8614                 1.9269                 1.8865
 IR Inten    --   167.2247                28.6569                 1.1663
 Raman Activ --     8.5985                 2.8771                 1.7678

                    67                     68                     69
                     A                      A                      A
 Frequencies --  1108.9584              1123.0718              1130.2978
 Red. masses --     3.0574                 2.2790                 2.2401
 Frc consts  --     2.2153                 1.6936                 1.6861
 IR Inten    --    90.6846                58.3215               115.1175
 Raman Activ --     4.9138                 2.1322                 7.3515

                    70                     71                     72
                     A                      A                      A
 Frequencies --  1136.3648              1138.7483              1142.0505
 Red. masses --     2.1093                 2.0584                 2.5730
 Frc consts  --     1.6048                 1.5727                 1.9772
 IR Inten    --    14.7781                33.7594                 7.7350
 Raman Activ --     8.7673                 4.3628                 3.1891

                    73                     74                     75
                     A                      A                      A
 Frequencies --  1151.7248              1161.9612              1174.5126
 Red. masses --     1.4809                 1.8961                 1.4334
 Frc consts  --     1.1573                 1.5083                 1.1650
 IR Inten    --    15.9378                 4.7110                 3.7235
 Raman Activ --     1.9590                 1.6902                 1.1965

                    76                     77                     78
                     A                      A                      A
 Frequencies --  1193.5030              1201.3679              1210.4335
 Red. masses --     1.4794                 1.3469                 1.4589
 Frc consts  --     1.2416                 1.1454                 1.2594
 IR Inten    --    16.9664                 5.6199                 8.9402
 Raman Activ --     4.9910                 0.4905                 1.5507

                    79                     80                     81
                     A                      A                      A
 Frequencies --  1216.4556              1223.3149              1243.3160
 Red. masses --     1.3021                 1.2666                 1.3931
 Frc consts  --     1.1353                 1.1168                 1.2688
 IR Inten    --     3.4746                 2.7301                 1.6369
 Raman Activ --     2.2908                 1.5606                 2.5186

                    82                     83                     84
                     A                      A                      A
 Frequencies --  1247.3067              1267.7686              1271.6247
 Red. masses --     1.2117                 1.1774                 1.2731
 Frc consts  --     1.1107                 1.1149                 1.2129
 IR Inten    --    19.1004                 6.9102                 0.5829
 Raman Activ --     2.7529                 5.3292                 1.5662

                    85                     86                     87
                     A                      A                      A
 Frequencies --  1276.0163              1283.7218              1296.8009
 Red. masses --     1.2568                 1.2526                 1.3648
 Frc consts  --     1.2057                 1.2162                 1.3523
 IR Inten    --     2.6592                11.0659                38.0035
 Raman Activ --     0.5077                 0.8800                 1.2566

                    88                     89                     90
                     A                      A                      A
 Frequencies --  1297.7504              1310.4036              1325.1981
 Red. masses --     1.3398                 1.3374                 1.3328
 Frc consts  --     1.3294                 1.3531                 1.3790
 IR Inten    --    30.4202                29.4551                 6.3541
 Raman Activ --     3.0987                 5.9692                 0.8516

                    91                     92                     93
                     A                      A                      A
 Frequencies --  1326.6043              1328.5604              1343.2143
 Red. masses --     1.1815                 1.3574                 1.1980
 Frc consts  --     1.2250                 1.4116                 1.2735
 IR Inten    --    42.0067                54.4773                24.7255
 Raman Activ --     3.2145                 7.7098                 3.0431

                    94                     95                     96
                     A                      A                      A
 Frequencies --  1347.5970              1355.6591              1362.7559
 Red. masses --     1.2355                 1.4668                 1.6066
 Frc consts  --     1.3219                 1.5882                 1.7579
 IR Inten    --    48.7595                 6.1034                 8.2552
 Raman Activ --    12.4129                 2.7216                 7.0118

                    97                     98                     99
                     A                      A                      A
 Frequencies --  1368.1845              1385.6104              1390.2757
 Red. masses --     1.7028                 1.4936                 1.4229
 Frc consts  --     1.8781                 1.6895                 1.6204
 IR Inten    --     9.4404                 7.3781                 1.4663
 Raman Activ --     6.6679                 7.2550                 5.0516

                   100                    101                    102
                     A                      A                      A
 Frequencies --  1429.5716              1449.0073              1461.7097
 Red. masses --     1.3958                 1.4243                 1.2932
 Frc consts  --     1.6806                 1.7620                 1.6279
 IR Inten    --    29.5594                67.5150                28.9519
 Raman Activ --     1.9321                 0.7279                 0.8725

                   103                    104                    105
                     A                      A                      A
 Frequencies --  1472.2074              1473.5527              1476.3089
 Red. masses --     1.2493                 1.2405                 1.1929
 Frc consts  --     1.5954                 1.5870                 1.5318
 IR Inten    --    10.4177                41.2226                 9.0059
 Raman Activ --     4.3513                 6.7009                 1.4534

                   106                    107                    108
                     A                      A                      A
 Frequencies --  1483.0675              1519.5405              3243.0626
 Red. masses --     1.1535                 1.2785                 1.0684
 Frc consts  --     1.4948                 1.7394                 6.6206
 IR Inten    --    41.5502                37.0388               809.6039
 Raman Activ --     3.9225                 2.0045               108.4890

                   109                    110                    111
                     A                      A                      A
 Frequencies --  3258.6683              3264.4828              3270.2990
 Red. masses --     1.0556                 1.0596                 1.0820
 Frc consts  --     6.6045                 6.6532                 6.8182
 IR Inten    --    35.0037                60.6302                35.8537
 Raman Activ --    75.5188               208.0820               129.4264

                   112                    113                    114
                     A                      A                      A
 Frequencies --  3270.5925              3277.5811              3280.7574
 Red. masses --     1.0802                 1.0836                 1.0830
 Frc consts  --     6.8079                 6.8583                 6.8677
 IR Inten    --    14.0344                 2.1180                19.9215
 Raman Activ --    13.1793                 7.0798                67.4847

                   115                    116                    117
                     A                      A                      A
 Frequencies --  3286.0342              3287.2822              3291.4045
 Red. masses --     1.0848                 1.0845                 1.0866
 Frc consts  --     6.9017                 6.9051                 6.9358
 IR Inten    --     4.3517                 2.8776                 4.0044
 Raman Activ --   145.0434                17.7150                15.0098

                   118                    119                    120
                     A                      A                      A
 Frequencies --  3299.3210              3302.1476              3305.2958
 Red. masses --     1.0869                 1.0878                 1.0871
 Frc consts  --     6.9706                 6.9886                 6.9975
 IR Inten    --     6.2572                33.9431               104.1197
 Raman Activ --    45.6725                44.2229                12.9546

                   121                    122                    123
                     A                      A                      A
 Frequencies --  3321.6516              3327.7776              3330.2617
 Red. masses --     1.1073                 1.1098                 1.0670
 Frc consts  --     7.1981                 7.2409                 6.9722
 IR Inten    --    32.8205                35.1979               440.6311
 Raman Activ --    18.4350                54.5124               146.8738

                   124                    125                    126
                     A                      A                      A
 Frequencies --  3357.6716              3367.6799              3371.9955
 Red. masses --     1.0652                 1.0676                 1.0665
 Frc consts  --     7.0757                 7.1337                 7.1444
 IR Inten    --    49.4938                28.3662                39.0513
 Raman Activ --    85.3315               163.2277               148.7950

                   127                    128                    129
                     A                      A                      A
 Frequencies --  3375.7959              3890.1079              3892.0443
 Red. masses --     1.0667                 1.0672                 1.0676
 Frc consts  --     7.1622                 9.5153                 9.5284
 IR Inten    --    57.1733                55.0962                83.4190
 Raman Activ --   141.8940               138.8444                89.4872

 - Thermochemistry -
 -------------------
 Temperature   298.150 Kelvin.  Pressure   1.00000 Atm.
 Atom     1 has atomic number  8 and mass  15.99491

 Molecular mass:   342.11621 amu.
 Principal axes and moments of inertia in atomic units:
                           1         2         3
     Eigenvalues --  4336.99603********************
           X            0.99998   0.00678   0.00039
           Y           -0.00678   0.99997   0.00348
           Z           -0.00037  -0.00348   0.99999
 This molecule is an asymmetric top.
 Rotational symmetry number  1.
 Warning -- assumption of classical behavior for rotation
           may cause significant error
 Rotational temperatures (Kelvin)      0.01997     0.00714     0.00539
 Rotational constants (GHZ):           0.41613     0.14874     0.11236
    7 imaginary frequencies ignored.
 Zero-point vibrational energy     975089.2 (Joules/Mol)
                                  233.05192 (Kcal/Mol)
 Warning -- explicit consideration of  31 degrees of freedom as
           vibrations may cause significant error
 Vibrational temperatures:     70.64    94.04   109.03   118.38   151.01
          (Kelvin)            236.72   257.38   280.45   305.18   335.96
                              389.69   394.31   415.46   441.00   449.00
                              467.39   490.71   513.48   526.92   565.82
                              584.64   606.93   630.34   644.51   704.68
                              723.22   743.43   768.79   817.75   852.97
                              893.08   916.48   949.86  1018.37  1045.87
                             1052.71  1089.67  1117.38  1122.12  1218.25
                             1234.04  1275.44  1324.66  1363.98  1394.74
                             1419.99  1422.86  1444.21  1456.65  1477.77
                             1497.59  1509.72  1527.91  1542.79  1549.80
                             1556.72  1572.10  1582.57  1592.30  1595.54
                             1615.85  1626.24  1634.97  1638.40  1643.15
                             1657.07  1671.80  1689.86  1717.18  1728.50
                             1741.54  1750.21  1760.08  1788.85  1794.59
                             1824.03  1829.58  1835.90  1846.99  1865.80
                             1867.17  1885.38  1906.66  1908.69  1911.50
                             1932.58  1938.89  1950.49  1960.70  1968.51
                             1993.58  2000.29  2056.83  2084.80  2103.07
                             2118.18  2120.11  2124.08  2133.80  2186.28
                             4666.04  4688.49  4696.86  4705.22  4705.65
                             4715.70  4720.27  4727.86  4729.66  4735.59
                             4746.98  4751.05  4755.58  4779.11  4787.92
                             4791.50  4830.93  4845.33  4851.54  4857.01
                             5596.99  5599.78

 Zero-point correction=                           0.371392 (Hartree/Particle)
 Thermal correction to Energy=                    0.389515
 Thermal correction to Enthalpy=                  0.390459
 Thermal correction to Gibbs Free Energy=         0.326010
 Sum of electronic and zero-point Energies=          -1297.624055
 Sum of electronic and thermal Energies=             -1297.605932
 Sum of electronic and thermal Enthalpies=           -1297.604988
 Sum of electronic and thermal Free Energies=        -1297.669437

                     E (Thermal)             CV                S
                      KCal/Mol        Cal/Mol-Kelvin    Cal/Mol-Kelvin
 Total                  244.425             75.380            135.645
 Electronic               0.000              0.000              0.000
 Translational            0.889              2.981             43.384
 Rotational               0.889              2.981             35.090
 Vibrational            242.647             69.418             57.170
 Vibration     1          0.595              1.978              4.854
 Vibration     2          0.597              1.971              4.288
 Vibration     3          0.599              1.965              3.997
 Vibration     4          0.600              1.961              3.836
 Vibration     5          0.605              1.945              3.360
 Vibration     6          0.623              1.886              2.497
 Vibration     7          0.629              1.868              2.340
 Vibration     8          0.636              1.847              2.180
 Vibration     9          0.643              1.822              2.025
 Vibration    10          0.654              1.790              1.852
 Vibration    11          0.675              1.727              1.591
 Vibration    12          0.676              1.721              1.570
 Vibration    13          0.685              1.695              1.481
 Vibration    14          0.697              1.661              1.381
 Vibration    15          0.700              1.651              1.351
 Vibration    16          0.709              1.626              1.286
 Vibration    17          0.721              1.593              1.207
 Vibration    18          0.732              1.561              1.136
 Vibration    19          0.739              1.542              1.096
 Vibration    20          0.760              1.485              0.988
 Vibration    21          0.771              1.456              0.940
 Vibration    22          0.784              1.423              0.886
 Vibration    23          0.798              1.387              0.833
 Vibration    24          0.807              1.365              0.802
 Vibration    25          0.846              1.273              0.684
 Vibration    26          0.858              1.244              0.651
 Vibration    27          0.872              1.213              0.618
 Vibration    28          0.889              1.174              0.578
 Vibration    29          0.924              1.100              0.507
 Vibration    30          0.950              1.047              0.462
 Vibration    31          0.981              0.988              0.415

 Normal termination of Gaussian 09 at Tue Mar 29 19:50:11 2016.
