 Gaussian 09, Revision B.01,
 Gaussian 09:  EM64L-G09RevB.01 12-Aug-2010

 -------------------------------------------------
 # freq=raman b3lyp/6-31+g(2d,p) geom=connectivity
 -------------------------------------------------

 -----------------
 473 5296/5296.com
 -----------------
 Symbolic Z-matrix:
 Charge =  0 Multiplicity = 1

                         Standard orientation:
 ---------------------------------------------------------------------
 Center     Atomic      Atomic             Coordinates (Angstroms)
 Number     Number       Type             X           Y           Z
 ---------------------------------------------------------------------
      1          8           0       -5.031259   -0.280321    0.480878
      2          6           0       -3.759356   -0.040532   -0.139000
      3          6           0       -3.222649    1.285357    0.376113
      4          8           0       -4.142242    2.387034    0.387642
      5          1           0       -5.026238    1.978142    0.613311
      6          6           0       -1.852523    1.538153   -0.230952
      7          8           0       -1.273302    2.741897    0.291794
      8          1           0       -0.423056    2.907888   -0.207182
      9          6           0       -3.232897   -2.557367   -0.212981
     10          8           0       -4.422577   -3.192292    0.277562
     11          1           0       -4.182871   -4.097957    0.625759
     12          6           0       -2.764646   -1.155376    0.140047
     13          8           0       -1.544434   -0.819282   -0.536983
     14          6           0       -0.893448    0.371041   -0.070616
     15          8           0        0.350810    0.524755   -0.769416
     16          6           0        1.563009    0.131139   -0.111246
     17          6           0        2.080256   -1.262945   -0.425643
     18          8           0        1.071376   -2.281585   -0.367025
     19          1           0        0.321274   -2.057031   -0.989341
     20          6           0        3.373470   -1.523280    0.330561
     21          8           0        4.040610   -2.663426   -0.230277
     22          1           0        4.759044   -2.894372    0.426042
     23          6           0        2.319095    2.606693    0.086199
     24          8           0        1.269416    3.317492   -0.586905
     25          1           0        1.408368    4.305672   -0.642108
     26          6           0        2.639775    1.182019   -0.331907
     27          8           0        3.841355    0.881859    0.392876
     28          6           0        4.385131   -0.413213    0.098271
     29          8           0        5.442386   -0.572978    1.054702
     30          1           0        6.247804   -0.832074    0.601082
     31          1           0        3.215119    3.180964   -0.024496
     32          1           0        2.073523    2.585940    1.127431
     33          1           0        2.876866    1.191488   -1.375266
     34          1           0        1.347271    0.137460    0.936760
     35          1           0        2.367986   -1.226060   -1.455571
     36          1           0        3.189072   -1.662486    1.375319
     37          1           0        4.767960   -0.447722   -0.900304
     38          1           0       -5.671267   -0.532113   -0.188891
     39          1           0       -2.425659   -3.208809    0.049490
     40          1           0       -3.310165   -2.578626   -1.279976
     41          1           0       -2.561317   -1.144833    1.190498
     42          1           0       -3.902053    0.034527   -1.196782
     43          1           0       -3.023695    1.105995    1.412041
     44          1           0       -1.995838    1.686168   -1.280929
     45          1           0       -0.680539    0.252471    0.971263
 ---------------------------------------------------------------------

 SCF Done:  E(RB3LYP) =  -1297.98499915     A.U. after   13 cycles

 The electronic state is 1-A.
 Alpha  occ. eigenvalues --  -19.18393 -19.18392 -19.18150 -19.17834 -19.17489
 Alpha  occ. eigenvalues --  -19.16845 -19.16660 -19.16564 -19.15410 -19.14767
 Alpha  occ. eigenvalues --  -19.12940 -10.30874 -10.30332 -10.26169 -10.25749
 Alpha  occ. eigenvalues --  -10.25603 -10.25424 -10.25134 -10.25100 -10.24608
 Alpha  occ. eigenvalues --  -10.24344 -10.23757 -10.23665  -1.09543  -1.08914
 Alpha  occ. eigenvalues --   -1.05124  -1.04718  -1.04151  -1.03818  -1.03067
 Alpha  occ. eigenvalues --   -1.02823  -1.01605  -1.01360  -0.99647  -0.82252
 Alpha  occ. eigenvalues --   -0.80066  -0.79734  -0.78299  -0.71981  -0.70094
 Alpha  occ. eigenvalues --   -0.67361  -0.64554  -0.63442  -0.62250  -0.61486
 Alpha  occ. eigenvalues --   -0.60061  -0.56630  -0.55503  -0.54964  -0.54640
 Alpha  occ. eigenvalues --   -0.53896  -0.53010  -0.52933  -0.52487  -0.51671
 Alpha  occ. eigenvalues --   -0.50755  -0.49423  -0.49053  -0.48416  -0.46582
 Alpha  occ. eigenvalues --   -0.45683  -0.45294  -0.45011  -0.43908  -0.43446
 Alpha  occ. eigenvalues --   -0.42840  -0.41788  -0.40860  -0.39981  -0.39169
 Alpha  occ. eigenvalues --   -0.38335  -0.37980  -0.37058  -0.36020  -0.35738
 Alpha  occ. eigenvalues --   -0.35390  -0.35102  -0.33981  -0.33806  -0.33544
 Alpha  occ. eigenvalues --   -0.32839  -0.31675  -0.30769  -0.30641  -0.30092
 Alpha  occ. eigenvalues --   -0.29003  -0.28740  -0.28237  -0.27308  -0.26694
 Alpha  occ. eigenvalues --   -0.26163
 Alpha virt. eigenvalues --   -0.01972  -0.01835  -0.01658  -0.00130   0.00316
 Alpha virt. eigenvalues --    0.00674   0.01683   0.02359   0.02647   0.03632
 Alpha virt. eigenvalues --    0.03748   0.04364   0.04928   0.05174   0.05362

 Mulliken atomic charges:
              1
     1  O   -0.537489
     2  C   -0.070475
     3  C    0.217017
     4  O   -0.562555
     5  H    0.351092
     6  C   -0.063281
     7  O   -0.564427
     8  H    0.407418
     9  C   -0.419923
    10  O   -0.509660
    11  H    0.338341
    12  C    0.372960
    13  O   -0.300942
    14  C    0.289490
    15  O   -0.259107
    16  C    0.366571
    17  C   -0.054848
    18  O   -0.518298
    19  H    0.356430
    20  C    0.078071
    21  O   -0.520435
    22  H    0.335243
    23  C   -0.261094
    24  O   -0.581615
    25  H    0.363255
    26  C   -0.047052
    27  O   -0.246053
    28  C    0.148035
    29  O   -0.543237
    30  H    0.337599
    31  H    0.147427
    32  H    0.160471
    33  H    0.118133
    34  H    0.101950
    35  H    0.111385
    36  H    0.138194
    37  H    0.140568
    38  H    0.339188
    39  H    0.144646
    40  H    0.145961
    41  H    0.105227
    42  H    0.114213
    43  H    0.103939
    44  H    0.117509
    45  H    0.110156
 Sum of Mulliken atomic charges =   0.00000

 Dipole moment (field-independent basis, Debye):
    X=              3.4509    Y=             -1.3802    Z=             -1.5065  Tot=              4.0104
 Quadrupole moment (field-independent basis, Debye-Ang):
   XX=           -119.5855   YY=           -135.5714   ZZ=           -139.6954
   XY=             13.9659   XZ=              1.8273   YZ=             -7.9822

  Exact polarizability: 233.047  -0.530 198.014   1.692  -0.448 146.193
 Approx polarizability: 274.113  -0.094 256.886   2.346  -1.322 243.209

 ******    7 imaginary frequencies (negative Signs) ******

                     1                      2                      3
                     A                      A                      A
 Frequencies --  -328.1973              -255.1732              -201.3320
 Red. masses --     1.5867                 1.7532                 1.2298
 Frc consts  --     0.1007                 0.0673                 0.0294
 IR Inten    --     3.2854                 5.0171               114.8254
 Raman Activ --     0.1142                 0.0257                 0.7792

                     4                      5                      6
                     A                      A                      A
 Frequencies --  -181.7161               -69.9596               -48.9800
 Red. masses --     1.1897                 6.5417                 5.7311
 Frc consts  --     0.0231                 0.0189                 0.0081
 IR Inten    --    96.9693                 1.4309                 1.5823
 Raman Activ --     0.5694                 0.0747                 0.0261

                     7                      8                      9
                     A                      A                      A
 Frequencies --   -20.2024                38.7207                71.2445
 Red. masses --     6.8945                 6.8265                 6.6989
 Frc consts  --     0.0017                 0.0060                 0.0200
 IR Inten    --     1.3907                 0.4380                 0.8342
 Raman Activ --     0.0513                 0.1027                 0.1336

                    10                     11                     12
                     A                      A                      A
 Frequencies --    82.1600               103.3925               127.2738
 Red. masses --     5.6331                 6.1556                 5.5719
 Frc consts  --     0.0224                 0.0388                 0.0532
 IR Inten    --     3.7863                 4.7946                 2.2797
 Raman Activ --     0.4190                 0.0788                 0.0635

                    13                     14                     15
                     A                      A                      A
 Frequencies --   149.1299               163.7488               176.8297
 Red. masses --     6.5624                 6.7121                 7.0160
 Frc consts  --     0.0860                 0.1060                 0.1293
 IR Inten    --     3.5583                 4.7286                 1.0451
 Raman Activ --     0.4280                 0.5710                 0.4066

                    16                     17                     18
                     A                      A                      A
 Frequencies --   201.2343               224.5997               253.5336
 Red. masses --     6.4026                 6.0210                 4.1483
 Frc consts  --     0.1528                 0.1790                 0.1571
 IR Inten    --     0.3408                 1.4754                19.4500
 Raman Activ --     1.8753                 1.3928                 0.2732

                    19                     20                     21
                     A                      A                      A
 Frequencies --   265.4521               287.0570               295.1157
 Red. masses --     5.0623                 5.5566                 5.7336
 Frc consts  --     0.2102                 0.2698                 0.2942
 IR Inten    --     0.2455                 2.3138                 1.9416
 Raman Activ --     0.1211                 0.2019                 1.8300

                    22                     23                     24
                     A                      A                      A
 Frequencies --   301.8545               308.1830               320.8469
 Red. masses --     5.3302                 5.9135                 5.2213
 Frc consts  --     0.2861                 0.3309                 0.3167
 IR Inten    --     4.9070                 2.4898                 5.6030
 Raman Activ --     0.5049                 3.8733                 1.4640

                    25                     26                     27
                     A                      A                      A
 Frequencies --   333.9401               349.8708               369.7192
 Red. masses --     6.4179                 4.7150                 6.8007
 Frc consts  --     0.4217                 0.3401                 0.5477
 IR Inten    --     8.2697                 4.8953                 1.0924
 Raman Activ --     3.5807                 0.1836                 1.8993

                    28                     29                     30
                     A                      A                      A
 Frequencies --   397.1672               412.7338               419.4152
 Red. masses --     4.4136                 6.1093                 5.0295
 Frc consts  --     0.4102                 0.6132                 0.5213
 IR Inten    --    16.5990                 5.3107                 1.4002
 Raman Activ --     2.5527                 1.6720                 5.5740

                    31                     32                     33
                     A                      A                      A
 Frequencies --   422.3709               460.7984               478.2653
 Red. masses --     4.9800                 4.8055                 4.6522
 Frc consts  --     0.5234                 0.6012                 0.6270
 IR Inten    --     2.2660                 4.2159                10.5899
 Raman Activ --     3.2480                 5.3889                 0.5923

                    34                     35                     36
                     A                      A                      A
 Frequencies --   499.4653               511.4420               564.3626
 Red. masses --     3.9746                 3.1216                 3.9808
 Frc consts  --     0.5842                 0.4811                 0.7470
 IR Inten    --    16.8344                 7.4469                15.8587
 Raman Activ --     1.7851                 4.1725                 0.8145

                    37                     38                     39
                     A                      A                      A
 Frequencies --   571.2758               584.9586               605.8747
 Red. masses --     2.7730                 5.3454                 4.9697
 Frc consts  --     0.5332                 1.0777                 1.0748
 IR Inten    --    56.2165                 9.8312                30.5303
 Raman Activ --     0.2656                 0.5672                 1.8866

                    40                     41                     42
                     A                      A                      A
 Frequencies --   622.0988               649.6283               655.9264
 Red. masses --     4.6988                 1.2040                 1.1073
 Frc consts  --     1.0714                 0.2994                 0.2807
 IR Inten    --    11.7938                40.9710               126.9489
 Raman Activ --     0.4479                 2.1244                 0.4494

                    43                     44                     45
                     A                      A                      A
 Frequencies --   670.4816               674.3680               745.4013
 Red. masses --     3.6376                 1.0908                 1.0660
 Frc consts  --     0.9635                 0.2923                 0.3490
 IR Inten    --    10.3728               206.2066                87.2068
 Raman Activ --     1.2056                 5.7658                 1.5303

                    46                     47                     48
                     A                      A                      A
 Frequencies --   757.4753               836.1556               842.0602
 Red. masses --     1.1006                 1.7765                 1.5028
 Frc consts  --     0.3720                 0.7318                 0.6278
 IR Inten    --    86.6072                 3.2799                24.1718
 Raman Activ --     1.3321                 0.9404                 0.3562

                    49                     50                     51
                     A                      A                      A
 Frequencies --   881.1435               918.1889               949.7020
 Red. masses --     1.2659                 5.2372                 4.9706
 Frc consts  --     0.5791                 2.6014                 2.6414
 IR Inten    --    38.4936               214.3640                40.6618
 Raman Activ --     0.8190                 3.2980                 0.8685

                    52                     53                     54
                     A                      A                      A
 Frequencies --   972.9749               982.8248               985.8561
 Red. masses --     5.4142                 6.8196                 5.6746
 Frc consts  --     3.0199                 3.8811                 3.2495
 IR Inten    --    38.2081                39.2102                32.7847
 Raman Activ --     2.3772                 0.9534                 1.1520

                    55                     56                     57
                     A                      A                      A
 Frequencies --   986.3961              1003.0490              1011.2403
 Red. masses --     5.4672                 6.7029                 5.0727
 Frc consts  --     3.1341                 3.9734                 3.0563
 IR Inten    --   591.6648               116.3179               118.5001
 Raman Activ --     0.9275                 2.5475                 1.7567

                    58                     59                     60
                     A                      A                      A
 Frequencies --  1026.6533              1052.4225              1062.7656
 Red. masses --     7.9139                 6.0926                 4.7307
 Frc consts  --     4.9146                 3.9759                 3.1481
 IR Inten    --   220.9467               213.9002                25.5126
 Raman Activ --     3.0681                 3.2389                 4.1739

                    61                     62                     63
                     A                      A                      A
 Frequencies --  1063.7282              1074.1818              1076.2359
 Red. masses --     4.2070                 5.4669                 3.5966
 Frc consts  --     2.8047                 3.7166                 2.4545
 IR Inten    --     6.2327                14.8549                25.1605
 Raman Activ --     6.7672                 7.3437                17.7732

                    64                     65                     66
                     A                      A                      A
 Frequencies --  1100.3899              1108.7777              1112.1598
 Red. masses --     2.8855                 2.3797                 3.4802
 Frc consts  --     2.0586                 1.7237                 2.5362
 IR Inten    --    40.9508                57.3730                64.7159
 Raman Activ --     3.2498                 3.6533                10.0652

                    67                     68                     69
                     A                      A                      A
 Frequencies --  1116.1152              1129.3896              1140.5173
 Red. masses --     2.6436                 2.7973                 2.8003
 Frc consts  --     1.9402                 2.1022                 2.1461
 IR Inten    --    75.2011                30.7488                22.7639
 Raman Activ --     3.0195                 1.9472                 4.2813

                    70                     71                     72
                     A                      A                      A
 Frequencies --  1151.7008              1160.3550              1165.8118
 Red. masses --     2.1802                 1.5637                 2.3705
 Frc consts  --     1.7038                 1.2404                 1.8982
 IR Inten    --    39.3906                 0.9633                15.8278
 Raman Activ --     6.2318                 1.3763                 3.8534

                    73                     74                     75
                     A                      A                      A
 Frequencies --  1172.4370              1180.7914              1191.4932
 Red. masses --     1.9197                 2.0274                 2.0094
 Frc consts  --     1.5548                 1.6654                 1.6807
 IR Inten    --     2.4207                14.5079                16.1890
 Raman Activ --     2.9980                 0.7741                 2.9427

                    76                     77                     78
                     A                      A                      A
 Frequencies --  1212.7866              1214.1187              1235.6915
 Red. masses --     1.4596                 1.2799                 1.1711
 Frc consts  --     1.2649                 1.1116                 1.0536
 IR Inten    --    10.3492                21.3876                11.0123
 Raman Activ --     3.3784                 1.1595                 2.3680

                    79                     80                     81
                     A                      A                      A
 Frequencies --  1242.4098              1251.8670              1273.6712
 Red. masses --     1.3204                 1.3636                 1.2465
 Frc consts  --     1.2009                 1.2591                 1.1914
 IR Inten    --     1.2640                 4.4150                 8.0390
 Raman Activ --     0.5091                 0.5667                 2.1804

                    82                     83                     84
                     A                      A                      A
 Frequencies --  1281.3390              1283.0057              1287.6276
 Red. masses --     1.2521                 1.3233                 1.2360
 Frc consts  --     1.2112                 1.2834                 1.2074
 IR Inten    --    19.5558                34.9155                15.4449
 Raman Activ --     1.2173                 2.9938                 2.4183

                    85                     86                     87
                     A                      A                      A
 Frequencies --  1301.1933              1310.2303              1313.4289
 Red. masses --     1.4293                 1.3336                 1.2266
 Frc consts  --     1.4258                 1.3488                 1.2467
 IR Inten    --     6.2898                30.3998                10.8754
 Raman Activ --     2.6671                 2.1891                 6.0860

                    88                     89                     90
                     A                      A                      A
 Frequencies --  1318.8764              1326.0287              1328.7923
 Red. masses --     1.2841                 1.2233                 1.1769
 Frc consts  --     1.3161                 1.2674                 1.2244
 IR Inten    --    31.3447                 0.6876                 4.1260
 Raman Activ --     2.7349                12.7247                 6.4435

                    91                     92                     93
                     A                      A                      A
 Frequencies --  1345.2376              1365.9724              1367.9487
 Red. masses --     1.1586                 1.2123                 1.4286
 Frc consts  --     1.2354                 1.3327                 1.5751
 IR Inten    --    48.1070                17.6951                 6.8090
 Raman Activ --     3.0783                 2.4086                 5.0611

                    94                     95                     96
                     A                      A                      A
 Frequencies --  1373.8343              1379.3815              1383.7395
 Red. masses --     1.2885                 1.6117                 1.4454
 Frc consts  --     1.4328                 1.8068                 1.6306
 IR Inten    --    21.6442                27.1565                10.2394
 Raman Activ --     3.5375                 8.5978                 7.0293

                    97                     98                     99
                     A                      A                      A
 Frequencies --  1385.8926              1400.7250              1405.4562
 Red. masses --     1.1400                 1.2739                 1.2633
 Frc consts  --     1.2900                 1.4726                 1.4702
 IR Inten    --    17.3246                21.5937                 1.6423
 Raman Activ --     1.8178                 1.3758                 7.9457

                   100                    101                    102
                     A                      A                      A
 Frequencies --  1436.8279              1442.4174              1451.3183
 Red. masses --     1.3116                 1.3550                 1.3558
 Frc consts  --     1.5954                 1.6610                 1.6825
 IR Inten    --    48.5573                 9.6465                36.7195
 Raman Activ --     0.3761                 2.5872                 0.5942

                   103                    104                    105
                     A                      A                      A
 Frequencies --  1457.3592              1465.5015              1466.2391
 Red. masses --     1.1596                 1.3921                 1.2431
 Frc consts  --     1.4510                 1.7615                 1.5746
 IR Inten    --     8.4518                34.0109                10.9207
 Raman Activ --     5.5172                 2.1253                 1.1324

                   106                    107                    108
                     A                      A                      A
 Frequencies --  1470.2336              1491.9239              3249.1809
 Red. masses --     1.0862                 1.3071                 1.0792
 Frc consts  --     1.3834                 1.7142                 6.7126
 IR Inten    --     3.6016                55.8280                12.2621
 Raman Activ --     4.1344                 1.3308                47.2583

                   109                    110                    111
                     A                      A                      A
 Frequencies --  3255.0982              3255.5837              3261.2360
 Red. masses --     1.0615                 1.0776                 1.0702
 Frc consts  --     6.6264                 6.7291                 6.7064
 IR Inten    --    25.6566                 3.4904                85.0932
 Raman Activ --   170.3152                23.1251                52.2674

                   112                    113                    114
                     A                      A                      A
 Frequencies --  3264.3637              3265.0319              3268.0306
 Red. masses --     1.0746                 1.0784                 1.0805
 Frc consts  --     6.7468                 6.7736                 6.7992
 IR Inten    --    59.8104                30.4357                20.5041
 Raman Activ --     5.9344                27.0213               232.3056

                   115                    116                    117
                     A                      A                      A
 Frequencies --  3278.1433              3280.4367              3283.7648
 Red. masses --     1.0840                 1.0795                 1.0764
 Frc consts  --     6.8631                 6.8447                 6.8384
 IR Inten    --    54.6395               210.1692               269.8167
 Raman Activ --    26.3267                46.3366               139.0330

                   118                    119                    120
                     A                      A                      A
 Frequencies --  3291.3125              3292.2942              3305.1647
 Red. masses --     1.0862                 1.0860                 1.0872
 Frc consts  --     6.9328                 6.9353                 6.9972
 IR Inten    --   137.8571                 1.4047                46.4406
 Raman Activ --    20.1240               118.9220                 8.4743

                   121                    122                    123
                     A                      A                      A
 Frequencies --  3307.0243              3321.0117              3362.5369
 Red. masses --     1.1024                 1.1063                 1.0667
 Frc consts  --     7.1034                 7.1886                 7.1060
 IR Inten    --    71.6782                46.9525               154.6861
 Raman Activ --    26.5282                38.1294                99.8429

                   124                    125                    126
                     A                      A                      A
 Frequencies --  3367.4837              3368.4406              3377.7279
 Red. masses --     1.0649                 1.0655                 1.0697
 Frc consts  --     7.1149                 7.1229                 7.1904
 IR Inten    --    51.6090                29.7295                50.9762
 Raman Activ --    84.2676               135.0731               123.0012

                   127                    128                    129
                     A                      A                      A
 Frequencies --  3380.2977              3889.4431              3892.3460
 Red. masses --     1.0685                 1.0675                 1.0674
 Frc consts  --     7.1934                 9.5144                 9.5276
 IR Inten    --    70.0632                76.1087                74.5765
 Raman Activ --   163.2941                84.9771               116.9306

 - Thermochemistry -
 -------------------
 Temperature   298.150 Kelvin.  Pressure   1.00000 Atm.
 Atom     1 has atomic number  8 and mass  15.99491

 Molecular mass:   342.11621 amu.
 Principal axes and moments of inertia in atomic units:
                           1         2         3
     Eigenvalues --  4504.04971********************
           X            0.99997   0.00709  -0.00013
           Y           -0.00709   0.99997  -0.00154
           Z            0.00011   0.00154   1.00000
 This molecule is an asymmetric top.
 Rotational symmetry number  1.
 Warning -- assumption of classical behavior for rotation
           may cause significant error
 Rotational temperatures (Kelvin)      0.01923     0.00679     0.00519
 Rotational constants (GHZ):           0.40069     0.14158     0.10825
    7 imaginary frequencies ignored.
 Zero-point vibrational energy     972982.4 (Joules/Mol)
                                  232.54838 (Kcal/Mol)
 Warning -- explicit consideration of  32 degrees of freedom as
           vibrations may cause significant error
 Vibrational temperatures:     55.71   102.50   118.21   148.76   183.12
          (Kelvin)            214.56   235.60   254.42   289.53   323.15
                              364.78   381.93   413.01   424.61   434.30
                              443.41   461.63   480.46   503.39   531.94
                              571.43   593.83   603.44   607.70   662.99
                              688.12   718.62   735.85   811.99   821.94
                              841.62   871.72   895.06   934.67   943.73
                              964.67   970.26  1072.46  1089.84  1203.04
                             1211.54  1267.77  1321.07  1366.41  1399.89
                             1414.06  1418.43  1419.20  1443.16  1454.95
                             1477.12  1514.20  1529.08  1530.47  1545.51
                             1548.46  1583.21  1595.28  1600.15  1605.84
                             1624.94  1640.95  1657.04  1669.49  1677.34
                             1686.87  1698.89  1714.29  1744.93  1746.84
                             1777.88  1787.55  1801.16  1832.53  1843.56
                             1845.96  1852.61  1872.12  1885.13  1889.73
                             1897.57  1907.86  1911.83  1935.49  1965.33
                             1968.17  1976.64  1984.62  1990.89  1993.99
                             2015.33  2022.14  2067.27  2075.31  2088.12
                             2096.81  2108.53  2109.59  2115.34  2146.54
                             4674.84  4683.35  4684.05  4692.19  4696.69
                             4697.65  4701.96  4716.51  4719.81  4724.60
                             4735.46  4736.87  4755.39  4758.06  4778.19
                             4837.93  4845.05  4846.43  4859.79  4863.49
                             5596.03  5600.21

 Zero-point correction=                           0.370589 (Hartree/Particle)
 Thermal correction to Energy=                    0.389220
 Thermal correction to Enthalpy=                  0.390164
 Thermal correction to Gibbs Free Energy=         0.324815
 Sum of electronic and zero-point Energies=          -1297.614410
 Sum of electronic and thermal Energies=             -1297.595780
 Sum of electronic and thermal Enthalpies=           -1297.594835
 Sum of electronic and thermal Free Energies=        -1297.660184

                     E (Thermal)             CV                S
                      KCal/Mol        Cal/Mol-Kelvin    Cal/Mol-Kelvin
 Total                  244.239             76.731            137.537
 Electronic               0.000              0.000              0.000
 Translational            0.889              2.981             43.384
 Rotational               0.889              2.981             35.214
 Vibrational            242.462             70.770             58.939
 Vibration     1          0.594              1.981              5.323
 Vibration     2          0.598              1.968              4.119
 Vibration     3          0.600              1.961              3.839
 Vibration     4          0.605              1.946              3.389
 Vibration     5          0.611              1.926              2.987
 Vibration     6          0.618              1.904              2.683
 Vibration     7          0.623              1.887              2.506
 Vibration     8          0.628              1.871              2.362
 Vibration     9          0.638              1.838              2.122
 Vibration    10          0.649              1.804              1.922
 Vibration    11          0.665              1.757              1.706
 Vibration    12          0.671              1.736              1.626
 Vibration    13          0.684              1.698              1.491
 Vibration    14          0.689              1.683              1.444
 Vibration    15          0.694              1.670              1.407
 Vibration    16          0.698              1.658              1.372
 Vibration    17          0.706              1.634              1.306
 Vibration    18          0.715              1.608              1.241
 Vibration    19          0.727              1.576              1.167
 Vibration    20          0.742              1.534              1.081
 Vibration    21          0.764              1.476              0.973
 Vibration    22          0.777              1.443              0.917
 Vibration    23          0.782              1.428              0.894
 Vibration    24          0.785              1.422              0.884
 Vibration    25          0.819              1.337              0.764
 Vibration    26          0.835              1.298              0.715
 Vibration    27          0.855              1.251              0.659
 Vibration    28          0.867              1.225              0.630
 Vibration    29          0.920              1.108              0.515
 Vibration    30          0.927              1.093              0.502
 Vibration    31          0.942              1.064              0.476
 Vibration    32          0.965              1.019              0.440

 Normal termination of Gaussian 09 at Mon Mar 28 14:29:55 2016.
