 Gaussian 09, Revision B.01,
 Gaussian 09:  EM64L-G09RevB.01 12-Aug-2010

 -------------------------------------------------
 # freq=raman b3lyp/6-31+g(2d,p) geom=connectivity
 -------------------------------------------------

 -----------------
 473 7000/7000.com
 -----------------
 Symbolic Z-matrix:
 Charge =  0 Multiplicity = 1

                         Standard orientation:
 ---------------------------------------------------------------------
 Center     Atomic      Atomic             Coordinates (Angstroms)
 Number     Number       Type             X           Y           Z
 ---------------------------------------------------------------------
      1          8           0        5.086118   -0.309580   -0.419269
      2          6           0        3.783770   -0.054243    0.128122
      3          6           0        3.224547    1.289887   -0.308975
      4          8           0        4.185800    2.305087    0.014667
      5          1           0        5.070669    2.173680   -0.431602
      6          6           0        1.849307    1.559922    0.279205
      7          8           0        1.317659    2.753917   -0.313973
      8          1           0        0.323848    2.822067   -0.231944
      9          6           0        3.218212   -2.569034    0.281224
     10          8           0        4.362912   -3.073969   -0.421373
     11          1           0        4.239998   -4.065971   -0.391521
     12          6           0        2.749868   -1.156006   -0.028350
     13          8           0        1.497402   -0.852679    0.603123
     14          6           0        0.929231    0.363477    0.095092
     15          8           0       -0.385236    0.586091    0.627175
     16          6           0       -1.572082    0.248653   -0.105574
     17          6           0       -1.950732   -1.178698    0.252684
     18          8           0       -1.093832   -2.216397   -0.244955
     19          1           0       -0.205854   -2.131000    0.206729
     20          6           0       -3.376997   -1.545720   -0.122372
     21          8           0       -3.707126   -2.872801    0.314068
     22          1           0       -4.513862   -3.158105   -0.202875
     23          6           0       -2.459763    2.677164   -0.186372
     24          8           0       -1.262154    3.366467    0.202857
     25          1           0       -1.558926    4.284303    0.464686
     26          6           0       -2.693233    1.226752    0.205409
     27          8           0       -4.003545    0.817682   -0.212059
     28          6           0       -4.437219   -0.495725    0.168422
     29          8           0       -5.572899   -0.635911   -0.697903
     30          1           0       -6.344340   -0.873583   -0.178297
     31          1           0       -4.733803   -0.518914    1.196235
     32          1           0       -3.361280   -1.612685   -1.190159
     33          1           0       -1.897882   -1.236483    1.319815
     34          1           0       -1.355600    0.295106   -1.152416
     35          1           0       -2.742003    1.240981    1.274202
     36          1           0       -3.283236    3.240734    0.199868
     37          1           0       -2.513363    2.724096   -1.253998
     38          1           0        5.683164   -0.572963    0.284838
     39          1           0        2.400630   -3.230953    0.085464
     40          1           0        3.434570   -2.616019    1.328068
     41          1           0        2.529873   -1.169419   -1.075404
     42          1           0        3.938835    0.034162    1.183129
     43          1           0        3.121757    1.268117   -1.373804
     44          1           0        1.963918    1.732393    1.328976
     45          1           0        0.812634    0.228614   -0.959952
 ---------------------------------------------------------------------

 SCF Done:  E(RB3LYP) =  -1297.97855387     A.U. after   13 cycles

 The electronic state is 1-A.
 Alpha  occ. eigenvalues --  -19.19003 -19.18573 -19.18056 -19.18007 -19.17985
 Alpha  occ. eigenvalues --  -19.16603 -19.16537 -19.16194 -19.15305 -19.14336
 Alpha  occ. eigenvalues --  -19.12907 -10.31038 -10.30574 -10.26322 -10.26068
 Alpha  occ. eigenvalues --  -10.25577 -10.25284 -10.24795 -10.24734 -10.24424
 Alpha  occ. eigenvalues --  -10.24292 -10.24111 -10.23927  -1.09476  -1.09020
 Alpha  occ. eigenvalues --   -1.05710  -1.04796  -1.03909  -1.03615  -1.03084
 Alpha  occ. eigenvalues --   -1.02730  -1.01368  -1.01088  -0.99346  -0.82308
 Alpha  occ. eigenvalues --   -0.80061  -0.79524  -0.78137  -0.72198  -0.70028
 Alpha  occ. eigenvalues --   -0.67690  -0.64930  -0.63675  -0.62405  -0.60672
 Alpha  occ. eigenvalues --   -0.59692  -0.56431  -0.56017  -0.54907  -0.54724
 Alpha  occ. eigenvalues --   -0.54156  -0.53583  -0.52522  -0.52357  -0.51292
 Alpha  occ. eigenvalues --   -0.51202  -0.50008  -0.48894  -0.48263  -0.46595
 Alpha  occ. eigenvalues --   -0.45887  -0.45156  -0.44624  -0.43625  -0.43334
 Alpha  occ. eigenvalues --   -0.42535  -0.41935  -0.40963  -0.39822  -0.39358
 Alpha  occ. eigenvalues --   -0.38497  -0.38014  -0.37776  -0.36628  -0.35970
 Alpha  occ. eigenvalues --   -0.34739  -0.34123  -0.33857  -0.33306  -0.33105
 Alpha  occ. eigenvalues --   -0.32554  -0.31185  -0.30757  -0.30301  -0.29879
 Alpha  occ. eigenvalues --   -0.29005  -0.28492  -0.28333  -0.27575  -0.27145
 Alpha  occ. eigenvalues --   -0.26069
 Alpha virt. eigenvalues --   -0.02193  -0.01754  -0.01719  -0.00052   0.00309
 Alpha virt. eigenvalues --    0.00996   0.01752   0.02201   0.02248   0.03374
 Alpha virt. eigenvalues --    0.03476   0.04420   0.04998   0.05299   0.05338

 Mulliken atomic charges:
              1
     1  O   -0.541859
     2  C   -0.138096
     3  C    0.345915
     4  O   -0.560236
     5  H    0.348768
     6  C   -0.039382
     7  O   -0.577065
     8  H    0.412583
     9  C   -0.247369
    10  O   -0.488164
    11  H    0.339447
    12  C    0.232942
    13  O   -0.307801
    14  C    0.032763
    15  O   -0.274985
    16  C    0.411131
    17  C    0.067371
    18  O   -0.513651
    19  H    0.359423
    20  C    0.046948
    21  O   -0.540038
    22  H    0.333961
    23  C   -0.366386
    24  O   -0.523839
    25  H    0.357502
    26  C   -0.054250
    27  O   -0.237753
    28  C    0.193209
    29  O   -0.509647
    30  H    0.329837
    31  H    0.126908
    32  H    0.133985
    33  H    0.124288
    34  H    0.116624
    35  H    0.109602
    36  H    0.143979
    37  H    0.158284
    38  H    0.341826
    39  H    0.137472
    40  H    0.143498
    41  H    0.108353
    42  H    0.109227
    43  H    0.118794
    44  H    0.123458
    45  H    0.112424
 Sum of Mulliken atomic charges =   0.00000

 Dipole moment (field-independent basis, Debye):
    X=             -3.2028    Y=             -0.9860    Z=              2.1256  Tot=              3.9684
 Quadrupole moment (field-independent basis, Debye-Ang):
   XX=           -118.2288   YY=           -132.1579   ZZ=           -140.5454
   XY=            -15.5538   XZ=             -0.7425   YZ=              0.8278

  Exact polarizability: 236.093   0.992 199.034   0.578  -0.505 145.113
 Approx polarizability: 276.994   0.466 257.818   1.732  -0.014 241.382

 ******    8 imaginary frequencies (negative Signs) ******

                     1                      2                      3
                     A                      A                      A
 Frequencies --  -296.2178              -291.4160              -246.5725
 Red. masses --     1.6588                 1.6866                 1.1843
 Frc consts  --     0.0858                 0.0844                 0.0424
 IR Inten    --    14.5641                 0.5797                99.3306
 Raman Activ --     0.1463                 0.0596                 0.8011

                     4                      5                      6
                     A                      A                      A
 Frequencies --  -222.4287               -62.1688               -46.8318
 Red. masses --     1.1685                 6.9459                 6.4122
 Frc consts  --     0.0341                 0.0158                 0.0083
 IR Inten    --    95.4031                 0.3120                 1.5634
 Raman Activ --     0.6457                 0.0201                 0.0442

                     7                      8                      9
                     A                      A                      A
 Frequencies --   -37.8394               -34.8985                58.4669
 Red. masses --     6.1438                 6.6584                 6.4465
 Frc consts  --     0.0052                 0.0048                 0.0130
 IR Inten    --     0.5986                 0.6355                 1.7924
 Raman Activ --     0.0623                 0.0124                 0.1589

                    10                     11                     12
                     A                      A                      A
 Frequencies --    68.9362                73.8412                93.7811
 Red. masses --     6.3142                 6.5923                 6.5802
 Frc consts  --     0.0177                 0.0212                 0.0341
 IR Inten    --     2.0926                 4.7298                 0.1301
 Raman Activ --     0.2342                 0.0931                 0.0799

                    13                     14                     15
                     A                      A                      A
 Frequencies --   149.5912               164.8629               183.8799
 Red. masses --     6.3380                 5.6396                 7.1085
 Frc consts  --     0.0836                 0.0903                 0.1416
 IR Inten    --     0.4192                 5.3756                 0.5030
 Raman Activ --     0.4385                 0.1926                 0.6322

                    16                     17                     18
                     A                      A                      A
 Frequencies --   193.8943               216.5556               247.7304
 Red. masses --     6.8554                 5.5363                 4.7832
 Frc consts  --     0.1518                 0.1530                 0.1730
 IR Inten    --     1.1225                 1.8300                18.9342
 Raman Activ --     2.1524                 0.8509                 0.3644

                    19                     20                     21
                     A                      A                      A
 Frequencies --   262.8071               282.0952               297.1000
 Red. masses --     4.7222                 4.8079                 6.1879
 Frc consts  --     0.1922                 0.2254                 0.3218
 IR Inten    --     2.0913                 2.6553                 5.1164
 Raman Activ --     0.1937                 0.0749                 0.6501

                    22                     23                     24
                     A                      A                      A
 Frequencies --   301.9129               307.3503               313.7019
 Red. masses --     5.4234                 5.9206                 6.8416
 Frc consts  --     0.2913                 0.3295                 0.3967
 IR Inten    --     5.5097                 1.0634                 1.1780
 Raman Activ --     0.3730                 2.8984                 4.4737

                    25                     26                     27
                     A                      A                      A
 Frequencies --   334.1568               350.3039               360.3723
 Red. masses --     6.3329                 4.5491                 6.2670
 Frc consts  --     0.4166                 0.3289                 0.4795
 IR Inten    --     7.6506                 2.5623                 3.3000
 Raman Activ --     2.3337                 0.2004                 1.4904

                    28                     29                     30
                     A                      A                      A
 Frequencies --   393.2950               415.7240               418.7910
 Red. masses --     4.1755                 6.6048                 5.9812
 Frc consts  --     0.3805                 0.6725                 0.6181
 IR Inten    --    13.4796                 3.2551                 0.5650
 Raman Activ --     5.2241                 4.9651                 2.9306

                    31                     32                     33
                     A                      A                      A
 Frequencies --   425.0482               459.3300               466.4389
 Red. masses --     4.5072                 4.9615                 3.8217
 Frc consts  --     0.4798                 0.6168                 0.4899
 IR Inten    --     8.1725                 8.0702                 6.8711
 Raman Activ --     0.9226                 3.7874                 2.1316

                    34                     35                     36
                     A                      A                      A
 Frequencies --   482.9607               509.9508               549.4421
 Red. masses --     4.4617                 3.4200                 3.7848
 Frc consts  --     0.6132                 0.5240                 0.6732
 IR Inten    --    11.3086                 9.5321                12.3196
 Raman Activ --     1.9564                 4.6394                 1.7706

                    37                     38                     39
                     A                      A                      A
 Frequencies --   568.2229               579.9385               599.9630
 Red. masses --     6.0380                 2.8979                 3.9281
 Frc consts  --     1.1486                 0.5742                 0.8331
 IR Inten    --     3.8269                50.8372                24.9598
 Raman Activ --     0.6995                 0.4183                 1.0822

                    40                     41                     42
                     A                      A                      A
 Frequencies --   601.6013               665.7711               675.6544
 Red. masses --     6.5012                 4.7374                 1.1131
 Frc consts  --     1.3863                 1.2372                 0.2994
 IR Inten    --    10.1695                25.9382                85.2886
 Raman Activ --     0.8039                 0.4472                 1.7501

                    43                     44                     45
                     A                      A                      A
 Frequencies --   684.3746               718.5708               736.0821
 Red. masses --     1.0722                 1.0762                 1.0762
 Frc consts  --     0.2959                 0.3274                 0.3436
 IR Inten    --   109.5975               106.6137                85.7333
 Raman Activ --     2.2366                 1.3737                 1.8447

                    46                     47                     48
                     A                      A                      A
 Frequencies --   770.1030               787.1695               848.2956
 Red. masses --     1.0697                 1.0711                 1.8315
 Frc consts  --     0.3738                 0.3910                 0.7765
 IR Inten    --   124.0741                74.7143                 2.0351
 Raman Activ --     2.8769                 0.3687                 1.0222

                    49                     50                     51
                     A                      A                      A
 Frequencies --   855.6912               916.3808               940.1796
 Red. masses --     1.6842                 6.1280                 6.2301
 Frc consts  --     0.7266                 3.0319                 3.2447
 IR Inten    --     5.7630               170.9146                35.4874
 Raman Activ --     0.6846                 2.7843                 0.3627

                    52                     53                     54
                     A                      A                      A
 Frequencies --   979.1057               982.0637               988.2662
 Red. masses --     5.6503                 7.8432                 5.1852
 Frc consts  --     3.1914                 4.4568                 2.9838
 IR Inten    --   176.1208               334.4954                41.1282
 Raman Activ --     3.8174                 0.5205                 0.8156

                    55                     56                     57
                     A                      A                      A
 Frequencies --  1000.3341              1006.7463              1016.8641
 Red. masses --     8.2459                 6.2187                 6.9529
 Frc consts  --     4.8616                 3.7136                 4.2359
 IR Inten    --   185.3922                45.0817               220.9727
 Raman Activ --     1.0255                 3.0377                 3.2250

                    58                     59                     60
                     A                      A                      A
 Frequencies --  1021.4864              1044.4527              1060.4523
 Red. masses --     5.7656                 5.2550                 6.9452
 Frc consts  --     3.5446                 3.3775                 4.6017
 IR Inten    --   115.8707               202.3461                32.7441
 Raman Activ --     3.6667                 2.4720                 1.9708

                    61                     62                     63
                     A                      A                      A
 Frequencies --  1066.0112              1072.8525              1079.2421
 Red. masses --     3.7713                 5.6971                 3.8946
 Frc consts  --     2.5251                 3.8635                 2.6727
 IR Inten    --    12.2251                80.8641                39.0288
 Raman Activ --     4.8145                 2.3701                 6.4055

                    64                     65                     66
                     A                      A                      A
 Frequencies --  1102.4119              1102.5807              1107.3095
 Red. masses --     4.2020                 2.3072                 4.0583
 Frc consts  --     3.0088                 1.6526                 2.9318
 IR Inten    --    57.1048                52.9394                16.9690
 Raman Activ --     9.1278                 3.3996                10.4318

                    67                     68                     69
                     A                      A                      A
 Frequencies --  1129.5524              1143.1085              1144.6264
 Red. masses --     3.0208                 2.6027                 2.4185
 Frc consts  --     2.2708                 2.0038                 1.8669
 IR Inten    --     8.0633                 4.5585                74.2824
 Raman Activ --     4.8973                 5.4036                 3.5582

                    70                     71                     72
                     A                      A                      A
 Frequencies --  1150.9597              1160.6063              1165.0633
 Red. masses --     2.7628                 2.5227                 1.4355
 Frc consts  --     2.1564                 2.0021                 1.1481
 IR Inten    --    26.8173                 7.8804                 3.8407
 Raman Activ --     6.9147                 1.3876                 3.9099

                    73                     74                     75
                     A                      A                      A
 Frequencies --  1178.5804              1198.9882              1206.5180
 Red. masses --     1.5873                 1.7124                 1.9634
 Frc consts  --     1.2990                 1.4504                 1.6839
 IR Inten    --     3.8631                 8.0307                 5.2755
 Raman Activ --     1.8429                 2.4204                 3.2070

                    76                     77                     78
                     A                      A                      A
 Frequencies --  1220.3563              1220.7024              1236.8132
 Red. masses --     1.4335                 1.2371                 1.3720
 Frc consts  --     1.2578                 1.0861                 1.2365
 IR Inten    --    13.6431                 5.1629                 3.8579
 Raman Activ --     2.7759                 1.5008                 1.4051

                    79                     80                     81
                     A                      A                      A
 Frequencies --  1243.6023              1258.7075              1269.9844
 Red. masses --     1.3181                 1.2962                 1.2047
 Frc consts  --     1.2011                 1.2100                 1.1448
 IR Inten    --     5.5630                11.3109                 5.1282
 Raman Activ --     3.4517                 1.2886                 0.4241

                    82                     83                     84
                     A                      A                      A
 Frequencies --  1279.9815              1283.6918              1299.3482
 Red. masses --     1.1887                 1.2407                 1.2703
 Frc consts  --     1.1474                 1.2046                 1.2636
 IR Inten    --    30.7307                32.2515                11.7250
 Raman Activ --     1.0592                 1.6734                 3.1991

                    85                     86                     87
                     A                      A                      A
 Frequencies --  1304.4421              1312.7413              1319.4293
 Red. masses --     1.2875                 1.3438                 1.1926
 Frc consts  --     1.2908                 1.3644                 1.2233
 IR Inten    --    14.9029                15.7237                 4.4701
 Raman Activ --     2.1689                 0.3876                 7.4769

                    88                     89                     90
                     A                      A                      A
 Frequencies --  1330.5674              1333.0385              1341.8076
 Red. masses --     1.2285                 1.2072                 1.3255
 Frc consts  --     1.2815                 1.2639                 1.4061
 IR Inten    --    12.6709                15.4142                14.5127
 Raman Activ --    13.3644                 8.3283                 4.7845

                    91                     92                     93
                     A                      A                      A
 Frequencies --  1344.1651              1354.8341              1363.2139
 Red. masses --     1.2026                 1.2459                 1.2115
 Frc consts  --     1.2802                 1.3474                 1.3265
 IR Inten    --     9.0077                31.3593                34.3148
 Raman Activ --     1.2374                 1.9002                 4.7715

                    94                     95                     96
                     A                      A                      A
 Frequencies --  1373.5655              1377.4601              1384.7363
 Red. masses --     1.3326                 1.2558                 1.2508
 Frc consts  --     1.4814                 1.4038                 1.4131
 IR Inten    --     9.0366                41.8149                10.6279
 Raman Activ --     3.3248                 5.6222                 4.4342

                    97                     98                     99
                     A                      A                      A
 Frequencies --  1390.9488              1395.1488              1404.6211
 Red. masses --     1.3987                 1.3975                 1.3756
 Frc consts  --     1.5944                 1.6027                 1.5990
 IR Inten    --     6.2886                16.2496                 0.1911
 Raman Activ --     4.2314                 2.3345                 7.2855

                   100                    101                    102
                     A                      A                      A
 Frequencies --  1412.1386              1438.3805              1447.6457
 Red. masses --     1.4237                 1.4630                 1.2949
 Frc consts  --     1.6727                 1.7834                 1.5988
 IR Inten    --    15.3832                48.8479                23.1400
 Raman Activ --     3.0354                 1.0255                 2.3402

                   103                    104                    105
                     A                      A                      A
 Frequencies --  1467.7781              1469.8540              1478.2434
 Red. masses --     1.1063                 1.0857                 1.3247
 Frc consts  --     1.4043                 1.3821                 1.7056
 IR Inten    --     5.6764                 6.9368                15.9267
 Raman Activ --     5.2925                 4.3075                 2.5160

                   106                    107                    108
                     A                      A                      A
 Frequencies --  1479.9248              1490.3211              3247.6122
 Red. masses --     1.3191                 1.3334                 1.0753
 Frc consts  --     1.7022                 1.7449                 6.6820
 IR Inten    --    39.2189                19.8535                 1.5877
 Raman Activ --     1.0339                 0.4972               130.6981

                   109                    110                    111
                     A                      A                      A
 Frequencies --  3251.1021              3252.7549              3260.5914
 Red. masses --     1.0785                 1.0617                 1.0605
 Frc consts  --     6.7165                 6.6185                 6.6429
 IR Inten    --     9.2168                32.1961                92.7350
 Raman Activ --    70.1525                34.5612                34.7031

                   112                    113                    114
                     A                      A                      A
 Frequencies --  3263.3472              3264.5006              3266.1850
 Red. masses --     1.0803                 1.0819                 1.0818
 Frc consts  --     6.7783                 6.7928                 6.7994
 IR Inten    --     9.6871                23.4954                 2.6385
 Raman Activ --   114.1767                17.6810               197.5830

                   115                    116                    117
                     A                      A                      A
 Frequencies --  3273.2418              3275.3439              3285.1422
 Red. masses --     1.0823                 1.0823                 1.0857
 Frc consts  --     6.8319                 6.8411                 6.9038
 IR Inten    --     1.7873                44.4978                 5.0208
 Raman Activ --     5.8970                84.1012                62.6603

                   118                    119                    120
                     A                      A                      A
 Frequencies --  3290.5280              3293.1822              3301.1053
 Red. masses --     1.0818                 1.0867                 1.0747
 Frc consts  --     6.9015                 6.9435                 6.8999
 IR Inten    --   229.5016               118.7968               469.6959
 Raman Activ --    56.6030                21.9433               143.9585

                   121                    122                    123
                     A                      A                      A
 Frequencies --  3305.7109              3314.6581              3346.4212
 Red. masses --     1.1055                 1.1055                 1.0670
 Frc consts  --     7.1174                 7.1562                 7.0401
 IR Inten    --    63.4499                55.3929               263.1795
 Raman Activ --    40.7581                37.0303               155.1412

                   124                    125                    126
                     A                      A                      A
 Frequencies --  3369.5338              3374.0958              3378.9254
 Red. masses --     1.0672                 1.0663                 1.0665
 Frc consts  --     7.1391                 7.1522                 7.1744
 IR Inten    --    37.4180                39.5006                55.8625
 Raman Activ --   135.8963               131.7211               131.5362

                   127                    128                    129
                     A                      A                      A
 Frequencies --  3383.1855              3888.1460              3891.2102
 Red. masses --     1.0684                 1.0677                 1.0673
 Frc consts  --     7.2047                 9.5099                 9.5216
 IR Inten    --    64.8146                82.4048                66.1068
 Raman Activ --   147.6324                77.2231               137.4864

 - Thermochemistry -
 -------------------
 Temperature   298.150 Kelvin.  Pressure   1.00000 Atm.
 Atom     1 has atomic number  8 and mass  15.99491

 Molecular mass:   342.11621 amu.
 Principal axes and moments of inertia in atomic units:
                           1         2         3
     Eigenvalues --  4467.89358********************
           X            0.99997  -0.00774  -0.00010
           Y            0.00774   0.99997  -0.00155
           Z            0.00011   0.00155   1.00000
 This molecule is an asymmetric top.
 Rotational symmetry number  1.
 Warning -- assumption of classical behavior for rotation
           may cause significant error
 Rotational temperatures (Kelvin)      0.01939     0.00680     0.00515
 Rotational constants (GHZ):           0.40394     0.14165     0.10736
    8 imaginary frequencies ignored.
 Zero-point vibrational energy     972224.3 (Joules/Mol)
                                  232.36720 (Kcal/Mol)
 Warning -- explicit consideration of  32 degrees of freedom as
           vibrations may cause significant error
 Vibrational temperatures:     84.12    99.18   106.24   134.93   215.23
          (Kelvin)            237.20   264.56   278.97   311.57   356.43
                              378.12   405.87   427.46   434.38   442.21
                              451.35   480.78   504.01   518.49   565.86
                              598.13   602.55   611.55   660.87   671.10
                              694.87   733.70   790.52   817.55   834.40
                              863.21   865.57   957.89   972.11   984.66
                             1033.86  1059.06  1108.01  1132.56  1220.51
                             1231.15  1318.47  1352.71  1408.71  1412.97
                             1421.89  1439.26  1448.48  1463.04  1469.69
                             1502.73  1525.75  1533.75  1543.59  1552.79
                             1586.12  1586.37  1593.17  1625.17  1644.68
                             1646.86  1655.97  1669.85  1676.26  1695.71
                             1725.07  1735.91  1755.82  1756.32  1779.50
                             1789.26  1811.00  1827.22  1841.61  1846.94
                             1869.47  1876.80  1888.74  1898.36  1914.39
                             1917.94  1930.56  1933.95  1949.30  1961.36
                             1976.25  1981.86  1992.32  2001.26  2007.31
                             2020.93  2031.75  2069.51  2082.84  2111.80
                             2114.79  2126.86  2129.28  2144.24  4672.58
                             4677.60  4679.98  4691.26  4695.22  4696.88
                             4699.31  4709.46  4712.48  4726.58  4734.33
                             4738.15  4749.55  4756.17  4769.05  4814.75
                             4848.00  4854.57  4861.51  4867.64  5594.17
                             5598.58

 Zero-point correction=                           0.370301 (Hartree/Particle)
 Thermal correction to Energy=                    0.388309
 Thermal correction to Enthalpy=                  0.389253
 Thermal correction to Gibbs Free Energy=         0.325361
 Sum of electronic and zero-point Energies=          -1297.608253
 Sum of electronic and thermal Energies=             -1297.590245
 Sum of electronic and thermal Enthalpies=           -1297.589300
 Sum of electronic and thermal Free Energies=        -1297.653193

                     E (Thermal)             CV                S
                      KCal/Mol        Cal/Mol-Kelvin    Cal/Mol-Kelvin
 Total                  243.668             74.886            134.473
 Electronic               0.000              0.000              0.000
 Translational            0.889              2.981             43.384
 Rotational               0.889              2.981             35.213
 Vibrational            241.890             68.924             55.875
 Vibration     1          0.596              1.974              4.508
 Vibration     2          0.598              1.969              4.184
 Vibration     3          0.599              1.966              4.048
 Vibration     4          0.603              1.954              3.580
 Vibration     5          0.618              1.903              2.677
 Vibration     6          0.623              1.886              2.493
 Vibration     7          0.631              1.862              2.289
 Vibration     8          0.635              1.848              2.190
 Vibration     9          0.645              1.816              1.988
 Vibration    10          0.661              1.767              1.747
 Vibration    11          0.670              1.741              1.643
 Vibration    12          0.681              1.707              1.521
 Vibration    13          0.691              1.679              1.433
 Vibration    14          0.694              1.670              1.406
 Vibration    15          0.697              1.660              1.377
 Vibration    16          0.702              1.648              1.343
 Vibration    17          0.716              1.607              1.240
 Vibration    18          0.727              1.575              1.165
 Vibration    19          0.735              1.554              1.120
 Vibration    20          0.760              1.485              0.988
 Vibration    21          0.779              1.436              0.907
 Vibration    22          0.782              1.429              0.896
 Vibration    23          0.787              1.416              0.875
 Vibration    24          0.817              1.340              0.768
 Vibration    25          0.824              1.325              0.748
 Vibration    26          0.839              1.288              0.702
 Vibration    27          0.865              1.228              0.634
 Vibration    28          0.905              1.141              0.545
 Vibration    29          0.924              1.100              0.508
 Vibration    30          0.937              1.075              0.485
 Vibration    31          0.958              1.032              0.450
 Vibration    32          0.960              1.028              0.447

 Normal termination of Gaussian 09 at Tue Mar 29 15:18:50 2016.
