 Gaussian 09, Revision B.01,
 Gaussian 09:  EM64L-G09RevB.01 12-Aug-2010

 -------------------------------------------------
 # freq=raman b3lyp/6-31+g(2d,p) geom=connectivity
 -------------------------------------------------

 -----------------
 400 8793/8793.com
 -----------------
 Symbolic Z-matrix:
 Charge =  0 Multiplicity = 1

                         Standard orientation:
 ---------------------------------------------------------------------
 Center     Atomic      Atomic             Coordinates (Angstroms)
 Number     Number       Type             X           Y           Z
 ---------------------------------------------------------------------
      1          8           0        5.001064   -0.302601   -0.590346
      2          6           0        3.764967   -0.046363    0.091863
      3          6           0        3.152654    1.234139   -0.451400
      4          8           0        4.056106    2.318419   -0.192212
      5          1           0        4.898076    1.806014   -0.021704
      6          6           0        1.772718    1.586902    0.078107
      7          8           0        1.179539    2.613415   -0.730591
      8          1           0        0.357633    2.918344   -0.250287
      9          6           0        3.081580   -2.479946    0.524129
     10          8           0        4.232200   -3.217910    0.087440
     11          1           0        3.990327   -4.171816    0.264053
     12          6           0        2.806547   -1.184332   -0.220616
     13          8           0        1.505791   -0.890545    0.309978
     14          6           0        0.932303    0.341315   -0.151293
     15          8           0       -0.182489    0.313106    0.753089
     16          6           0       -1.446362    0.171666    0.086847
     17          6           0       -2.083283   -1.184678    0.341667
     18          8           0       -0.985383   -2.101595    0.229307
     19          1           0       -0.147671   -1.607914    0.464595
     20          6           0       -3.372133   -1.389709   -0.436581
     21          8           0       -4.019186   -2.670809   -0.434014
     22          1           0       -4.903780   -2.643324   -0.901610
     23          6           0       -2.165681    2.551596    0.187760
     24          8           0       -1.002225    3.255886    0.645992
     25          1           0       -1.105302    4.232213    0.458977
     26          6           0       -2.574776    1.115256    0.470871
     27          8           0       -3.835744    0.882708   -0.171693
     28          6           0       -4.399215   -0.408029    0.104710
     29          8           0       -5.654869   -0.515775   -0.581513
     30          1           0       -6.372442   -0.371706    0.039722
     31          1           0        5.728505   -0.246547    0.033582
     32          1           0        2.223173   -3.110792    0.423778
     33          1           0        3.208132   -2.248010    1.560995
     34          1           0        2.752654   -1.358218   -1.275016
     35          1           0        3.925941    0.031191    1.146838
     36          1           0        3.071427    1.126478   -1.512866
     37          1           0        1.800883    1.860479    1.112159
     38          1           0        0.608108    0.264293   -1.168085
     39          1           0       -2.135377    2.627670   -0.879102
     40          1           0       -2.995604    3.146119    0.508181
     41          1           0       -2.727786    1.022193    1.525777
     42          1           0       -4.531228   -0.543023    1.157919
     43          1           0       -3.176582   -1.129965   -1.455989
     44          1           0       -2.367018   -1.193454    1.373325
     45          1           0       -1.276425    0.268485   -0.965126
 ---------------------------------------------------------------------

 SCF Done:  E(RB3LYP) =  -1297.95493386     A.U. after   13 cycles

 The electronic state is 1-A.
 Alpha  occ. eigenvalues --  -19.19785 -19.19211 -19.18570 -19.18495 -19.18093
 Alpha  occ. eigenvalues --  -19.17737 -19.15861 -19.15272 -19.15132 -19.13894
 Alpha  occ. eigenvalues --  -19.12886 -10.31146 -10.30164 -10.26679 -10.25772
 Alpha  occ. eigenvalues --  -10.25485 -10.25451 -10.25159 -10.25142 -10.24425
 Alpha  occ. eigenvalues --  -10.24241 -10.23951 -10.23573  -1.10893  -1.09681
 Alpha  occ. eigenvalues --   -1.06450  -1.06171  -1.04451  -1.03905  -1.02566
 Alpha  occ. eigenvalues --   -1.02287  -1.01935  -1.00767  -0.99822  -0.82738
 Alpha  occ. eigenvalues --   -0.80265  -0.79923  -0.78630  -0.71694  -0.70128
 Alpha  occ. eigenvalues --   -0.67499  -0.65067  -0.63325  -0.62454  -0.61760
 Alpha  occ. eigenvalues --   -0.60548  -0.56866  -0.56228  -0.55943  -0.54914
 Alpha  occ. eigenvalues --   -0.54334  -0.53486  -0.52850  -0.52079  -0.51493
 Alpha  occ. eigenvalues --   -0.50505  -0.50109  -0.49706  -0.48804  -0.46986
 Alpha  occ. eigenvalues --   -0.46557  -0.45328  -0.44540  -0.43950  -0.43103
 Alpha  occ. eigenvalues --   -0.42867  -0.42073  -0.41085  -0.40737  -0.39391
 Alpha  occ. eigenvalues --   -0.38846  -0.38375  -0.37422  -0.36727  -0.36331
 Alpha  occ. eigenvalues --   -0.36008  -0.35255  -0.34827  -0.34301  -0.33883
 Alpha  occ. eigenvalues --   -0.32889  -0.31625  -0.31005  -0.30584  -0.29811
 Alpha  occ. eigenvalues --   -0.29386  -0.28787  -0.28252  -0.27590  -0.26568
 Alpha  occ. eigenvalues --   -0.25795
 Alpha virt. eigenvalues --   -0.02671  -0.02056  -0.01993  -0.00334   0.00153
 Alpha virt. eigenvalues --    0.01075   0.01918   0.02203   0.03005   0.03422
 Alpha virt. eigenvalues --    0.04101   0.04321   0.04406   0.05563   0.06022

 Mulliken atomic charges:
              1
     1  O   -0.502242
     2  C   -0.202194
     3  C    0.221936
     4  O   -0.540907
     5  H    0.315288
     6  C   -0.006991
     7  O   -0.578281
     8  H    0.422790
     9  C   -0.209825
    10  O   -0.522892
    11  H    0.331225
    12  C    0.126649
    13  O   -0.216031
    14  C    0.470258
    15  O   -0.211257
    16  C   -0.139854
    17  C    0.260093
    18  O   -0.613205
    19  H    0.410064
    20  C    0.038744
    21  O   -0.546810
    22  H    0.351386
    23  C   -0.355237
    24  O   -0.599462
    25  H    0.371353
    26  C    0.026645
    27  O   -0.264691
    28  C    0.238673
    29  O   -0.560232
    30  H    0.336853
    31  H    0.334949
    32  H    0.147517
    33  H    0.138704
    34  H    0.119412
    35  H    0.129978
    36  H    0.127053
    37  H    0.138657
    38  H    0.133141
    39  H    0.159033
    40  H    0.141897
    41  H    0.121938
    42  H    0.130682
    43  H    0.120159
    44  H    0.098175
    45  H    0.106858
 Sum of Mulliken atomic charges =   0.00000

 Dipole moment (field-independent basis, Debye):
    X=             -2.6855    Y=              1.6269    Z=              2.9567  Tot=              4.3129
 Quadrupole moment (field-independent basis, Debye-Ang):
   XX=           -117.3200   YY=           -140.8684   ZZ=           -139.0524
   XY=            -16.0241   XZ=              3.7268   YZ=              2.5569

  Exact polarizability: 235.870   1.480 193.153   0.334   0.209 143.320
 Approx polarizability: 278.113   2.000 253.625   1.032  -0.273 238.699

 ******    8 imaginary frequencies (negative Signs) ******

                     1                      2                      3
                     A                      A                      A
 Frequencies --  -337.1354              -244.6993              -218.2835
 Red. masses --     1.6663                 1.4501                 1.5796
 Frc consts  --     0.1116                 0.0512                 0.0443
 IR Inten    --     4.4576                69.9227                32.7986
 Raman Activ --     0.0159                 0.5188                 0.3822

                     4                      5                      6
                     A                      A                      A
 Frequencies --  -103.7532               -81.2459               -49.0327
 Red. masses --     2.3022                 1.8340                 5.0355
 Frc consts  --     0.0146                 0.0071                 0.0071
 IR Inten    --    30.3250                52.8948                 0.3744
 Raman Activ --     0.3417                 0.3438                 0.0691

                     7                      8                      9
                     A                      A                      A
 Frequencies --   -32.6715               -14.0034                59.1441
 Red. masses --     5.8169                 6.1036                 7.1234
 Frc consts  --     0.0037                 0.0007                 0.0147
 IR Inten    --     1.6124                 2.6192                 0.3054
 Raman Activ --     0.0179                 0.0477                 0.1374

                    10                     11                     12
                     A                      A                      A
 Frequencies --    61.3611               100.3904               133.2601
 Red. masses --     5.9601                 6.0526                 6.2698
 Frc consts  --     0.0132                 0.0359                 0.0656
 IR Inten    --     7.0284                 1.3298                 0.7499
 Raman Activ --     0.2063                 0.3310                 0.0384

                    13                     14                     15
                     A                      A                      A
 Frequencies --   162.4548               174.6946               182.0685
 Red. masses --     6.4736                 7.4075                 5.7563
 Frc consts  --     0.1007                 0.1332                 0.1124
 IR Inten    --     1.6985                 0.4530                 5.7733
 Raman Activ --     0.2374                 0.9987                 0.3573

                    16                     17                     18
                     A                      A                      A
 Frequencies --   215.9146               233.7372               275.4940
 Red. masses --     6.8185                 6.3678                 4.1891
 Frc consts  --     0.1873                 0.2050                 0.1873
 IR Inten    --     1.3567                 0.9617                13.9788
 Raman Activ --     2.2675                 0.5153                 0.4610

                    19                     20                     21
                     A                      A                      A
 Frequencies --   296.7207               299.4900               310.9123
 Red. masses --     5.9521                 5.0954                 4.1245
 Frc consts  --     0.3088                 0.2693                 0.2349
 IR Inten    --     3.3585                 5.6650                 3.6641
 Raman Activ --     0.7464                 2.2700                 0.3215

                    22                     23                     24
                     A                      A                      A
 Frequencies --   314.4238               325.8508               343.6435
 Red. masses --     4.3473                 6.1622                 5.3977
 Frc consts  --     0.2532                 0.3855                 0.3756
 IR Inten    --     3.4069                 8.4200                 0.6314
 Raman Activ --     0.7685                 1.2953                 3.1188

                    25                     26                     27
                     A                      A                      A
 Frequencies --   352.9147               372.5106               388.5491
 Red. masses --     6.4851                 5.5367                 6.6325
 Frc consts  --     0.4759                 0.4527                 0.5900
 IR Inten    --    13.3377                 2.9966                 7.6329
 Raman Activ --     3.9407                 1.1947                 0.8687

                    28                     29                     30
                     A                      A                      A
 Frequencies --   399.0785               418.2666               436.4394
 Red. masses --     5.7764                 4.3675                 6.2692
 Frc consts  --     0.5420                 0.4502                 0.7036
 IR Inten    --     3.9319                 6.3914                 1.3998
 Raman Activ --     2.8394                 4.9680                 1.2378

                    31                     32                     33
                     A                      A                      A
 Frequencies --   441.4355               488.6835               502.3285
 Red. masses --     4.0623                 4.5950                 3.9312
 Frc consts  --     0.4664                 0.6465                 0.5845
 IR Inten    --     6.2846                 6.7463                15.2644
 Raman Activ --     0.8997                 1.5350                 1.6782

                    34                     35                     36
                     A                      A                      A
 Frequencies --   521.8366               545.6658               575.8790
 Red. masses --     4.1150                 3.5697                 3.4587
 Frc consts  --     0.6602                 0.6262                 0.6758
 IR Inten    --     5.3876                13.0180                 8.4552
 Raman Activ --     4.9579                 3.4780                 0.6370

                    37                     38                     39
                     A                      A                      A
 Frequencies --   586.8355               602.8502               612.8596
 Red. masses --     3.5085                 5.8142                 4.4027
 Frc consts  --     0.7119                 1.2450                 0.9743
 IR Inten    --    21.9783                 3.2870                62.4426
 Raman Activ --     0.2955                 0.7247                 0.9667

                    40                     41                     42
                     A                      A                      A
 Frequencies --   648.7235               672.0090               704.4320
 Red. masses --     4.2882                 1.1877                 1.1436
 Frc consts  --     1.0633                 0.3160                 0.3344
 IR Inten    --     6.7511                67.3741                81.1414
 Raman Activ --     0.4102                 0.8422                 1.8180

                    43                     44                     45
                     A                      A                      A
 Frequencies --   712.5324               720.4217               730.7449
 Red. masses --     3.0034                 1.1717                 1.0791
 Frc consts  --     0.8984                 0.3583                 0.3395
 IR Inten    --    36.8213               104.4633               120.6270
 Raman Activ --     1.5904                 1.9554                 1.5527

                    46                     47                     48
                     A                      A                      A
 Frequencies --   787.8517               850.6618               856.1493
 Red. masses --     1.1317                 1.7022                 1.6813
 Frc consts  --     0.4139                 0.7257                 0.7261
 IR Inten    --    82.3947                 8.3782                 7.0378
 Raman Activ --     2.1901                 0.9603                 0.3859

                    49                     50                     51
                     A                      A                      A
 Frequencies --   918.8173               936.2993               945.9942
 Red. masses --     4.3384                 1.2291                 5.6032
 Frc consts  --     2.1579                 0.6348                 2.9544
 IR Inten    --    85.8901                46.0168                32.2157
 Raman Activ --     3.4010                 0.3978                 1.0534

                    52                     53                     54
                     A                      A                      A
 Frequencies --   968.5477               985.2607               986.6325
 Red. masses --     4.8092                 6.2116                 6.2817
 Frc consts  --     2.6581                 3.5527                 3.6028
 IR Inten    --    92.3580               257.4178                37.4341
 Raman Activ --     0.8713                 1.3371                 2.6844

                    55                     56                     57
                     A                      A                      A
 Frequencies --   998.9056              1015.0799              1025.1127
 Red. masses --     4.9169                 6.5085                 6.4918
 Frc consts  --     2.8906                 3.9512                 4.0194
 IR Inten    --   155.9506               409.2652                92.3565
 Raman Activ --     4.0041                 2.7772                 2.4722

                    58                     59                     60
                     A                      A                      A
 Frequencies --  1030.9053              1054.6312              1056.2983
 Red. masses --     5.9492                 3.5683                 4.2638
 Frc consts  --     3.7252                 2.3384                 2.8030
 IR Inten    --   138.9334                24.0066                30.7016
 Raman Activ --     3.0632                14.1890                 7.2587

                    61                     62                     63
                     A                      A                      A
 Frequencies --  1063.5025              1074.6048              1089.2308
 Red. masses --     2.3376                 4.0428                 4.6778
 Frc consts  --     1.5577                 2.7506                 3.2699
 IR Inten    --    13.6245                79.1932               167.9776
 Raman Activ --     2.4046                 7.5670                 6.2323

                    64                     65                     66
                     A                      A                      A
 Frequencies --  1093.4560              1097.2336              1107.0772
 Red. masses --     3.4930                 4.5070                 2.1696
 Frc consts  --     2.4607                 3.1970                 1.5667
 IR Inten    --    24.0847                27.5396                71.7224
 Raman Activ --     3.9008                20.8777                 3.8441

                    67                     68                     69
                     A                      A                      A
 Frequencies --  1114.3796              1122.7003              1135.3876
 Red. masses --     2.7542                 2.7888                 1.8181
 Frc consts  --     2.0152                 2.0710                 1.3809
 IR Inten    --    21.0103                10.0057                13.4787
 Raman Activ --     5.1304                13.6043                 4.5083

                    70                     71                     72
                     A                      A                      A
 Frequencies --  1140.1413              1152.3455              1159.4325
 Red. masses --     2.1360                 3.5198                 1.6896
 Frc consts  --     1.6360                 2.7538                 1.3382
 IR Inten    --    48.0846                 5.3969                33.1242
 Raman Activ --     1.1201                 3.3601                 1.4078

                    73                     74                     75
                     A                      A                      A
 Frequencies --  1165.6225              1172.1928              1186.8903
 Red. masses --     2.0824                 2.2140                 2.4347
 Frc consts  --     1.6670                 1.7924                 2.0207
 IR Inten    --    31.1523                17.4519                 3.9721
 Raman Activ --     2.1378                 2.8690                 1.6575

                    76                     77                     78
                     A                      A                      A
 Frequencies --  1194.8498              1210.9062              1215.4457
 Red. masses --     1.2834                 1.4225                 1.4096
 Frc consts  --     1.0795                 1.2289                 1.2269
 IR Inten    --     9.7156                 1.9701                 5.1461
 Raman Activ --     0.6902                 1.1413                 0.7343

                    79                     80                     81
                     A                      A                      A
 Frequencies --  1226.2872              1254.3530              1260.3014
 Red. masses --     1.2199                 1.2428                 1.2313
 Frc consts  --     1.0808                 1.1521                 1.1523
 IR Inten    --     5.5068                10.4862                17.0243
 Raman Activ --     1.6308                 2.4243                 2.1825

                    82                     83                     84
                     A                      A                      A
 Frequencies --  1276.0619              1282.2175              1289.0302
 Red. masses --     1.2748                 1.2872                 1.2482
 Frc consts  --     1.2230                 1.2468                 1.2220
 IR Inten    --    25.8347                 2.2047                10.4507
 Raman Activ --     4.5463                 2.8319                 4.4564

                    85                     86                     87
                     A                      A                      A
 Frequencies --  1292.2592              1309.2915              1316.0352
 Red. masses --     1.3474                 1.4245                 1.2314
 Frc consts  --     1.3257                 1.4388                 1.2565
 IR Inten    --    23.4091                27.9992                22.0821
 Raman Activ --     1.6466                 5.4441                 4.6362

                    88                     89                     90
                     A                      A                      A
 Frequencies --  1322.1997              1332.1646              1334.7493
 Red. masses --     1.3752                 1.2477                 1.2972
 Frc consts  --     1.4165                 1.3046                 1.3616
 IR Inten    --    10.5637                36.5650                 3.5767
 Raman Activ --     1.6489                 5.8879                 4.8396

                    91                     92                     93
                     A                      A                      A
 Frequencies --  1344.8634              1351.6399              1353.9516
 Red. masses --     1.2506                 1.3114                 1.3475
 Frc consts  --     1.3327                 1.4116                 1.4554
 IR Inten    --    14.2141                35.9371                 8.9308
 Raman Activ --     1.7515                 5.8258                 3.9333

                    94                     95                     96
                     A                      A                      A
 Frequencies --  1366.7810              1376.6153              1383.1192
 Red. masses --     1.1545                 1.1402                 1.3685
 Frc consts  --     1.2707                 1.2731                 1.5425
 IR Inten    --    43.3363                33.4147                 4.8952
 Raman Activ --     1.6265                 7.1391                 6.3778

                    97                     98                     99
                     A                      A                      A
 Frequencies --  1392.9542              1394.1777              1423.5088
 Red. masses --     1.3845                 1.6125                 1.3660
 Frc consts  --     1.5828                 1.8467                 1.6308
 IR Inten    --     3.3369                 6.5225                24.6680
 Raman Activ --     2.3612                 5.4103                 2.1608

                   100                    101                    102
                     A                      A                      A
 Frequencies --  1425.6812              1467.5069              1470.3696
 Red. masses --     1.3854                 1.2291                 1.0912
 Frc consts  --     1.6591                 1.5596                 1.3899
 IR Inten    --     7.9932                26.9519                 8.4463
 Raman Activ --     8.0643                 3.3303                 5.6009

                   103                    104                    105
                     A                      A                      A
 Frequencies --  1477.8467              1479.5159              1490.2013
 Red. masses --     1.1577                 1.2762                 1.3239
 Frc consts  --     1.4897                 1.6459                 1.7322
 IR Inten    --     8.1799                81.2747                 1.6413
 Raman Activ --     2.7824                 5.2851                 2.5701

                   106                    107                    108
                     A                      A                      A
 Frequencies --  1518.0343              1527.3044              3224.0476
 Red. masses --     1.1843                 1.2741                 1.0680
 Frc consts  --     1.6079                 1.7511                 6.5410
 IR Inten    --    16.4662                87.9941               892.1803
 Raman Activ --     1.1394                 1.1544               141.1910

                   109                    110                    111
                     A                      A                      A
 Frequencies --  3246.4359              3257.5081              3257.9323
 Red. masses --     1.0804                 1.0601                 1.0570
 Frc consts  --     6.7087                 6.6279                 6.6100
 IR Inten    --   115.0573                13.5841                31.7217
 Raman Activ --    32.3289               233.4804                48.8322

                   112                    113                    114
                     A                      A                      A
 Frequencies --  3263.7540              3273.5943              3277.4074
 Red. masses --     1.0813                 1.0837                 1.0828
 Frc consts  --     6.7863                 6.8427                 6.8524
 IR Inten    --    12.3239                 1.8222                12.0925
 Raman Activ --    65.9652                74.8567                94.6604

                   115                    116                    117
                     A                      A                      A
 Frequencies --  3281.4072              3286.2971              3292.4605
 Red. masses --     1.0864                 1.0825                 1.0760
 Frc consts  --     6.8922                 6.8878                 6.8725
 IR Inten    --    13.0967               113.3363               325.2979
 Raman Activ --    14.9495                75.1800                31.6869

                   118                    119                    120
                     A                      A                      A
 Frequencies --  3293.4742              3297.9756              3301.5335
 Red. masses --     1.0876                 1.0881                 1.0834
 Frc consts  --     6.9507                 6.9727                 6.9578
 IR Inten    --    68.7394                 9.0431               261.2062
 Raman Activ --    53.6033                16.9518               145.6482

                   121                    122                    123
                     A                      A                      A
 Frequencies --  3305.0906              3310.3304              3317.9019
 Red. masses --     1.0980                 1.0879                 1.1039
 Frc consts  --     7.0666                 7.0237                 7.1596
 IR Inten    --    49.7460                57.5577                69.7542
 Raman Activ --    40.6088                 5.5662                27.1294

                   124                    125                    126
                     A                      A                      A
 Frequencies --  3351.0896              3358.5787              3373.0673
 Red. masses --     1.0645                 1.0661                 1.0680
 Frc consts  --     7.0432                 7.0854                 7.1594
 IR Inten    --    29.2000                70.7401                35.2529
 Raman Activ --    73.7098               115.4810               133.4933

                   127                    128                    129
                     A                      A                      A
 Frequencies --  3379.8427              3887.0648              3892.3440
 Red. masses --     1.0667                 1.0677                 1.0674
 Frc consts  --     7.1796                 9.5052                 9.5278
 IR Inten    --    85.6548                72.4040                90.1040
 Raman Activ --   117.6899                95.4983               124.6479

 - Thermochemistry -
 -------------------
 Temperature   298.150 Kelvin.  Pressure   1.00000 Atm.
 Atom     1 has atomic number  8 and mass  15.99491

 Molecular mass:   342.11621 amu.
 Principal axes and moments of inertia in atomic units:
                           1         2         3
     Eigenvalues --  4287.37763********************
           X            0.99997  -0.00747   0.00054
           Y            0.00747   0.99997  -0.00129
           Z           -0.00053   0.00129   1.00000
 This molecule is an asymmetric top.
 Rotational symmetry number  1.
 Warning -- assumption of classical behavior for rotation
           may cause significant error
 Rotational temperatures (Kelvin)      0.02020     0.00693     0.00533
 Rotational constants (GHZ):           0.42094     0.14434     0.11113
    8 imaginary frequencies ignored.
 Zero-point vibrational energy     976782.4 (Joules/Mol)
                                  233.45659 (Kcal/Mol)
 Warning -- explicit consideration of  31 degrees of freedom as
           vibrations may cause significant error
 Vibrational temperatures:     85.10    88.28   144.44   191.73   233.74
          (Kelvin)            251.35   261.96   310.65   336.30   396.37
                              426.91   430.90   447.33   452.39   468.83
                              494.43   507.76   535.96   559.03   574.18
                              601.79   627.94   635.13   703.11   722.74
                              750.81   785.09   828.56   844.32   867.37
                              881.77   933.37   966.87  1013.52  1025.17
                             1036.52  1051.38  1133.54  1223.91  1231.81
                             1321.97  1347.12  1361.07  1393.52  1417.57
                             1419.54  1437.20  1460.47  1474.91  1483.24
                             1517.38  1519.78  1530.14  1546.11  1567.16
                             1573.24  1578.67  1592.84  1603.34  1615.31
                             1633.57  1640.41  1657.97  1668.16  1677.07
                             1686.52  1707.67  1719.12  1742.22  1748.75
                             1764.35  1804.73  1813.29  1835.97  1844.82
                             1854.62  1859.27  1883.78  1893.48  1902.35
                             1916.69  1920.40  1934.96  1944.71  1948.03
                             1966.49  1980.64  1990.00  2004.15  2005.91
                             2048.11  2051.23  2111.41  2115.53  2126.29
                             2128.69  2144.06  2184.11  2197.45  4638.68
                             4670.89  4686.82  4687.43  4695.81  4709.97
                             4715.45  4721.21  4728.24  4737.11  4738.57
                             4745.05  4750.16  4755.28  4762.82  4773.71
                             4821.46  4832.24  4853.09  4862.83  5592.61
                             5600.21

 Zero-point correction=                           0.372037 (Hartree/Particle)
 Thermal correction to Energy=                    0.389300
 Thermal correction to Enthalpy=                  0.390244
 Thermal correction to Gibbs Free Energy=         0.328162
 Sum of electronic and zero-point Energies=          -1297.582897
 Sum of electronic and thermal Energies=             -1297.565634
 Sum of electronic and thermal Enthalpies=           -1297.564689
 Sum of electronic and thermal Free Energies=        -1297.626772

                     E (Thermal)             CV                S
                      KCal/Mol        Cal/Mol-Kelvin    Cal/Mol-Kelvin
 Total                  244.290             73.379            130.664
 Electronic               0.000              0.000              0.000
 Translational            0.889              2.981             43.384
 Rotational               0.889              2.981             35.119
 Vibrational            242.512             67.417             52.160
 Vibration     1          0.597              1.974              4.486
 Vibration     2          0.597              1.973              4.413
 Vibration     3          0.604              1.949              3.447
 Vibration     4          0.613              1.920              2.898
 Vibration     5          0.623              1.888              2.521
 Vibration     6          0.627              1.874              2.384
 Vibration     7          0.630              1.864              2.307
 Vibration     8          0.645              1.817              1.993
 Vibration     9          0.654              1.789              1.850
 Vibration    10          0.677              1.719              1.561
 Vibration    11          0.690              1.680              1.435
 Vibration    12          0.692              1.675              1.420
 Vibration    13          0.700              1.653              1.357
 Vibration    14          0.702              1.646              1.339
 Vibration    15          0.710              1.624              1.281
 Vibration    16          0.722              1.588              1.195
 Vibration    17          0.729              1.569              1.153
 Vibration    18          0.744              1.529              1.069
 Vibration    19          0.757              1.495              1.006
 Vibration    20          0.765              1.472              0.966
 Vibration    21          0.781              1.431              0.898
 Vibration    22          0.797              1.391              0.838
 Vibration    23          0.801              1.380              0.822
 Vibration    24          0.845              1.275              0.687
 Vibration    25          0.858              1.245              0.652
 Vibration    26          0.877              1.202              0.606
 Vibration    27          0.901              1.149              0.553
 Vibration    28          0.932              1.083              0.493
 Vibration    29          0.944              1.060              0.473
 Vibration    30          0.961              1.026              0.445
 Vibration    31          0.972              1.005              0.428

 Normal termination of Gaussian 09 at Sun Mar 27 03:24:14 2016.
