 Gaussian 09, Revision B.01,
 Gaussian 09:  EM64L-G09RevB.01 12-Aug-2010

 -------------------------------------------------
 # freq=raman b3lyp/6-31+g(2d,p) geom=connectivity
 -------------------------------------------------

 -----------------
 280 6180/6180.com
 -----------------
 Symbolic Z-matrix:
 Charge =  0 Multiplicity = 1

                         Standard orientation:
 ---------------------------------------------------------------------
 Center     Atomic      Atomic             Coordinates (Angstroms)
 Number     Number       Type             X           Y           Z
 ---------------------------------------------------------------------
      1          8           0        5.021097   -0.357502   -0.422324
      2          6           0        3.755857   -0.014460    0.163741
      3          6           0        3.212825    1.269209   -0.442041
      4          8           0        4.206375    2.294785   -0.296848
      5          1           0        5.040069    1.743365   -0.274460
      6          6           0        1.798498    1.572630    0.024123
      7          8           0        1.245951    2.765176   -0.550401
      8          1           0        0.376768    2.959973   -0.096122
      9          6           0        3.197060   -2.498626    0.520025
     10          8           0        4.331849   -3.027016   -0.181008
     11          1           0        4.225811   -4.014918   -0.289638
     12          6           0        2.763323   -1.149012   -0.030415
     13          8           0        1.461433   -0.795847    0.458386
     14          6           0        0.895432    0.364374   -0.167217
     15          8           0       -0.282669    0.545282    0.631848
     16          6           0       -1.542455    0.219953    0.025835
     17          6           0       -1.981043   -1.184897    0.405065
     18          8           0       -1.006635   -2.161828    0.011365
     19          1           0       -0.309619   -2.090035    0.724159
     20          6           0       -3.278965   -1.544580   -0.298981
     21          8           0       -3.871491   -2.815487    0.002786
     22          1           0       -4.772722   -2.852863   -0.429207
     23          6           0       -2.474348    2.582217    0.163736
     24          8           0       -1.326480    3.321486    0.605175
     25          1           0       -1.399561    4.312611    0.502929
     26          6           0       -2.690000    1.109543    0.475581
     27          8           0       -3.916499    0.856530   -0.225276
     28          6           0       -4.331259   -0.495836    0.020235
     29          8           0       -5.428475   -0.612795   -0.897216
     30          1           0       -6.222068   -0.860363   -0.417091
     31          1           0        5.613738   -0.678832    0.261141
     32          1           0        3.448502   -2.387446    1.554102
     33          1           0        2.382969   -3.187431    0.432255
     34          1           0        2.662344   -1.277584   -1.087851
     35          1           0        3.897309    0.137993    1.213336
     36          1           0        3.135347    1.088301   -1.493787
     37          1           0        1.857137    1.744338    1.078627
     38          1           0        0.659209    0.191827   -1.196453
     39          1           0       -3.330879    3.099738    0.542451
     40          1           0       -2.499936    2.672153   -0.902171
     41          1           0       -2.847119    0.986159    1.526766
     42          1           0       -1.446130    0.282532   -1.037981
     43          1           0       -2.126448   -1.236594    1.463878
     44          1           0       -3.094753   -1.514320   -1.352570
     45          1           0       -4.675173   -0.603972    1.027672
 ---------------------------------------------------------------------

 SCF Done:  E(RB3LYP) =  -1297.99254693     A.U. after   13 cycles

 The electronic state is 1-A.
 Alpha  occ. eigenvalues --  -19.18458 -19.18216 -19.17872 -19.17686 -19.17264
 Alpha  occ. eigenvalues --  -19.17014 -19.16560 -19.16555 -19.15196 -19.14356
 Alpha  occ. eigenvalues --  -19.13685 -10.30694 -10.30116 -10.26264 -10.25583
 Alpha  occ. eigenvalues --  -10.25092 -10.24897 -10.24890 -10.24773 -10.24652
 Alpha  occ. eigenvalues --  -10.24513 -10.23898 -10.23729  -1.09913  -1.09158
 Alpha  occ. eigenvalues --   -1.05431  -1.04510  -1.03872  -1.03575  -1.03065
 Alpha  occ. eigenvalues --   -1.02535  -1.01641  -1.01395  -1.00017  -0.82417
 Alpha  occ. eigenvalues --   -0.79912  -0.79584  -0.78101  -0.71750  -0.69957
 Alpha  occ. eigenvalues --   -0.67192  -0.64627  -0.63134  -0.62356  -0.61729
 Alpha  occ. eigenvalues --   -0.59912  -0.56566  -0.55354  -0.54959  -0.54545
 Alpha  occ. eigenvalues --   -0.54291  -0.53312  -0.53024  -0.52089  -0.50995
 Alpha  occ. eigenvalues --   -0.50519  -0.49570  -0.48928  -0.48519  -0.46196
 Alpha  occ. eigenvalues --   -0.45734  -0.45230  -0.44449  -0.43514  -0.43351
 Alpha  occ. eigenvalues --   -0.42389  -0.41937  -0.41030  -0.40481  -0.40089
 Alpha  occ. eigenvalues --   -0.38238  -0.38150  -0.36885  -0.36524  -0.36272
 Alpha  occ. eigenvalues --   -0.35672  -0.34930  -0.34063  -0.33688  -0.33386
 Alpha  occ. eigenvalues --   -0.32878  -0.31900  -0.30765  -0.30348  -0.29953
 Alpha  occ. eigenvalues --   -0.29417  -0.29007  -0.28499  -0.27014  -0.26827
 Alpha  occ. eigenvalues --   -0.26199
 Alpha virt. eigenvalues --   -0.02166  -0.01733  -0.01695  -0.00050   0.00112
 Alpha virt. eigenvalues --    0.00556   0.01924   0.02352   0.03231   0.03394
 Alpha virt. eigenvalues --    0.03775   0.04282   0.04658   0.05141   0.05594

 Mulliken atomic charges:
              1
     1  O   -0.526644
     2  C   -0.111697
     3  C    0.203826
     4  O   -0.556797
     5  H    0.350371
     6  C    0.050344
     7  O   -0.582499
     8  H    0.403485
     9  C   -0.278709
    10  O   -0.521760
    11  H    0.342417
    12  C    0.148002
    13  O   -0.259611
    14  C    0.329840
    15  O   -0.234604
    16  C    0.121132
    17  C    0.044786
    18  O   -0.496170
    19  H    0.347287
    20  C    0.099833
    21  O   -0.546986
    22  H    0.337775
    23  C   -0.285993
    24  O   -0.590835
    25  H    0.362572
    26  C    0.044632
    27  O   -0.218246
    28  C    0.070230
    29  O   -0.539741
    30  H    0.334494
    31  H    0.347300
    32  H    0.140889
    33  H    0.141927
    34  H    0.113565
    35  H    0.122253
    36  H    0.113909
    37  H    0.123564
    38  H    0.131052
    39  H    0.143733
    40  H    0.156052
    41  H    0.123268
    42  H    0.116569
    43  H    0.120221
    44  H    0.131602
    45  H    0.133363
 Sum of Mulliken atomic charges =   0.00000

 Dipole moment (field-independent basis, Debye):
    X=             -3.2659    Y=             -1.8462    Z=              3.1071  Tot=              4.8712
 Quadrupole moment (field-independent basis, Debye-Ang):
   XX=           -119.4808   YY=           -136.4711   ZZ=           -139.4194
   XY=            -18.5243   XZ=              2.7958   YZ=              1.8755

  Exact polarizability: 232.106   0.519 197.336   1.408  -0.366 144.984
 Approx polarizability: 273.584  -0.097 257.716   2.222  -0.438 241.316

 ******    6 imaginary frequencies (negative Signs) ******

                     1                      2                      3
                     A                      A                      A
 Frequencies --  -290.9096              -231.4104              -181.9809
 Red. masses --     1.7658                 1.7456                 1.2466
 Frc consts  --     0.0880                 0.0551                 0.0243
 IR Inten    --     5.6542                15.9685               105.5661
 Raman Activ --     0.0529                 0.1660                 0.7934

                     4                      5                      6
                     A                      A                      A
 Frequencies --  -142.1341               -63.5082               -48.1852
 Red. masses --     1.4701                 6.4019                 5.7693
 Frc consts  --     0.0175                 0.0152                 0.0079
 IR Inten    --    66.3724                 1.9235                 0.2453
 Raman Activ --     0.5023                 0.0640                 0.0445

                     7                      8                      9
                     A                      A                      A
 Frequencies --    37.6014                58.6363                78.2592
 Red. masses --     6.6278                 6.5537                 5.6498
 Frc consts  --     0.0055                 0.0133                 0.0204
 IR Inten    --     0.4212                 1.8339                 7.1684
 Raman Activ --     0.0890                 0.0942                 0.0896

                    10                     11                     12
                     A                      A                      A
 Frequencies --    91.5580               108.9240               117.9780
 Red. masses --     6.1055                 3.8612                 5.8364
 Frc consts  --     0.0302                 0.0270                 0.0479
 IR Inten    --     0.9748                20.9120                 3.0627
 Raman Activ --     0.2608                 0.2240                 0.0967

                    13                     14                     15
                     A                      A                      A
 Frequencies --   149.3258               171.5030               197.7939
 Red. masses --     6.5110                 6.1667                 5.5765
 Frc consts  --     0.0855                 0.1069                 0.1285
 IR Inten    --     3.5163                 1.9164                 1.4582
 Raman Activ --     0.4913                 1.1510                 0.1880

                    16                     17                     18
                     A                      A                      A
 Frequencies --   202.6384               227.0219               256.5793
 Red. masses --     5.8818                 5.9161                 4.5763
 Frc consts  --     0.1423                 0.1796                 0.1775
 IR Inten    --     1.5789                 0.4072                20.0885
 Raman Activ --     0.8818                 1.4308                 0.1473

                    19                     20                     21
                     A                      A                      A
 Frequencies --   279.6783               293.1677               297.5169
 Red. masses --     5.8328                 5.1068                 6.0470
 Frc consts  --     0.2688                 0.2586                 0.3154
 IR Inten    --     1.4543                 0.7931                 4.6132
 Raman Activ --     0.2974                 0.3369                 1.4769

                    22                     23                     24
                     A                      A                      A
 Frequencies --   302.3698               325.0522               328.7394
 Red. masses --     4.7887                 5.6989                 5.0278
 Frc consts  --     0.2580                 0.3548                 0.3201
 IR Inten    --     1.4446                 1.6089                 1.1490
 Raman Activ --     0.2990                 1.6734                 2.8007

                    25                     26                     27
                     A                      A                      A
 Frequencies --   337.2930               358.2855               373.7150
 Red. masses --     6.2285                 4.1129                 8.1798
 Frc consts  --     0.4175                 0.3111                 0.6731
 IR Inten    --    16.6825                 7.7018                 1.0907
 Raman Activ --     4.5454                 0.6847                 2.4008

                    28                     29                     30
                     A                      A                      A
 Frequencies --   404.1281               411.4529               429.5804
 Red. masses --     4.6883                 5.5270                 5.3319
 Frc consts  --     0.4511                 0.5513                 0.5797
 IR Inten    --    13.2797                 8.6778                 1.8132
 Raman Activ --     1.6893                 2.3770                 4.1264

                    31                     32                     33
                     A                      A                      A
 Frequencies --   443.1212               474.0047               489.3183
 Red. masses --     4.5489                 4.4591                 4.2603
 Frc consts  --     0.5263                 0.5903                 0.6010
 IR Inten    --     1.2482                 2.2334                15.5817
 Raman Activ --     2.6762                 2.9378                 0.3858

                    34                     35                     36
                     A                      A                      A
 Frequencies --   512.1139               518.1602               559.2573
 Red. masses --     3.6130                 3.3196                 3.4915
 Frc consts  --     0.5583                 0.5251                 0.6434
 IR Inten    --     9.7845                11.9992                13.2361
 Raman Activ --     5.1366                 3.2819                 1.0819

                    37                     38                     39
                     A                      A                      A
 Frequencies --   585.4163               594.2892               618.3349
 Red. masses --     2.7367                 6.1252                 4.4702
 Frc consts  --     0.5526                 1.2746                 1.0070
 IR Inten    --    50.4283                 3.7713                 6.9185
 Raman Activ --     0.2723                 0.6706                 0.4204

                    40                     41                     42
                     A                      A                      A
 Frequencies --   628.1385               668.2775               678.2544
 Red. masses --     5.6749                 1.0658                 1.3702
 Frc consts  --     1.3192                 0.2804                 0.3714
 IR Inten    --    31.8022               103.2603               111.7762
 Raman Activ --     1.3659                 1.8357                 0.9703

                    43                     44                     45
                     A                      A                      A
 Frequencies --   693.0536               726.1282               736.6991
 Red. masses --     2.6981                 1.1368                 1.0582
 Frc consts  --     0.7636                 0.3532                 0.3384
 IR Inten    --    11.6279               196.6571                85.9091
 Raman Activ --     2.3573                 4.8235                 1.8092

                    46                     47                     48
                     A                      A                      A
 Frequencies --   757.5217               845.2382               852.8687
 Red. masses --     1.0850                 1.2970                 1.6584
 Frc consts  --     0.3668                 0.5460                 0.7107
 IR Inten    --    68.1131                45.2256                 9.0209
 Raman Activ --     1.0521                 0.6782                 0.6736

                    49                     50                     51
                     A                      A                      A
 Frequencies --   872.7505               920.2227               959.5299
 Red. masses --     1.4190                 5.7108                 4.7847
 Frc consts  --     0.6368                 2.8492                 2.5955
 IR Inten    --    17.8169                92.2937                15.3193
 Raman Activ --     0.6926                 2.5645                 0.9250

                    52                     53                     54
                     A                      A                      A
 Frequencies --   972.8268               977.0337               988.1684
 Red. masses --     6.2830                 6.3685                 5.1054
 Frc consts  --     3.5034                 3.5819                 2.9373
 IR Inten    --    34.4287               237.6660               176.0739
 Raman Activ --     2.9699                 0.5290                 1.0829

                    55                     56                     57
                     A                      A                      A
 Frequencies --  1000.7660              1011.4101              1021.6049
 Red. masses --     6.1072                 4.9308                 4.9432
 Frc consts  --     3.6038                 2.9718                 3.0397
 IR Inten    --   221.6335                55.7613               136.2235
 Raman Activ --     0.8408                 2.5852                 3.4586

                    58                     59                     60
                     A                      A                      A
 Frequencies --  1033.6662              1052.1191              1056.2078
 Red. masses --     6.6073                 4.9370                 4.7676
 Frc consts  --     4.1595                 3.2199                 3.1336
 IR Inten    --   302.3461                65.1558               127.1790
 Raman Activ --     1.5081                 6.7286                 4.4295

                    61                     62                     63
                     A                      A                      A
 Frequencies --  1063.6610              1076.8985              1079.6238
 Red. masses --     4.1506                 5.5559                 3.1985
 Frc consts  --     2.7667                 3.7962                 2.1966
 IR Inten    --    24.8007                14.3823                10.7162
 Raman Activ --     4.7025                 5.6563                16.2466

                    64                     65                     66
                     A                      A                      A
 Frequencies --  1091.8736              1107.0197              1113.6325
 Red. masses --     2.9724                 2.6657                 2.5471
 Frc consts  --     2.0879                 1.9248                 1.8611
 IR Inten    --    11.5580                33.2069                24.4520
 Raman Activ --    16.0209                 1.4998                 6.8848

                    67                     68                     69
                     A                      A                      A
 Frequencies --  1118.1563              1123.1988              1140.2835
 Red. masses --     2.8467                 3.0789                 3.0580
 Frc consts  --     2.0970                 2.2885                 2.3427
 IR Inten    --   121.6167                42.5525                31.9291
 Raman Activ --     3.2065                 2.6462                 8.9105

                    70                     71                     72
                     A                      A                      A
 Frequencies --  1146.7034              1152.9033              1155.7287
 Red. masses --     2.0870                 1.9904                 1.8606
 Frc consts  --     1.6169                 1.5588                 1.4643
 IR Inten    --    18.9437                25.6310                17.3868
 Raman Activ --     4.2094                 3.7288                 2.4478

                    73                     74                     75
                     A                      A                      A
 Frequencies --  1166.2089              1178.4079              1185.9034
 Red. masses --     1.7700                 2.1894                 1.7901
 Frc consts  --     1.4184                 1.7913                 1.4833
 IR Inten    --     7.8239                 8.5131                15.6404
 Raman Activ --     3.7248                 1.7031                 2.8296

                    76                     77                     78
                     A                      A                      A
 Frequencies --  1202.5003              1203.6192              1229.6963
 Red. masses --     1.3589                 1.3588                 1.2790
 Frc consts  --     1.1578                 1.1598                 1.1395
 IR Inten    --     7.6940                13.4126                 8.3300
 Raman Activ --     2.4381                 1.6079                 0.9734

                    79                     80                     81
                     A                      A                      A
 Frequencies --  1235.6783              1239.8064              1259.3837
 Red. masses --     1.2540                 1.2603                 1.2945
 Frc consts  --     1.1281                 1.1414                 1.2097
 IR Inten    --     8.6488                 3.2517                 5.8928
 Raman Activ --     2.0487                 1.0839                 1.1194

                    82                     83                     84
                     A                      A                      A
 Frequencies --  1273.8746              1282.1383              1287.1655
 Red. masses --     1.2988                 1.3744                 1.1973
 Frc consts  --     1.2418                 1.3311                 1.1688
 IR Inten    --     1.9867                64.8925                 6.4835
 Raman Activ --     3.2727                 3.2687                 3.2698

                    85                     86                     87
                     A                      A                      A
 Frequencies --  1291.2212              1296.7075              1302.1950
 Red. masses --     1.1897                 1.2542                 1.3606
 Frc consts  --     1.1687                 1.2425                 1.3594
 IR Inten    --    21.0340                 5.9741                34.7420
 Raman Activ --     1.0039                 2.2055                 3.6039

                    88                     89                     90
                     A                      A                      A
 Frequencies --  1310.8107              1321.7123              1331.3332
 Red. masses --     1.2795                 1.2335                 1.2889
 Frc consts  --     1.2953                 1.2696                 1.3460
 IR Inten    --     1.3045                19.4488                45.3956
 Raman Activ --     2.4123                 6.3133                12.9058

                    91                     92                     93
                     A                      A                      A
 Frequencies --  1337.2613              1341.0351              1344.0826
 Red. masses --     1.2225                 1.2348                 1.2520
 Frc consts  --     1.2881                 1.3084                 1.3326
 IR Inten    --     6.2589                61.6806                15.4557
 Raman Activ --     1.2700                 3.0712                 1.2424

                    94                     95                     96
                     A                      A                      A
 Frequencies --  1362.0169              1365.2447              1372.7764
 Red. masses --     1.3821                 1.1848                 1.4340
 Frc consts  --     1.5107                 1.3012                 1.5922
 IR Inten    --    21.9616                11.0899                 3.6157
 Raman Activ --    12.2833                 2.0946                 4.1747

                    97                     98                     99
                     A                      A                      A
 Frequencies --  1379.3618              1385.4351              1395.0112
 Red. masses --     1.5105                 1.5305                 1.5585
 Frc consts  --     1.6932                 1.7308                 1.7869
 IR Inten    --     6.6764                 4.4969                 2.3267
 Raman Activ --     7.2990                 5.1517                 6.1783

                   100                    101                    102
                     A                      A                      A
 Frequencies --  1432.1784              1445.4258              1452.0678
 Red. masses --     1.4584                 1.3609                 1.3669
 Frc consts  --     1.7625                 1.6752                 1.6981
 IR Inten    --    34.4016                13.9900                26.3467
 Raman Activ --     0.9691                 1.0981                 1.9400

                   103                    104                    105
                     A                      A                      A
 Frequencies --  1469.3035              1475.0064              1493.9093
 Red. masses --     1.0854                 1.0916                 1.2318
 Frc consts  --     1.3805                 1.3993                 1.6198
 IR Inten    --     5.8020                 2.6125                 9.3478
 Raman Activ --     3.6060                 4.0028                 0.6876

                   106                    107                    108
                     A                      A                      A
 Frequencies --  1503.6135              1513.7465              3256.0436
 Red. masses --     1.2747                 1.3228                 1.0604
 Frc consts  --     1.6980                 1.7859                 6.6239
 IR Inten    --    28.9038               102.2297                25.3818
 Raman Activ --     1.9025                 1.3410                46.4919

                   109                    110                    111
                     A                      A                      A
 Frequencies --  3258.9305              3260.1661              3267.6344
 Red. masses --     1.0724                 1.0630                 1.0805
 Frc consts  --     6.7105                 6.6566                 6.7975
 IR Inten    --    35.7067                93.4383                 5.6157
 Raman Activ --    81.4199               155.4161                67.1849

                   112                    113                    114
                     A                      A                      A
 Frequencies --  3271.3705              3276.0373              3278.7974
 Red. masses --     1.0836                 1.0817                 1.0829
 Frc consts  --     6.8323                 6.8400                 6.8591
 IR Inten    --     4.6717                73.2054                 1.7142
 Raman Activ --     5.3029                65.7642               100.6176

                   115                    116                    117
                     A                      A                      A
 Frequencies --  3281.5132              3285.7886              3288.4685
 Red. masses --     1.0837                 1.0729                 1.0846
 Frc consts  --     6.8753                 6.8245                 6.9102
 IR Inten    --     7.7086               399.7307                73.8007
 Raman Activ --   136.0010               170.9734                39.6433

                   118                    119                    120
                     A                      A                      A
 Frequencies --  3290.0607              3300.1479              3303.3797
 Red. masses --     1.0859                 1.0872                 1.0877
 Frc consts  --     6.9252                 6.9764                 6.9933
 IR Inten    --    75.8878                 4.6597                88.1023
 Raman Activ --    23.8973                23.0408                21.8276

                   121                    122                    123
                     A                      A                      A
 Frequencies --  3313.8340              3318.4316              3347.0283
 Red. masses --     1.1036                 1.1073                 1.0649
 Frc consts  --     7.1407                 7.1843                 7.0285
 IR Inten    --    64.0301                45.8147                63.1905
 Raman Activ --    43.9139                36.3754                70.4277

                   124                    125                    126
                     A                      A                      A
 Frequencies --  3363.3096              3375.7583              3376.9122
 Red. masses --     1.0655                 1.0665                 1.0678
 Frc consts  --     7.1015                 7.1609                 7.1744
 IR Inten    --    50.0918               100.2077                40.7471
 Raman Activ --   109.5143               168.9698                93.8366

                   127                    128                    129
                     A                      A                      A
 Frequencies --  3382.1828              3889.1455              3890.7515
 Red. masses --     1.0676                 1.0674                 1.0674
 Frc consts  --     7.1951                 9.5127                 9.5202
 IR Inten    --    75.4901                72.0354                74.1156
 Raman Activ --   155.9228               113.0500                87.2146

 - Thermochemistry -
 -------------------
 Temperature   298.150 Kelvin.  Pressure   1.00000 Atm.
 Atom     1 has atomic number  8 and mass  15.99491

 Molecular mass:   342.11621 amu.
 Principal axes and moments of inertia in atomic units:
                           1         2         3
     Eigenvalues --  4385.26664********************
           X            0.99997  -0.00833   0.00035
           Y            0.00833   0.99996  -0.00087
           Z           -0.00034   0.00088   1.00000
 This molecule is an asymmetric top.
 Rotational symmetry number  1.
 Warning -- assumption of classical behavior for rotation
           may cause significant error
 Rotational temperatures (Kelvin)      0.01975     0.00688     0.00527
 Rotational constants (GHZ):           0.41155     0.14343     0.10971
    6 imaginary frequencies ignored.
 Zero-point vibrational energy     974935.7 (Joules/Mol)
                                  233.01521 (Kcal/Mol)
 Warning -- explicit consideration of  33 degrees of freedom as
           vibrations may cause significant error
 Vibrational temperatures:     54.10    84.36   112.60   131.73   156.72
          (Kelvin)            169.74   214.85   246.75   284.58   291.55
                              326.63   369.16   402.39   421.80   428.06
                              435.04   467.68   472.98   485.29   515.49
                              537.69   581.45   591.99   618.07   637.55
                              681.99   704.02   736.82   745.52   804.65
                              842.28   855.05   889.64   903.75   961.50
                              975.86   997.15  1044.74  1059.94  1089.90
                             1216.11  1227.09  1255.69  1323.99  1380.55
                             1399.68  1405.73  1421.75  1439.88  1455.19
                             1469.86  1487.21  1513.76  1519.65  1530.37
                             1549.41  1553.34  1570.96  1592.75  1602.27
                             1608.78  1616.03  1640.61  1649.85  1658.77
                             1662.83  1677.91  1695.46  1706.25  1730.13
                             1731.74  1769.26  1777.86  1783.80  1811.97
                             1832.82  1844.71  1851.94  1857.78  1865.67
                             1873.57  1885.96  1901.65  1915.49  1924.02
                             1929.45  1933.83  1959.64  1964.28  1975.12
                             1984.59  1993.33  2007.11  2060.58  2079.64
                             2089.20  2114.00  2122.20  2149.40  2163.36
                             2177.94  4684.71  4688.87  4690.65  4701.39
                             4706.77  4713.48  4717.45  4721.36  4727.51
                             4731.37  4733.66  4748.17  4752.82  4767.86
                             4774.48  4815.62  4839.05  4856.96  4858.62
                             4866.20  5595.61  5597.92

 Zero-point correction=                           0.371333 (Hartree/Particle)
 Thermal correction to Energy=                    0.390492
 Thermal correction to Enthalpy=                  0.391436
 Thermal correction to Gibbs Free Energy=         0.324646
 Sum of electronic and zero-point Energies=          -1297.621214
 Sum of electronic and thermal Energies=             -1297.602055
 Sum of electronic and thermal Enthalpies=           -1297.601111
 Sum of electronic and thermal Free Energies=        -1297.667901

                     E (Thermal)             CV                S
                      KCal/Mol        Cal/Mol-Kelvin    Cal/Mol-Kelvin
 Total                  245.037             78.114            140.573
 Electronic               0.000              0.000              0.000
 Translational            0.889              2.981             43.384
 Rotational               0.889              2.981             35.161
 Vibrational            243.260             72.152             62.027
 Vibration     1          0.594              1.982              5.382
 Vibration     2          0.596              1.974              4.503
 Vibration     3          0.600              1.964              3.934
 Vibration     4          0.602              1.955              3.627
 Vibration     5          0.606              1.942              3.288
 Vibration     6          0.608              1.934              3.133
 Vibration     7          0.618              1.903              2.681
 Vibration     8          0.626              1.878              2.419
 Vibration     9          0.637              1.843              2.154
 Vibration    10          0.639              1.836              2.109
 Vibration    11          0.651              1.800              1.902
 Vibration    12          0.666              1.752              1.685
 Vibration    13          0.680              1.711              1.536
 Vibration    14          0.688              1.686              1.456
 Vibration    15          0.691              1.678              1.431
 Vibration    16          0.694              1.669              1.404
 Vibration    17          0.709              1.625              1.285
 Vibration    18          0.712              1.618              1.266
 Vibration    19          0.718              1.601              1.225
 Vibration    20          0.733              1.558              1.130
 Vibration    21          0.745              1.526              1.065
 Vibration    22          0.769              1.461              0.948
 Vibration    23          0.775              1.445              0.921
 Vibration    24          0.791              1.406              0.860
 Vibration    25          0.803              1.376              0.817
 Vibration    26          0.831              1.308              0.726
 Vibration    27          0.845              1.274              0.685
 Vibration    28          0.867              1.223              0.629
 Vibration    29          0.873              1.210              0.614
 Vibration    30          0.915              1.119              0.525
 Vibration    31          0.942              1.063              0.475
 Vibration    32          0.952              1.044              0.460
 Vibration    33          0.978              0.993              0.419

 Normal termination of Gaussian 09 at Mon Mar 21 22:59:10 2016.
