 Gaussian 09, Revision B.01,
 Gaussian 09:  EM64L-G09RevB.01 12-Aug-2010

 --------------------------------------------------
 # freq=raman b3lyp/6-31+g(2df,p) geom=connectivity
 --------------------------------------------------

 ------------
 300 7000.com
 ------------
 Symbolic Z-matrix:
 Charge =  0 Multiplicity = 1

                         Standard orientation:
 ---------------------------------------------------------------------
 Center     Atomic      Atomic             Coordinates (Angstroms)
 Number     Number       Type             X           Y           Z
 ---------------------------------------------------------------------
      1          8           0        4.956704   -0.453872   -0.326901
      2          6           0        3.714957   -0.030464    0.255434
      3          6           0        3.222608    1.230529   -0.436534
      4          8           0        4.122586    2.296882   -0.098545
      5          1           0        5.086848    2.036836   -0.152301
      6          6           0        1.849292    1.647852    0.062505
      7          8           0        1.345085    2.852727   -0.532225
      8          1           0        0.421660    2.951526   -0.160276
      9          6           0        3.072692   -2.488587    0.511581
     10          8           0        4.173553   -3.255427    0.002693
     11          1           0        3.911132   -4.202686    0.182312
     12          6           0        2.733332   -1.136825   -0.094683
     13          8           0        1.409387   -0.797078    0.341234
     14          6           0        1.001821    0.432852   -0.274919
     15          8           0       -0.290485    0.679855    0.298142
     16          6           0       -1.573370    0.291105   -0.213803
     17          6           0       -1.856742   -1.155707    0.155587
     18          8           0       -0.873710   -2.121870   -0.241499
     19          1           0       -0.043828   -1.765283    0.189259
     20          6           0       -3.277926   -1.541114   -0.223019
     21          8           0       -3.751529   -2.883487   -0.044561
     22          1           0       -4.725155   -2.893629   -0.273372
     23          6           0       -2.492002    2.648566    0.161495
     24          8           0       -1.267665    3.269375    0.579704
     25          1           0       -1.433223    4.239303    0.403020
     26          6           0       -2.698750    1.152364    0.336351
     27          8           0       -3.999018    0.740842   -0.108861
     28          6           0       -4.321214   -0.585489    0.333892
     29          8           0       -5.436103   -0.632776   -0.568610
     30          1           0       -6.249979   -0.722142   -0.067391
     31          1           0        5.564454   -0.713816    0.369280
     32          1           0        3.798356    0.103262    1.313764
     33          1           0        3.202608    1.086754   -1.496642
     34          1           0        1.883263    1.768696    1.125116
     35          1           0        0.922572    0.312953   -1.335222
     36          1           0        2.718018   -1.243206   -1.159271
     37          1           0        2.198228   -3.099512    0.428003
     38          1           0        3.255192   -2.329246    1.553792
     39          1           0       -1.560613    0.379463   -1.280073
     40          1           0       -1.839941   -1.174325    1.225293
     41          1           0       -2.692558    0.985636    1.393264
     42          1           0       -3.286858    3.138489    0.684066
     43          1           0       -2.612720    2.862557   -0.879915
     44          1           0       -4.564637   -0.682582    1.371302
     45          1           0       -3.311456   -1.390910   -1.281894
 ---------------------------------------------------------------------

 SCF Done:  E(RB3LYP) =  -1297.99170890     A.U. after   13 cycles

 The electronic state is 1-A.
 Alpha  occ. eigenvalues --  -19.19009 -19.18593 -19.17776 -19.17663 -19.17029
 Alpha  occ. eigenvalues --  -19.16841 -19.16566 -19.15757 -19.14647 -19.14351
 Alpha  occ. eigenvalues --  -19.13978 -10.30818 -10.30481 -10.25681 -10.25494
 Alpha  occ. eigenvalues --  -10.25283 -10.25259 -10.25056 -10.24431 -10.24365
 Alpha  occ. eigenvalues --  -10.24300 -10.24198 -10.24114  -1.10211  -1.09780
 Alpha  occ. eigenvalues --   -1.05386  -1.05132  -1.03617  -1.02936  -1.02819
 Alpha  occ. eigenvalues --   -1.02106  -1.01636  -1.00632  -1.00079  -0.82326
 Alpha  occ. eigenvalues --   -0.80719  -0.78998  -0.78360  -0.71777  -0.69964
 Alpha  occ. eigenvalues --   -0.67506  -0.64266  -0.62763  -0.62263  -0.61360
 Alpha  occ. eigenvalues --   -0.60792  -0.56593  -0.55636  -0.54682  -0.54390
 Alpha  occ. eigenvalues --   -0.53695  -0.53423  -0.52503  -0.51433  -0.51045
 Alpha  occ. eigenvalues --   -0.50679  -0.49868  -0.49358  -0.48492  -0.46631
 Alpha  occ. eigenvalues --   -0.45651  -0.45311  -0.44361  -0.43546  -0.42977
 Alpha  occ. eigenvalues --   -0.42517  -0.41667  -0.40919  -0.40572  -0.39815
 Alpha  occ. eigenvalues --   -0.39133  -0.38713  -0.37523  -0.36700  -0.36305
 Alpha  occ. eigenvalues --   -0.35117  -0.34495  -0.33958  -0.33712  -0.32856
 Alpha  occ. eigenvalues --   -0.31920  -0.31183  -0.30892  -0.30193  -0.29735
 Alpha  occ. eigenvalues --   -0.29260  -0.29063  -0.28091  -0.27770  -0.26694
 Alpha  occ. eigenvalues --   -0.26571
 Alpha virt. eigenvalues --   -0.01926  -0.01856  -0.01795  -0.00162   0.00169
 Alpha virt. eigenvalues --    0.00990   0.01927   0.02070   0.03079   0.03294
 Alpha virt. eigenvalues --    0.03570   0.04227   0.04934   0.05338   0.05704

 Mulliken atomic charges:
              1
     1  O   -0.428893
     2  C   -0.106037
     3  C   -0.019320
     4  O   -0.475619
     5  H    0.346529
     6  C   -0.088176
     7  O   -0.472352
     8  H    0.424386
     9  C   -0.430092
    10  O   -0.434729
    11  H    0.341888
    12  C    0.037220
    13  O   -0.035105
    14  C    0.135994
    15  O   -0.111270
    16  C    0.022506
    17  C    0.113623
    18  O   -0.445654
    19  H    0.398498
    20  C   -0.114705
    21  O   -0.475084
    22  H    0.347876
    23  C   -0.424992
    24  O   -0.455785
    25  H    0.358632
    26  C   -0.140283
    27  O   -0.025381
    28  C   -0.004977
    29  O   -0.453551
    30  H    0.336946
    31  H    0.350235
    32  H    0.138099
    33  H    0.136934
    34  H    0.140530
    35  H    0.142562
    36  H    0.132094
    37  H    0.148934
    38  H    0.143369
    39  H    0.123804
    40  H    0.112931
    41  H    0.118803
    42  H    0.149765
    43  H    0.156423
    44  H    0.146514
    45  H    0.136909
 Sum of Mulliken atomic charges =   0.00000

 Dipole moment (field-independent basis, Debye):
    X=             -2.4734    Y=              0.2348    Z=              3.2883  Tot=              4.1214
 Quadrupole moment (field-independent basis, Debye-Ang):
   XX=           -115.1363   YY=           -140.3681   ZZ=           -137.7698
   XY=            -14.9753   XZ=              0.8554   YZ=             -2.8779

  Exact polarizability: 235.584   1.610 198.965  -0.020  -0.814 143.989
 Approx polarizability: 277.891   0.506 260.099   0.717  -1.379 239.542

 ******    6 imaginary frequencies (negative Signs) ******

                     1                      2                      3
                     A                      A                      A
 Frequencies --  -298.8503              -291.9170              -233.8179
 Red. masses --     1.6496                 1.7607                 1.1871
 Frc consts  --     0.0868                 0.0884                 0.0382
 IR Inten    --    13.9701                 1.9566                85.0090
 Raman Activ --     0.1533                 0.0605                 1.2137

                     4                      5                      6
                     A                      A                      A
 Frequencies --  -212.9180               -85.5174               -59.5741
 Red. masses --     1.1589                 5.5456                 6.6055
 Frc consts  --     0.0310                 0.0239                 0.0138
 IR Inten    --   101.2829                 0.5193                 1.7894
 Raman Activ --     0.8946                 0.0866                 0.0337

                     7                      8                      9
                     A                      A                      A
 Frequencies --    26.1736                44.3288                50.0590
 Red. masses --     6.3980                 5.9528                 6.9686
 Frc consts  --     0.0026                 0.0069                 0.0103
 IR Inten    --     0.9155                 2.3424                 1.6203
 Raman Activ --     0.0560                 0.0788                 0.1882

                    10                     11                     12
                     A                      A                      A
 Frequencies --    71.1232                98.7047               115.9054
 Red. masses --     6.4788                 6.6598                 6.9936
 Frc consts  --     0.0193                 0.0382                 0.0554
 IR Inten    --     1.9875                 0.1942                 1.0164
 Raman Activ --     0.1251                 0.0874                 0.0906

                    13                     14                     15
                     A                      A                      A
 Frequencies --   148.1039               158.6097               187.0086
 Red. masses --     6.0094                 6.5527                 6.0304
 Frc consts  --     0.0777                 0.0971                 0.1243
 IR Inten    --     2.8066                 0.4495                 0.2768
 Raman Activ --     0.5010                 0.2244                 0.5986

                    16                     17                     18
                     A                      A                      A
 Frequencies --   198.2655               221.0685               266.5279
 Red. masses --     7.2485                 6.2304                 4.4631
 Frc consts  --     0.1679                 0.1794                 0.1868
 IR Inten    --     0.1806                 0.7466                10.1736
 Raman Activ --     2.0238                 0.9879                 0.1819

                    19                     20                     21
                     A                      A                      A
 Frequencies --   273.2224               285.8221               295.2041
 Red. masses --     5.4087                 4.7237                 5.4241
 Frc consts  --     0.2379                 0.2274                 0.2785
 IR Inten    --     4.3907                 2.6140                 2.7381
 Raman Activ --     0.3276                 0.1502                 0.3240

                    22                     23                     24
                     A                      A                      A
 Frequencies --   308.6754               313.2076               324.4480
 Red. masses --     5.0147                 6.1245                 6.2620
 Frc consts  --     0.2815                 0.3540                 0.3884
 IR Inten    --     8.4499                 5.6602                 2.5598
 Raman Activ --     0.7475                 2.1584                 1.7083

                    25                     26                     27
                     A                      A                      A
 Frequencies --   329.3029               360.3713               371.9521
 Red. masses --     6.6101                 4.2636                 5.5850
 Frc consts  --     0.4223                 0.3262                 0.4552
 IR Inten    --     5.1657                 4.6066                 2.8221
 Raman Activ --     7.3242                 0.2530                 0.8359

                    28                     29                     30
                     A                      A                      A
 Frequencies --   402.3779               416.3202               429.6095
 Red. masses --     5.5815                 6.1209                 6.0884
 Frc consts  --     0.5324                 0.6251                 0.6621
 IR Inten    --    11.6951                 5.6019                 4.4387
 Raman Activ --     1.8017                 7.2623                 2.7571

                    31                     32                     33
                     A                      A                      A
 Frequencies --   439.8130               465.9469               493.1793
 Red. masses --     3.8407                 3.4930                 3.7894
 Frc consts  --     0.4377                 0.4468                 0.5430
 IR Inten    --     1.1842                 8.0460                12.8381
 Raman Activ --     1.5721                 1.6721                 5.8222

                    34                     35                     36
                     A                      A                      A
 Frequencies --   500.8987               526.3724               562.6004
 Red. masses --     5.4917                 3.4487                 4.0282
 Frc consts  --     0.8118                 0.5630                 0.7512
 IR Inten    --     1.2188                13.4853                 4.1678
 Raman Activ --     0.0693                 2.8809                 1.1901

                    37                     38                     39
                     A                      A                      A
 Frequencies --   587.2935               591.0277               612.8424
 Red. masses --     5.2905                 2.9345                 3.7927
 Frc consts  --     1.0751                 0.6039                 0.8393
 IR Inten    --     7.6368                62.0827                16.6140
 Raman Activ --     0.3906                 0.5088                 0.9761

                    40                     41                     42
                     A                      A                      A
 Frequencies --   658.2839               711.3526               715.7955
 Red. masses --     6.4591                 5.2539                 1.0753
 Frc consts  --     1.6491                 1.5664                 0.3246
 IR Inten    --    33.5239                15.8928                90.2177
 Raman Activ --     0.7652                 2.9881                 1.4051

                    43                     44                     45
                     A                      A                      A
 Frequencies --   736.1414               740.7716               766.2987
 Red. masses --     1.0620                 1.0583                 1.1095
 Frc consts  --     0.3391                 0.3422                 0.3839
 IR Inten    --    76.7953               101.0592               109.2971
 Raman Activ --     1.9540                 1.7993                 1.3132

                    46                     47                     48
                     A                      A                      A
 Frequencies --   844.7077               852.9520               856.8945
 Red. masses --     1.7673                 1.1226                 1.2505
 Frc consts  --     0.7430                 0.4812                 0.5410
 IR Inten    --     7.0556               119.6884                23.0254
 Raman Activ --     0.6546                 2.1057                 0.4179

                    49                     50                     51
                     A                      A                      A
 Frequencies --   871.9431               912.4579               936.3969
 Red. masses --     1.4611                 4.9372                 5.1869
 Frc consts  --     0.6545                 2.4219                 2.6797
 IR Inten    --    55.7052                99.8448                53.9740
 Raman Activ --     1.3740                 4.0439                 1.3113

                    52                     53                     54
                     A                      A                      A
 Frequencies --   974.4644               982.2590               984.6496
 Red. masses --     6.0709                 5.2184                 4.9760
 Frc consts  --     3.3965                 2.9665                 2.8424
 IR Inten    --   133.3098               137.8355                19.1590
 Raman Activ --     0.7210                 3.8961                 1.4660

                    55                     56                     57
                     A                      A                      A
 Frequencies --   997.1384              1009.2504              1016.7131
 Red. masses --     4.5589                 6.1850                 5.9499
 Frc consts  --     2.6707                 3.7118                 3.6238
 IR Inten    --    38.3217                79.7822               276.7451
 Raman Activ --     3.9799                 1.4819                 4.5376

                    58                     59                     60
                     A                      A                      A
 Frequencies --  1033.4007              1058.4853              1064.9614
 Red. masses --     4.5935                 3.2171                 2.6723
 Frc consts  --     2.8902                 2.1237                 1.7857
 IR Inten    --   393.8072               140.3812                12.4112
 Raman Activ --     1.6289                 6.3051                 2.4720

                    61                     62                     63
                     A                      A                      A
 Frequencies --  1071.5714              1074.0066              1083.3063
 Red. masses --     3.4557                 3.0627                 3.0556
 Frc consts  --     2.3379                 2.0814                 2.1128
 IR Inten    --     3.4326                34.6592                42.3939
 Raman Activ --     3.5311                 5.9546                10.4839

                    64                     65                     66
                     A                      A                      A
 Frequencies --  1084.7188              1097.3160              1100.7285
 Red. masses --     4.2791                 4.2544                 3.3848
 Frc consts  --     2.9665                 3.0182                 2.4163
 IR Inten    --     7.7455               162.3944                22.9976
 Raman Activ --    12.7181                 3.1993                14.3728

                    67                     68                     69
                     A                      A                      A
 Frequencies --  1119.8621              1124.3872              1140.2514
 Red. masses --     2.4554                 2.3368                 1.6832
 Frc consts  --     1.8143                 1.7406                 1.2894
 IR Inten    --     6.0666                 4.8104                12.3263
 Raman Activ --    10.3193                 7.5362                 4.4915

                    70                     71                     72
                     A                      A                      A
 Frequencies --  1142.5041              1148.4848              1152.1543
 Red. masses --     2.5113                 2.9137                 1.8903
 Frc consts  --     1.9314                 2.2643                 1.4784
 IR Inten    --    18.4031                63.9048                55.2690
 Raman Activ --     3.8445                 4.0093                 1.0847

                    73                     74                     75
                     A                      A                      A
 Frequencies --  1161.9943              1165.3785              1186.4801
 Red. masses --     2.4865                 2.0482                 1.5985
 Frc consts  --     1.9781                 1.6389                 1.3258
 IR Inten    --    43.6822                 8.0071                 5.2402
 Raman Activ --     3.0142                 4.9840                 2.0989

                    76                     77                     78
                     A                      A                      A
 Frequencies --  1188.6759              1192.1018              1208.9674
 Red. masses --     1.4097                 2.1429                 1.3024
 Frc consts  --     1.1735                 1.7943                 1.1216
 IR Inten    --    12.5852                12.0836                 6.2676
 Raman Activ --     0.1684                 2.9528                 0.8669

                    79                     80                     81
                     A                      A                      A
 Frequencies --  1223.4236              1234.6843              1259.0623
 Red. masses --     1.6259                 1.1595                 1.2540
 Frc consts  --     1.4339                 1.0414                 1.1712
 IR Inten    --     4.3947                11.0691                11.1789
 Raman Activ --     2.1094                 1.7235                 2.1016

                    82                     83                     84
                     A                      A                      A
 Frequencies --  1264.5168              1282.3535              1290.5191
 Red. masses --     1.3555                 1.2726                 1.2434
 Frc consts  --     1.2771                 1.2330                 1.2201
 IR Inten    --    27.4128                13.9103                 1.2336
 Raman Activ --     0.7764                 3.0718                 5.5643

                    85                     86                     87
                     A                      A                      A
 Frequencies --  1294.3734              1300.6000              1303.5837
 Red. masses --     1.2903                 1.2213                 1.2819
 Frc consts  --     1.2737                 1.2172                 1.2835
 IR Inten    --    14.8481                34.3290                18.3854
 Raman Activ --     3.8657                 7.2392                 2.0366

                    88                     89                     90
                     A                      A                      A
 Frequencies --  1310.1015              1315.5837              1324.5041
 Red. masses --     1.3243                 1.2218                 1.1788
 Frc consts  --     1.3392                 1.2459                 1.2184
 IR Inten    --    27.0349                 4.9519                24.7202
 Raman Activ --     4.9831                 3.0464                 8.2858

                    91                     92                     93
                     A                      A                      A
 Frequencies --  1340.8199              1344.5309              1356.0237
 Red. masses --     1.4102                 1.3687                 1.2077
 Frc consts  --     1.4937                 1.4578                 1.3085
 IR Inten    --     9.1485                20.3562                36.1431
 Raman Activ --     7.4618                 5.0465                 2.5159

                    94                     95                     96
                     A                      A                      A
 Frequencies --  1362.4324              1366.0411              1368.7314
 Red. masses --     1.3539                 1.2402                 1.4875
 Frc consts  --     1.4807                 1.3636                 1.6418
 IR Inten    --    25.3542                20.0071                 3.9201
 Raman Activ --     5.6039                 2.0501                 7.9636

                    97                     98                     99
                     A                      A                      A
 Frequencies --  1375.5475              1380.7869              1387.1680
 Red. masses --     1.1585                 1.4623                 1.5149
 Frc consts  --     1.2915                 1.6426                 1.7175
 IR Inten    --    25.0700                17.7953                 2.4026
 Raman Activ --     2.7309                 2.9106                 3.2832

                   100                    101                    102
                     A                      A                      A
 Frequencies --  1398.7524              1448.4835              1459.2975
 Red. masses --     1.6198                 1.4267                 1.0750
 Frc consts  --     1.8672                 1.7637                 1.3488
 IR Inten    --    24.0718                26.2396                 4.2826
 Raman Activ --     1.8315                 1.1213                 4.1881

                   103                    104                    105
                     A                      A                      A
 Frequencies --  1468.8270              1483.9316              1485.5454
 Red. masses --     1.0781                 1.3261                 1.3555
 Frc consts  --     1.3705                 1.7205                 1.7625
 IR Inten    --     3.4825                36.1074                17.4081
 Raman Activ --     5.1496                 0.8881                 1.3242

                   106                    107                    108
                     A                      A                      A
 Frequencies --  1517.7003              1544.7898              3242.6755
 Red. masses --     1.2471                 1.2261                 1.0780
 Frc consts  --     1.6925                 1.7239                 6.6786
 IR Inten    --    32.6496                32.5591                46.7216
 Raman Activ --     0.6280                 1.3394                64.5450

                   109                    110                    111
                     A                      A                      A
 Frequencies --  3250.0807              3251.8460              3254.1754
 Red. masses --     1.0581                 1.0703                 1.0673
 Frc consts  --     6.5852                 6.6685                 6.6592
 IR Inten    --    22.0797               136.9287                44.9240
 Raman Activ --    68.0954               232.1937                37.1412

                   112                    113                    114
                     A                      A                      A
 Frequencies --  3258.5058              3268.8706              3274.3385
 Red. masses --     1.0697                 1.0828                 1.0694
 Frc consts  --     6.6919                 6.8169                 6.7549
 IR Inten    --   366.3776                 9.0130               677.5698
 Raman Activ --   143.7768                14.2105               202.2225

                   115                    116                    117
                     A                      A                      A
 Frequencies --  3276.5480              3282.0941              3284.8454
 Red. masses --     1.0827                 1.0840                 1.0851
 Frc consts  --     6.8485                 6.8797                 6.8983
 IR Inten    --    10.0621                 2.1499                39.3032
 Raman Activ --    22.6471                34.7737                13.4998

                   118                    119                    120
                     A                      A                      A
 Frequencies --  3286.6493              3293.3686              3302.3906
 Red. masses --     1.0820                 1.0868                 1.0976
 Frc consts  --     6.8865                 6.9451                 7.0523
 IR Inten    --   135.0889                 5.3433                13.8306
 Raman Activ --   136.4328                48.9510                15.8232

                   121                    122                    123
                     A                      A                      A
 Frequencies --  3306.2587              3307.5690              3308.3225
 Red. masses --     1.1013                 1.0919                 1.0929
 Frc consts  --     7.0933                 7.0381                 7.0479
 IR Inten    --     9.2187                38.4405               137.6769
 Raman Activ --    58.9224                74.9675                12.7388

                   124                    125                    126
                     A                      A                      A
 Frequencies --  3349.5229              3351.1784              3364.0296
 Red. masses --     1.0656                 1.0663                 1.0658
 Frc consts  --     7.0437                 7.0554                 7.1064
 IR Inten    --    44.0291                29.4849                54.0111
 Raman Activ --   113.0097               149.9088               128.6725

                   127                    128                    129
                     A                      A                      A
 Frequencies --  3369.4354              3874.6561              3877.3385
 Red. masses --     1.0677                 1.0673                 1.0675
 Frc consts  --     7.1417                 9.4404                 9.4551
 IR Inten    --    40.7115                49.3794                71.2055
 Raman Activ --   134.0866               157.5444                93.0555

 - Thermochemistry -
 -------------------
 Temperature   298.150 Kelvin.  Pressure   1.00000 Atm.
 Atom     1 has atomic number  8 and mass  15.99491

 Molecular mass:   342.11621 amu.
 Principal axes and moments of inertia in atomic units:
                           1         2         3
     Eigenvalues --  4459.73321********************
           X            0.99997  -0.00818   0.00032
           Y            0.00818   0.99996  -0.00270
           Z           -0.00030   0.00270   1.00000
 This molecule is an asymmetric top.
 Rotational symmetry number  1.
 Warning -- assumption of classical behavior for rotation
           may cause significant error
 Rotational temperatures (Kelvin)      0.01942     0.00706     0.00530
 Rotational constants (GHZ):           0.40467     0.14708     0.11045
    6 imaginary frequencies ignored.
 Zero-point vibrational energy     973592.7 (Joules/Mol)
                                  232.69424 (Kcal/Mol)
 Warning -- explicit consideration of  33 degrees of freedom as
           vibrations may cause significant error
 Vibrational temperatures:     37.66    63.78    72.02   102.33   142.01
          (Kelvin)            166.76   213.09   228.20   269.06   285.26
                              318.07   383.47   393.11   411.23   424.73
                              444.11   450.64   466.81   473.79   518.49
                              535.16   578.93   598.99   618.11   632.79
                              670.39   709.57   720.68   757.33   809.46
                              844.98   850.36   881.74   947.12  1023.48
                             1029.87  1059.14  1065.80  1102.53  1215.34
                             1227.21  1232.88  1254.53  1312.82  1347.26
                             1402.04  1413.25  1416.69  1434.66  1452.08
                             1462.82  1486.83  1522.92  1532.24  1541.75
                             1545.25  1558.63  1560.67  1578.79  1583.70
                             1611.23  1617.74  1640.57  1643.81  1652.41
                             1657.69  1671.85  1676.72  1707.08  1710.24
                             1715.17  1739.43  1760.23  1776.43  1811.51
                             1819.36  1845.02  1856.77  1862.31  1871.27
                             1875.56  1884.94  1892.83  1905.66  1929.14
                             1934.48  1951.01  1960.23  1965.43  1969.30
                             1979.10  1986.64  1995.82  2012.49  2084.04
                             2099.60  2113.31  2135.04  2137.37  2183.63
                             2222.61  4665.48  4676.14  4678.68  4682.03
                             4688.26  4703.17  4711.04  4714.22  4722.20
                             4726.15  4728.75  4738.42  4751.40  4756.96
                             4758.85  4759.93  4819.21  4821.59  4840.08
                             4847.86  5574.76  5578.62

 Zero-point correction=                           0.370822 (Hartree/Particle)
 Thermal correction to Energy=                    0.390154
 Thermal correction to Enthalpy=                  0.391098
 Thermal correction to Gibbs Free Energy=         0.322847
 Sum of electronic and zero-point Energies=          -1297.620887
 Sum of electronic and thermal Energies=             -1297.601555
 Sum of electronic and thermal Enthalpies=           -1297.600611
 Sum of electronic and thermal Free Energies=        -1297.668862

                     E (Thermal)             CV                S
                      KCal/Mol        Cal/Mol-Kelvin    Cal/Mol-Kelvin
 Total                  244.825             77.849            143.647
 Electronic               0.000              0.000              0.000
 Translational            0.889              2.981             43.384
 Rotational               0.889              2.981             35.146
 Vibrational            243.048             71.887             65.117
 Vibration     1          0.593              1.985              6.100
 Vibration     2          0.595              1.980              5.056
 Vibration     3          0.595              1.978              4.815
 Vibration     4          0.598              1.968              4.122
 Vibration     5          0.604              1.950              3.480
 Vibration     6          0.608              1.936              3.168
 Vibration     7          0.617              1.905              2.696
 Vibration     8          0.621              1.893              2.566
 Vibration     9          0.632              1.858              2.257
 Vibration    10          0.637              1.842              2.149
 Vibration    11          0.648              1.809              1.950
 Vibration    12          0.672              1.735              1.619
 Vibration    13          0.676              1.723              1.576
 Vibration    14          0.684              1.700              1.499
 Vibration    15          0.689              1.683              1.444
 Vibration    16          0.698              1.657              1.369
 Vibration    17          0.701              1.648              1.345
 Vibration    18          0.709              1.627              1.288
 Vibration    19          0.712              1.617              1.264
 Vibration    20          0.735              1.554              1.121
 Vibration    21          0.744              1.530              1.072
 Vibration    22          0.768              1.465              0.954
 Vibration    23          0.780              1.435              0.905
 Vibration    24          0.791              1.406              0.860
 Vibration    25          0.800              1.383              0.827
 Vibration    26          0.823              1.326              0.749
 Vibration    27          0.849              1.265              0.675
 Vibration    28          0.856              1.248              0.656
 Vibration    29          0.881              1.192              0.595
 Vibration    30          0.918              1.112              0.519
 Vibration    31          0.944              1.059              0.472
 Vibration    32          0.948              1.051              0.465
 Vibration    33          0.972              1.005              0.428

 Normal termination of Gaussian 09 at Fri Mar 25 19:56:16 2016.
