 Gaussian 09, Revision B.01,
 Gaussian 09:  EM64L-G09RevB.01 12-Aug-2010

 ----------------------------------------------------------------------
 # freq=raman b3lyp/6-31+g(2df,p) scrf=(smd,solvent=water) geom=connect
 ivity
 ----------------------------------------------------------------------

 --------------------
 Beta-D-Glucose Raman
 --------------------
 Symbolic Z-matrix:
 Charge =  0 Multiplicity = 1

                         Standard orientation:
 ---------------------------------------------------------------------
 Center     Atomic      Atomic             Coordinates (Angstroms)
 Number     Number       Type             X           Y           Z
 ---------------------------------------------------------------------
      1          8           0       -0.673835   -1.169313   -0.243184
      2          8           0       -0.871023    2.449505    0.284739
      3          8           0        1.870199    2.041413   -0.536825
      4          8           0        2.863258   -0.555843    0.437210
      5          8           0        1.108980   -2.674410   -0.228225
      6          8           0       -3.375755   -0.960404    0.216928
      7          6           0       -0.366852    1.234967   -0.264687
      8          6           0        1.093761    1.059806    0.151669
      9          6           0       -1.217375    0.063487    0.231874
     10          6           0        1.606792   -0.335771   -0.203407
     11          6           0        0.635464   -1.420447    0.262199
     12          6           0       -2.654642    0.156363   -0.270597
     13          1           0       -0.426728    1.319464   -1.356687
     14          1           0        1.223785    1.257626    1.222811
     15          1           0       -1.242993    0.032425    1.329700
     16          1           0        1.785367   -0.402122   -1.283420
     17          1           0        0.601164   -1.500177    1.354824
     18          1           0       -2.699575    0.131329   -1.364509
     19          1           0       -3.148902    1.066105    0.081964
     20          1           0       -0.828491    2.381129    1.253736
     21          1           0        1.511283    2.914147   -0.301206
     22          1           0        2.726367   -0.494186    1.398071
     23          1           0        1.468356   -2.541393   -1.121099
     24          1           0       -2.927107   -1.762352   -0.101649
 ---------------------------------------------------------------------

 SCF Done:  E(RB3LYP) =  -687.297854371     A.U. after   12 cycles

 The electronic state is 1-A.
 Alpha  occ. eigenvalues --  -19.17013 -19.16930 -19.16164 -19.16026 -19.15637
 Alpha  occ. eigenvalues --  -19.15371 -10.29402 -10.24604 -10.24055 -10.24019
 Alpha  occ. eigenvalues --  -10.23983 -10.23018  -1.08388  -1.04839  -1.04199
 Alpha  occ. eigenvalues --   -1.03079  -1.02059  -1.01542  -0.78535  -0.77050
 Alpha  occ. eigenvalues --   -0.68998  -0.65629  -0.62674  -0.60867  -0.55431
 Alpha  occ. eigenvalues --   -0.53175  -0.52216  -0.51166  -0.50584  -0.48604
 Alpha  occ. eigenvalues --   -0.47319  -0.46368  -0.44067  -0.43086  -0.42197
 Alpha  occ. eigenvalues --   -0.40525  -0.38666  -0.38385  -0.36567  -0.35814
 Alpha  occ. eigenvalues --   -0.34848  -0.33767  -0.32311  -0.31836  -0.30132
 Alpha  occ. eigenvalues --   -0.28941  -0.27675  -0.26347
 Alpha virt. eigenvalues --    0.00841   0.01340   0.01780   0.02020   0.03988
 Alpha virt. eigenvalues --    0.04417   0.04932   0.05034   0.06162   0.06936
 Alpha virt. eigenvalues --    0.08642   0.08938   0.09606   0.10614   0.11101

 Mulliken atomic charges:
              1
     1  O   -0.180664
     2  O   -0.507470
     3  O   -0.555808
     4  O   -0.508921
     5  O   -0.512183
     6  O   -0.496157
     7  C   -0.109990
     8  C    0.050945
     9  C    0.067632
    10  C    0.016520
    11  C   -0.060423
    12  C   -0.357703
    13  H    0.173949
    14  H    0.165665
    15  H    0.159780
    16  H    0.184868
    17  H    0.181164
    18  H    0.170805
    19  H    0.189432
    20  H    0.385222
    21  H    0.390906
    22  H    0.384270
    23  H    0.384647
    24  H    0.383514
 Sum of Mulliken atomic charges =   0.00000

 Dipole moment (field-independent basis, Debye):
    X=             -0.0739    Y=              2.3643    Z=              2.4138  Tot=              3.3796
 Quadrupole moment (field-independent basis, Debye-Ang):
   XX=            -97.2530   YY=            -79.8829   ZZ=            -60.9693
   XY=             -2.2678   XZ=              5.3119   YZ=              8.4720

  Exact polarizability: 138.800  -3.953 138.875  -0.263   0.919 129.643
 Approx polarizability: 130.434  -4.348 133.522  -1.164   1.441 130.654

                     1                      2                      3
                     A                      A                      A
 Frequencies --     9.8142                80.1245                98.9753
 Red. masses --     5.8438                 4.3140                 6.0045
 Frc consts  --     0.0003                 0.0163                 0.0347
 IR Inten    --     4.5216                 8.8150                 0.7907
 Raman Activ --     0.0348                 0.0716                 0.1537

                     4                      5                      6
                     A                      A                      A
 Frequencies --   149.5448               208.4320               258.0934
 Red. masses --     5.6924                 3.1052                 4.7511
 Frc consts  --     0.0750                 0.0795                 0.1865
 IR Inten    --     3.3483                 1.6966                27.6456
 Raman Activ --     0.0451                 0.2389                 0.1673

                     7                      8                      9
                     A                      A                      A
 Frequencies --   266.9074               288.3223               313.7830
 Red. masses --     3.5986                 4.1701                 5.0913
 Frc consts  --     0.1510                 0.2042                 0.2954
 IR Inten    --    11.5409                19.4389                10.7861
 Raman Activ --     0.8538                 1.0756                 0.5117

                    10                     11                     12
                     A                      A                      A
 Frequencies --   338.8738               379.4728               384.3754
 Red. masses --     2.9260                 1.7106                 1.2387
 Frc consts  --     0.1980                 0.1451                 0.1078
 IR Inten    --     8.4207               107.2584               266.6502
 Raman Activ --     3.4635                 1.6989                 0.5552

                    13                     14                     15
                     A                      A                      A
 Frequencies --   388.1733               401.3607               422.6220
 Red. masses --     1.4737                 1.6906                 3.8959
 Frc consts  --     0.1308                 0.1605                 0.4100
 IR Inten    --   211.8850                91.9345                12.4432
 Raman Activ --     2.3843                 0.4927                10.9917

                    16                     17                     18
                     A                      A                      A
 Frequencies --   424.1023               452.7934               467.1035
 Red. masses --     1.3334                 2.9431                 1.2969
 Frc consts  --     0.1413                 0.3555                 0.1667
 IR Inten    --   120.2576               107.3292               191.4668
 Raman Activ --     3.6152                11.3462                 1.9709

                    19                     20                     21
                     A                      A                      A
 Frequencies --   491.3066               572.9163               606.1029
 Red. masses --     3.7592                 3.7094                 5.6801
 Frc consts  --     0.5346                 0.7174                 1.2294
 IR Inten    --    25.1068                81.6598                 1.8837
 Raman Activ --     8.4499                 4.1041                 2.9637

                    22                     23                     24
                     A                      A                      A
 Frequencies --   640.1835               647.6258               887.1158
 Red. masses --     3.0361                 3.7074                 2.0682
 Frc consts  --     0.7331                 0.9161                 0.9590
 IR Inten    --    29.0454                35.7733                28.7973
 Raman Activ --     0.7251                 0.2396                 5.7373

                    25                     26                     27
                     A                      A                      A
 Frequencies --   972.1144               993.7970              1010.7509
 Red. masses --     6.9168                 4.7942                 4.4730
 Frc consts  --     3.8511                 2.7897                 2.6924
 IR Inten    --   510.1361                43.5547                68.7419
 Raman Activ --     5.7024                 5.1472                 8.4280

                    28                     29                     30
                     A                      A                      A
 Frequencies --  1027.8832              1041.8754              1072.9495
 Red. masses --     7.5412                 3.8543                 3.0360
 Frc consts  --     4.6944                 2.4651                 2.0592
 IR Inten    --   445.4100               171.5208                39.0551
 Raman Activ --     2.6982                 6.5000                 9.0750

                    31                     32                     33
                     A                      A                      A
 Frequencies --  1079.7697              1098.4376              1103.3888
 Red. masses --     3.0337                 2.9511                 2.5398
 Frc consts  --     2.0839                 2.0979                 1.8218
 IR Inten    --    59.2395               103.8115                50.8240
 Raman Activ --     7.0181                13.6356                 3.6793

                    34                     35                     36
                     A                      A                      A
 Frequencies --  1123.6835              1137.5512              1181.6731
 Red. masses --     2.9229                 2.4596                 1.9481
 Frc consts  --     2.1745                 1.8753                 1.6027
 IR Inten    --    10.4586                11.6445               155.4187
 Raman Activ --    25.8427                12.8947                13.0229

                    37                     38                     39
                     A                      A                      A
 Frequencies --  1205.4969              1218.0867              1245.8320
 Red. masses --     1.1625                 1.3131                 1.7096
 Frc consts  --     0.9953                 1.1479                 1.5634
 IR Inten    --    61.9327                 5.4492                 7.3552
 Raman Activ --     3.1772                 6.7548                10.8003

                    40                     41                     42
                     A                      A                      A
 Frequencies --  1248.5311              1270.3366              1314.1115
 Red. masses --     1.3058                 1.2033                 1.2813
 Frc consts  --     1.1992                 1.1441                 1.3037
 IR Inten    --    42.9087                23.4134                47.6165
 Raman Activ --     3.4558                 5.2113                 9.5476

                    43                     44                     45
                     A                      A                      A
 Frequencies --  1331.2312              1354.8506              1363.6102
 Red. masses --     1.2019                 1.3493                 1.3437
 Frc consts  --     1.2550                 1.4593                 1.4721
 IR Inten    --     8.0355                23.5585                14.6570
 Raman Activ --    13.3842                 5.3175                 5.6229

                    46                     47                     48
                     A                      A                      A
 Frequencies --  1381.2155              1382.2241              1390.9511
 Red. masses --     1.4077                 1.3072                 1.2266
 Frc consts  --     1.5822                 1.4715                 1.3982
 IR Inten    --    25.6903                43.6391                 6.5333
 Raman Activ --     9.1372                17.1381                 5.3219

                    49                     50                     51
                     A                      A                      A
 Frequencies --  1406.3099              1416.2601              1418.6423
 Red. masses --     1.3379                 1.2409                 1.2591
 Frc consts  --     1.5589                 1.4665                 1.4929
 IR Inten    --    89.0133                69.8371                48.0921
 Raman Activ --    13.6994                 7.1382                11.3034

                    52                     53                     54
                     A                      A                      A
 Frequencies --  1430.0838              1432.7677              1489.2141
 Red. masses --     1.4343                 1.4929                 1.1014
 Frc consts  --     1.7283                 1.8057                 1.4392
 IR Inten    --    68.4006                16.6919                 4.9211
 Raman Activ --     5.1919                 4.5511                16.0542

                    55                     56                     57
                     A                      A                      A
 Frequencies --  3015.7052              3037.2440              3046.3559
 Red. masses --     1.0824                 1.0844                 1.0631
 Frc consts  --     5.7999                 5.8940                 5.8130
 IR Inten    --    36.8831                29.9616                65.8991
 Raman Activ --   407.7125               452.1802               225.2243

                    58                     59                     60
                     A                      A                      A
 Frequencies --  3055.0065              3062.4519              3070.1791
 Red. masses --     1.0859                 1.0857                 1.0870
 Frc consts  --     5.9713                 5.9991                 6.0370
 IR Inten    --    23.5407                20.5449                99.8831
 Raman Activ --   422.3665               184.9890                73.3156

                    61                     62                     63
                     A                      A                      A
 Frequencies --  3115.7073              3697.0321              3697.9954
 Red. masses --     1.1033                 1.0664                 1.0661
 Frc consts  --     6.3107                 8.5880                 8.5898
 IR Inten    --    30.7072               128.8321                88.2845
 Raman Activ --   188.0543               155.0142               161.6525

                    64                     65                     66
                     A                      A                      A
 Frequencies --  3698.7095              3698.9446              3719.1380
 Red. masses --     1.0664                 1.0664                 1.0662
 Frc consts  --     8.5952                 8.5967                 8.6888
 IR Inten    --    98.0526                96.5307               104.3716
 Raman Activ --   102.4222               187.5909               163.0585

 - Thermochemistry -
 -------------------
 Temperature   298.150 Kelvin.  Pressure   1.00000 Atm.
 Atom     1 has atomic number  8 and mass  15.99491

 Molecular mass:   180.06339 amu.
 Principal axes and moments of inertia in atomic units:
                           1         2         3
     Eigenvalues --  1564.934192281.594213626.02587
           X            0.99994  -0.00953   0.00569
           Y            0.00949   0.99993   0.00694
           Z           -0.00576  -0.00688   0.99996
 This molecule is an asymmetric top.
 Rotational symmetry number  1.
 Warning -- assumption of classical behavior for rotation
           may cause significant error
 Rotational temperatures (Kelvin)      0.05535     0.03796     0.02389
 Rotational constants (GHZ):           1.15324     0.79100     0.49772
 Zero-point vibrational energy     515807.2 (Joules/Mol)
                                  123.28087 (Kcal/Mol)
 Warning -- explicit consideration of  21 degrees of freedom as
           vibrations may cause significant error
 Vibrational temperatures:     14.12   115.28   142.40   215.16   299.89
          (Kelvin)            371.34   384.02   414.83   451.46   487.56
                              545.98   553.03   558.49   577.47   608.06
                              610.19   651.47   672.06   706.88   824.30
                              872.05   921.08   931.79  1276.36  1398.65
                             1429.85  1454.24  1478.89  1499.02  1543.73
                             1553.55  1580.40  1587.53  1616.73  1636.68
                             1700.16  1734.44  1752.55  1792.47  1796.36
                             1827.73  1890.71  1915.34  1949.33  1961.93
                             1987.26  1988.71  2001.27  2023.36  2037.68
                             2041.11  2057.57  2061.43  2142.64  4338.92
                             4369.91  4383.02  4395.47  4406.18  4417.30
                             4482.80  5319.20  5320.58  5321.61  5321.95
                             5351.00

 Zero-point correction=                           0.196461 (Hartree/Particle)
 Thermal correction to Energy=                    0.208849
 Thermal correction to Enthalpy=                  0.209794
 Thermal correction to Gibbs Free Energy=         0.157040
 Sum of electronic and zero-point Energies=           -687.101394
 Sum of electronic and thermal Energies=              -687.089005
 Sum of electronic and thermal Enthalpies=            -687.088061
 Sum of electronic and thermal Free Energies=         -687.140814

                     E (Thermal)             CV                S
                      KCal/Mol        Cal/Mol-Kelvin    Cal/Mol-Kelvin
 Total                  131.055             47.349            111.028
 Electronic               0.000              0.000              0.000
 Translational            0.889              2.981             41.471
 Rotational               0.889              2.981             30.938
 Vibrational            129.278             41.388             38.619
 Vibration     1          0.593              1.987              8.048
 Vibration     2          0.600              1.963              3.888
 Vibration     3          0.604              1.950              3.474
 Vibration     4          0.618              1.903              2.678
 Vibration     5          0.642              1.828              2.057
 Vibration     6          0.667              1.749              1.675
 Vibration     7          0.672              1.734              1.616
 Vibration     8          0.685              1.695              1.484
 Vibration     9          0.702              1.647              1.342
 Vibration    10          0.719              1.598              1.217
 Vibration    11          0.749              1.514              1.041
 Vibration    12          0.753              1.504              1.022
 Vibration    13          0.756              1.495              1.007
 Vibration    14          0.767              1.467              0.958
 Vibration    15          0.785              1.421              0.883
 Vibration    16          0.786              1.418              0.878
 Vibration    17          0.811              1.355              0.787
 Vibration    18          0.824              1.323              0.746
 Vibration    19          0.847              1.269              0.680
 Vibration    20          0.929              1.090              0.499
 Vibration    21          0.965              1.019              0.439

 Normal termination of Gaussian 09 at Mon Mar 30 19:15:40 2015.
