 Gaussian 09, Revision B.01,
 Gaussian 09:  EM64L-G09RevB.01 12-Aug-2010

 -------------------------------------------------
 # freq=raman b3lyp/6-31+g(2d,p) geom=connectivity
 -------------------------------------------------

 -----------------
 500 8861/8861.com
 -----------------
 Symbolic Z-matrix:
 Charge =  0 Multiplicity = 1

                         Standard orientation:
 ---------------------------------------------------------------------
 Center     Atomic      Atomic             Coordinates (Angstroms)
 Number     Number       Type             X           Y           Z
 ---------------------------------------------------------------------
      1          8           0       -5.262206   -0.443185    0.330034
      2          6           0       -3.967211   -0.180155   -0.228081
      3          6           0       -3.542652    1.219390    0.186772
      4          8           0       -4.213742    2.263252   -0.533152
      5          1           0       -5.131632    1.958540   -0.790892
      6          6           0       -2.119821    1.707279   -0.032247
      7          8           0       -1.782801    2.717459    0.929643
      8          1           0       -2.155119    3.639935    0.828632
      9          6           0       -3.013315   -2.458265   -0.307970
     10          8           0       -2.063785   -3.498289   -0.033255
     11          1           0       -2.457138   -4.386228   -0.270578
     12          6           0       -2.867896   -1.079593    0.313944
     13          8           0       -1.587802   -0.697538   -0.210525
     14          6           0       -1.178406    0.569027    0.326035
     15          8           0        0.012696    0.544963   -0.474272
     16          6           0        1.298040    0.315292    0.120992
     17          6           0        1.736257   -1.108638   -0.178150
     18          8           0        0.785926   -2.168535    0.000960
     19          1           0       -0.080758   -1.718865   -0.211663
     20          6           0        3.103160   -1.505882    0.355167
     21          8           0        3.475669   -2.888782    0.257303
     22          1           0        2.563482   -3.298408    0.250749
     23          6           0        2.384480    2.615111   -0.038443
     24          8           0        3.503242    3.480917   -0.279533
     25          1           0        3.170038    4.414814   -0.143770
     26          6           0        2.471315    1.138169   -0.385689
     27          8           0        3.771484    0.722209    0.059303
     28          6           0        4.168773   -0.617388   -0.264375
     29          8           0        5.494533   -0.646078    0.284304
     30          1           0        6.132215   -0.464918   -0.410062
     31          1           0        4.198753   -0.750115   -1.325687
     32          1           0        3.090946   -1.276790    1.400283
     33          1           0        1.882309   -1.092246   -1.238009
     34          1           0        1.217360    0.440222    1.180607
     35          1           0        2.465186    1.063654   -1.453074
     36          1           0        2.154041    2.680751    1.004384
     37          1           0        1.552549    3.017390   -0.577853
     38          1           0       -5.927048   -0.377988   -0.359412
     39          1           0       -3.027689   -2.321623   -1.369112
     40          1           0       -3.974653   -2.830011   -0.020682
     41          1           0       -2.867509   -1.121175    1.383135
     42          1           0       -4.005812   -0.249974   -1.295103
     43          1           0       -3.772200    1.332698    1.225699
     44          1           0       -1.964772    2.047189   -1.034904
     45          1           0       -0.964599    0.515938    1.373111
 ---------------------------------------------------------------------

 SCF Done:  E(RB3LYP) =  -1297.94753810     A.U. after   14 cycles

 The electronic state is 1-A.
 Alpha  occ. eigenvalues --  -19.19827 -19.19294 -19.18066 -19.17748 -19.17458
 Alpha  occ. eigenvalues --  -19.16355 -19.14924 -19.14906 -19.14837 -19.14131
 Alpha  occ. eigenvalues --  -19.14062 -10.31337 -10.28150 -10.27917 -10.26850
 Alpha  occ. eigenvalues --  -10.26780 -10.26068 -10.25440 -10.24579 -10.24302
 Alpha  occ. eigenvalues --  -10.23224 -10.22895 -10.22608  -1.11508  -1.07840
 Alpha  occ. eigenvalues --   -1.06538  -1.05614  -1.03942  -1.03356  -1.02590
 Alpha  occ. eigenvalues --   -1.02019  -1.01401  -0.99902  -0.99503  -0.83111
 Alpha  occ. eigenvalues --   -0.81878  -0.78881  -0.77476  -0.72369  -0.69857
 Alpha  occ. eigenvalues --   -0.67901  -0.64956  -0.63295  -0.62555  -0.60734
 Alpha  occ. eigenvalues --   -0.59700  -0.57839  -0.57482  -0.55109  -0.54285
 Alpha  occ. eigenvalues --   -0.53471  -0.53195  -0.52819  -0.52067  -0.50898
 Alpha  occ. eigenvalues --   -0.50090  -0.49680  -0.48237  -0.47128  -0.46783
 Alpha  occ. eigenvalues --   -0.45909  -0.44851  -0.44555  -0.43531  -0.43249
 Alpha  occ. eigenvalues --   -0.43063  -0.42243  -0.40602  -0.40108  -0.39256
 Alpha  occ. eigenvalues --   -0.39121  -0.38080  -0.36939  -0.36421  -0.36223
 Alpha  occ. eigenvalues --   -0.35396  -0.34783  -0.34371  -0.33810  -0.33506
 Alpha  occ. eigenvalues --   -0.32988  -0.31928  -0.30695  -0.29910  -0.29410
 Alpha  occ. eigenvalues --   -0.29078  -0.28973  -0.27859  -0.27245  -0.25985
 Alpha  occ. eigenvalues --   -0.25403
 Alpha virt. eigenvalues --   -0.04315  -0.01756  -0.01193  -0.00154   0.00401
 Alpha virt. eigenvalues --    0.01023   0.01556   0.01901   0.02186   0.03194
 Alpha virt. eigenvalues --    0.03502   0.04065   0.04682   0.05016   0.05550

 Mulliken atomic charges:
              1
     1  O   -0.519330
     2  C   -0.227617
     3  C    0.277259
     4  O   -0.577333
     5  H    0.317762
     6  C    0.201298
     7  O   -0.584788
     8  H    0.356394
     9  C   -0.392340
    10  O   -0.540079
    11  H    0.345528
    12  C    0.430890
    13  O   -0.196952
    14  C    0.083470
    15  O   -0.276408
    16  C   -0.066839
    17  C    0.309514
    18  O   -0.605453
    19  H    0.412461
    20  C   -0.025705
    21  O   -0.536765
    22  H    0.356342
    23  C   -0.377235
    24  O   -0.498055
    25  H    0.326593
    26  C    0.018786
    27  O   -0.197017
    28  C    0.229669
    29  O   -0.500209
    30  H    0.325327
    31  H    0.112658
    32  H    0.116400
    33  H    0.095719
    34  H    0.107628
    35  H    0.110779
    36  H    0.133951
    37  H    0.141515
    38  H    0.331943
    39  H    0.137373
    40  H    0.143603
    41  H    0.126203
    42  H    0.130963
    43  H    0.144917
    44  H    0.151846
    45  H    0.145336
 Sum of Mulliken atomic charges =   0.00000

 Dipole moment (field-independent basis, Debye):
    X=             -9.8301    Y=              2.2405    Z=             -2.8724  Tot=             10.4834
 Quadrupole moment (field-independent basis, Debye-Ang):
   XX=           -131.6041   YY=           -131.6176   ZZ=           -137.1310
   XY=             10.1133   XZ=             -0.1262   YZ=              5.3580

  Exact polarizability: 229.072  -2.280 203.193   1.119   1.416 144.610
 Approx polarizability: 273.237  -1.910 263.071   1.752   2.471 239.358

 ******    7 imaginary frequencies (negative Signs) ******

                     1                      2                      3
                     A                      A                      A
 Frequencies --  -308.0572              -300.5819              -273.7124
 Red. masses --     1.1211                 1.6455                 1.7396
 Frc consts  --     0.0627                 0.0876                 0.0768
 IR Inten    --    91.6859                 7.7919                 3.6940
 Raman Activ --     1.4724                 0.2201                 0.0752

                     4                      5                      6
                     A                      A                      A
 Frequencies --  -241.2112               -97.4206               -68.0409
 Red. masses --     1.2397                 6.4437                 6.7397
 Frc consts  --     0.0425                 0.0360                 0.0184
 IR Inten    --    92.6854                 0.2778                 0.0329
 Raman Activ --     0.7426                 0.0477                 0.0264

                     7                      8                      9
                     A                      A                      A
 Frequencies --   -31.8700                29.7381                40.0333
 Red. masses --     6.7280                 6.3790                 5.9930
 Frc consts  --     0.0040                 0.0033                 0.0057
 IR Inten    --     0.0961                 0.9138                 2.1663
 Raman Activ --     0.0086                 0.0397                 0.0759

                    10                     11                     12
                     A                      A                      A
 Frequencies --    43.1273                93.8388               115.6127
 Red. masses --     7.2040                 6.7931                 5.8472
 Frc consts  --     0.0079                 0.0352                 0.0460
 IR Inten    --     0.3654                 0.8982                 1.7140
 Raman Activ --     0.0222                 0.1249                 0.6893

                    13                     14                     15
                     A                      A                      A
 Frequencies --   122.6712               152.5436               163.5719
 Red. masses --     6.1223                 6.2620                 5.8919
 Frc consts  --     0.0543                 0.0859                 0.0929
 IR Inten    --     0.0394                 2.5565                 2.5532
 Raman Activ --     0.0514                 0.8999                 0.2924

                    16                     17                     18
                     A                      A                      A
 Frequencies --   181.2488               201.6272               255.5230
 Red. masses --     6.3786                 6.9437                 5.8666
 Frc consts  --     0.1235                 0.1663                 0.2257
 IR Inten    --     0.3924                 0.4081                 3.9365
 Raman Activ --     1.2157                 1.1610                 0.6187

                    19                     20                     21
                     A                      A                      A
 Frequencies --   262.0995               270.2916               291.5812
 Red. masses --     4.5857                 4.5947                 5.2320
 Frc consts  --     0.1856                 0.1978                 0.2621
 IR Inten    --     6.6072                 9.3356                 1.1141
 Raman Activ --     0.1788                 0.5603                 1.0766

                    22                     23                     24
                     A                      A                      A
 Frequencies --   298.9660               326.2959               334.1800
 Red. masses --     5.3190                 6.9375                 6.5443
 Frc consts  --     0.2801                 0.4352                 0.4306
 IR Inten    --     1.4997                 2.4881                 0.6219
 Raman Activ --     0.9589                 0.7849                 4.1327

                    25                     26                     27
                     A                      A                      A
 Frequencies --   345.1194               348.0050               366.0445
 Red. masses --     6.0985                 5.2691                 4.6001
 Frc consts  --     0.4280                 0.3760                 0.3632
 IR Inten    --     8.4702                 2.9928                 1.4280
 Raman Activ --     1.7914                 4.3706                 0.5936

                    28                     29                     30
                     A                      A                      A
 Frequencies --   403.8934               413.6360               436.4588
 Red. masses --     6.9166                 4.1300                 4.7544
 Frc consts  --     0.6648                 0.4163                 0.5336
 IR Inten    --     9.4864                 4.0490                 1.0112
 Raman Activ --     4.4270                 2.9342                 1.2369

                    31                     32                     33
                     A                      A                      A
 Frequencies --   447.4044               479.2359               506.9189
 Red. masses --     3.7395                 4.7228                 3.6246
 Frc consts  --     0.4410                 0.6391                 0.5488
 IR Inten    --     3.2497                 7.3796                12.3131
 Raman Activ --     2.2643                 0.3261                 0.8538

                    34                     35                     36
                     A                      A                      A
 Frequencies --   525.2423               566.2562               572.2675
 Red. masses --     4.9666                 4.1593                 5.6920
 Frc consts  --     0.8073                 0.7858                 1.0983
 IR Inten    --    20.3251                20.6888                 7.4725
 Raman Activ --     5.7861                 1.1595                 2.9944

                    37                     38                     39
                     A                      A                      A
 Frequencies --   589.9938               598.6033               620.1917
 Red. masses --     3.1845                 2.8463                 3.3718
 Frc consts  --     0.6531                 0.6009                 0.7641
 IR Inten    --    13.0421                49.2707                17.5456
 Raman Activ --     1.4210                 1.0361                 0.8281

                    40                     41                     42
                     A                      A                      A
 Frequencies --   649.5601               668.4319               670.6614
 Red. masses --     2.7982                 1.2713                 1.0875
 Frc consts  --     0.6956                 0.3347                 0.2882
 IR Inten    --    42.6114               115.2859                58.6412
 Raman Activ --     0.7583                 0.6562                 2.0463

                    43                     44                     45
                     A                      A                      A
 Frequencies --   684.3404               705.5766               710.3464
 Red. masses --     2.4037                 1.2324                 1.0705
 Frc consts  --     0.6632                 0.3615                 0.3183
 IR Inten    --    37.4858                54.4827               107.4468
 Raman Activ --     1.7416                 1.0746                 2.0781

                    46                     47                     48
                     A                      A                      A
 Frequencies --   732.0220               794.4333               844.2522
 Red. masses --     1.1076                 1.0951                 2.6123
 Frc consts  --     0.3497                 0.4072                 1.0970
 IR Inten    --   120.3900                51.9450                15.8259
 Raman Activ --     0.8716                 1.8358                 2.1483

                    49                     50                     51
                     A                      A                      A
 Frequencies --   867.9649               921.9155               932.1507
 Red. masses --     2.7805                 4.9469                 6.1951
 Frc consts  --     1.2342                 2.4772                 3.1715
 IR Inten    --     4.7004               110.7301               111.2542
 Raman Activ --     6.5332                 6.7346                 0.6904

                    52                     53                     54
                     A                      A                      A
 Frequencies --   968.4568               977.4558               987.9253
 Red. masses --     5.2003                 3.8685                 4.8440
 Frc consts  --     2.8737                 2.1776                 2.7855
 IR Inten    --    60.7226                62.9660               113.3618
 Raman Activ --     1.6797                 2.3711                 3.2896

                    55                     56                     57
                     A                      A                      A
 Frequencies --   995.7934              1019.6515              1026.8375
 Red. masses --     5.8128                 5.2040                 4.8028
 Frc consts  --     3.3961                 3.1878                 2.9836
 IR Inten    --   165.7800               351.5075               128.0925
 Raman Activ --     3.8968                 0.7325                 3.0085

                    58                     59                     60
                     A                      A                      A
 Frequencies --  1034.1293              1040.0682              1061.2300
 Red. masses --     4.9688                 3.1050                 3.9690
 Frc consts  --     3.1308                 1.9790                 2.6336
 IR Inten    --   171.2212                19.4915                 6.5792
 Raman Activ --     2.2431                 4.7953                 4.0935

                    61                     62                     63
                     A                      A                      A
 Frequencies --  1063.4631              1067.3202              1074.8226
 Red. masses --     5.4071                 2.8260                 4.1461
 Frc consts  --     3.6030                 1.8967                 2.8221
 IR Inten    --     9.5198                11.9769                28.8602
 Raman Activ --    28.2443                 1.9999                 5.4829

                    64                     65                     66
                     A                      A                      A
 Frequencies --  1080.8038              1087.7433              1106.5576
 Red. masses --     4.1072                 2.4624                 2.4359
 Frc consts  --     2.8268                 1.7165                 1.7574
 IR Inten    --   127.8162                94.2846                 2.0553
 Raman Activ --     5.5901                 4.9444                11.3413

                    67                     68                     69
                     A                      A                      A
 Frequencies --  1114.4338              1124.7123              1129.2977
 Red. masses --     2.3777                 2.0585                 2.8925
 Frc consts  --     1.7399                 1.5342                 2.1734
 IR Inten    --    35.8912                 9.7374                22.1841
 Raman Activ --     4.2032                 4.2493                 4.9986

                    70                     71                     72
                     A                      A                      A
 Frequencies --  1149.4709              1153.9479              1160.7674
 Red. masses --     2.8020                 2.1488                 1.9574
 Frc consts  --     2.1813                 1.6858                 1.5539
 IR Inten    --     9.0202                15.3832                 3.1369
 Raman Activ --     1.6818                 3.1950                 2.5170

                    73                     74                     75
                     A                      A                      A
 Frequencies --  1164.2016              1169.1833              1182.0937
 Red. masses --     2.1205                 2.2188                 2.2786
 Frc consts  --     1.6934                 1.7870                 1.8759
 IR Inten    --    52.8201                51.9216                22.6409
 Raman Activ --     2.5653                 2.5502                 0.5054

                    76                     77                     78
                     A                      A                      A
 Frequencies --  1196.6256              1202.5501              1212.6393
 Red. masses --     1.3428                 1.2484                 1.3010
 Frc consts  --     1.1329                 1.0637                 1.1272
 IR Inten    --     2.7415                40.8202                21.2094
 Raman Activ --     2.0082                 0.7861                 1.5697

                    79                     80                     81
                     A                      A                      A
 Frequencies --  1219.9933              1232.9178              1243.7915
 Red. masses --     1.4103                 1.2584                 1.4600
 Frc consts  --     1.2368                 1.1270                 1.3308
 IR Inten    --    10.6456                16.4125                 3.4700
 Raman Activ --     1.9227                 1.7718                 3.0022

                    82                     83                     84
                     A                      A                      A
 Frequencies --  1272.2928              1281.8192              1292.0623
 Red. masses --     1.2399                 1.2423                 1.2025
 Frc consts  --     1.1825                 1.2027                 1.1828
 IR Inten    --    15.9894                10.9220                15.8924
 Raman Activ --     4.6150                 6.6740                 2.2873

                    85                     86                     87
                     A                      A                      A
 Frequencies --  1297.8572              1303.4835              1309.2875
 Red. masses --     1.3198                 1.5063                 1.2046
 Frc consts  --     1.3098                 1.5079                 1.2167
 IR Inten    --    83.1313                16.7390                 5.0625
 Raman Activ --     4.0380                 5.9345                 1.7768

                    88                     89                     90
                     A                      A                      A
 Frequencies --  1311.7069              1318.0010              1326.1624
 Red. masses --     1.4649                 1.3504                 1.2660
 Frc consts  --     1.4851                 1.3821                 1.3118
 IR Inten    --    21.7094                10.6494                17.5896
 Raman Activ --     1.5992                 6.2459                 1.1392

                    91                     92                     93
                     A                      A                      A
 Frequencies --  1327.1145              1343.0290              1346.5084
 Red. masses --     1.3574                 1.3458                 1.0943
 Frc consts  --     1.4086                 1.4302                 1.1690
 IR Inten    --     9.7049                 8.7743                42.4339
 Raman Activ --     2.8533                 1.6146                 3.4586

                    94                     95                     96
                     A                      A                      A
 Frequencies --  1353.9721              1355.9807              1367.2832
 Red. masses --     1.1428                 1.1796                 1.3809
 Frc consts  --     1.2343                 1.2779                 1.5211
 IR Inten    --    33.7894                 1.9515                15.6300
 Raman Activ --    10.0581                 2.9181                 8.4503

                    97                     98                     99
                     A                      A                      A
 Frequencies --  1384.6663              1390.6067              1395.5118
 Red. masses --     1.4280                 1.4261                 1.6481
 Frc consts  --     1.6132                 1.6248                 1.8910
 IR Inten    --     0.2749                22.9743                 4.4604
 Raman Activ --     2.1423                 6.1010                 8.1035

                   100                    101                    102
                     A                      A                      A
 Frequencies --  1409.8416              1441.2349              1455.7346
 Red. masses --     1.1229                 1.4578                 1.3723
 Frc consts  --     1.3150                 1.7841                 1.7134
 IR Inten    --     8.8181                59.8079                12.2104
 Raman Activ --     1.5452                 2.0806                 0.4036

                   103                    104                    105
                     A                      A                      A
 Frequencies --  1457.2956              1459.8605              1476.6513
 Red. masses --     1.0754                 1.0806                 1.3600
 Frc consts  --     1.3456                 1.3569                 1.7472
 IR Inten    --     1.9877                 3.9970                13.8889
 Raman Activ --     5.3390                 5.0711                 1.3284

                   106                    107                    108
                     A                      A                      A
 Frequencies --  1495.3630              1514.5566              3234.8320
 Red. masses --     1.3627                 1.3016                 1.0791
 Frc consts  --     1.7954                 1.7591                 6.6529
 IR Inten    --    36.0040               111.4624                33.4225
 Raman Activ --     1.0108                 1.9121                47.6501

                   109                    110                    111
                     A                      A                      A
 Frequencies --  3253.7014              3255.6381              3263.3888
 Red. masses --     1.0580                 1.0582                 1.0810
 Frc consts  --     6.5992                 6.6085                 6.7827
 IR Inten    --    34.3936                44.1980                10.2649
 Raman Activ --    89.6850                85.5941                63.5886

                   112                    113                    114
                     A                      A                      A
 Frequencies --  3265.9555              3282.2404              3283.8267
 Red. masses --     1.0820                 1.0861                 1.0840
 Frc consts  --     6.7999                 6.8940                 6.8870
 IR Inten    --     3.4006                 0.6987                 2.3837
 Raman Activ --   103.8466                54.2849               108.1043

                   115                    116                    117
                     A                      A                      A
 Frequencies --  3288.4891              3289.9067              3296.4719
 Red. masses --     1.0880                 1.0855                 1.0932
 Frc consts  --     6.9321                 6.9225                 6.9995
 IR Inten    --    94.7604                14.0170                13.0307
 Raman Activ --    15.4360                40.7890                29.6284

                   118                    119                    120
                     A                      A                      A
 Frequencies --  3303.3732              3305.0086              3308.2844
 Red. masses --     1.0830                 1.1013                 1.0882
 Frc consts  --     6.9627                 7.0875                 7.0174
 IR Inten    --   140.1783                78.5026               229.9873
 Raman Activ --    46.8090                55.0787                47.3367

                   121                    122                    123
                     A                      A                      A
 Frequencies --  3312.3787              3316.9740              3350.4435
 Red. masses --     1.0826                 1.0846                 1.0660
 Frc consts  --     6.9985                 7.0305                 7.0501
 IR Inten    --   203.0276               168.0353                10.8967
 Raman Activ --   134.7636                61.2801               142.7315

                   124                    125                    126
                     A                      A                      A
 Frequencies --  3357.7209              3364.4465              3373.3002
 Red. masses --     1.0669                 1.0647                 1.0678
 Frc consts  --     7.0872                 7.1005                 7.1592
 IR Inten    --    37.0701                32.9563                57.4151
 Raman Activ --   141.0886                34.5489               163.8609

                   127                    128                    129
                     A                      A                      A
 Frequencies --  3378.0049              3886.1890              3891.1164
 Red. masses --     1.0680                 1.0676                 1.0674
 Frc consts  --     7.1805                 9.5000                 9.5219
 IR Inten    --    68.3971                68.8366                75.3924
 Raman Activ --   160.2743               101.9088               121.4447

 - Thermochemistry -
 -------------------
 Temperature   298.150 Kelvin.  Pressure   1.00000 Atm.
 Atom     1 has atomic number  8 and mass  15.99491

 Molecular mass:   342.11621 amu.
 Principal axes and moments of inertia in atomic units:
                           1         2         3
     Eigenvalues --  4607.04743********************
           X            0.99997   0.00708  -0.00001
           Y           -0.00708   0.99997   0.00389
           Z            0.00004  -0.00389   0.99999
 This molecule is an asymmetric top.
 Rotational symmetry number  1.
 Warning -- assumption of classical behavior for rotation
           may cause significant error
 Rotational temperatures (Kelvin)      0.01880     0.00706     0.00526
 Rotational constants (GHZ):           0.39173     0.14704     0.10967
    7 imaginary frequencies ignored.
 Zero-point vibrational energy     971262.0 (Joules/Mol)
                                  232.13720 (Kcal/Mol)
 Warning -- explicit consideration of  32 degrees of freedom as
           vibrations may cause significant error
 Vibrational temperatures:     42.79    57.60    62.05   135.01   166.34
          (Kelvin)            176.50   219.48   235.34   260.78   290.10
                              367.64   377.10   388.89   419.52   430.14
                              469.47   480.81   496.55   500.70   526.66
                              581.11   595.13   627.97   643.71   689.51
                              729.34   755.71   814.72   823.36   848.87
                              861.26   892.32   934.57   961.72   964.93
                              984.61  1015.17  1022.03  1053.22  1143.01
                             1214.69  1248.81  1326.43  1341.16  1393.39
                             1406.34  1421.40  1432.72  1467.05  1477.39
                             1487.88  1496.42  1526.87  1530.08  1535.63
                             1546.43  1555.03  1565.02  1592.09  1603.42
                             1618.21  1624.81  1653.83  1660.27  1670.08
                             1675.02  1682.19  1700.77  1721.68  1730.20
                             1744.72  1755.30  1773.89  1789.54  1830.54
                             1844.25  1858.99  1867.32  1875.42  1883.77
                             1887.25  1896.31  1908.05  1909.42  1932.32
                             1937.32  1948.06  1950.95  1967.21  1992.22
                             2000.77  2007.83  2028.45  2073.61  2094.47
                             2096.72  2100.41  2124.57  2151.49  2179.11
                             4654.20  4681.34  4684.13  4695.28  4698.98
                             4722.41  4724.69  4731.40  4733.44  4742.88
                             4752.81  4755.16  4759.88  4765.77  4772.38
                             4820.53  4831.01  4840.68  4853.42  4860.19
                             5591.35  5598.44

 Zero-point correction=                           0.369934 (Hartree/Particle)
 Thermal correction to Energy=                    0.388755
 Thermal correction to Enthalpy=                  0.389699
 Thermal correction to Gibbs Free Energy=         0.322577
 Sum of electronic and zero-point Energies=          -1297.577604
 Sum of electronic and thermal Energies=             -1297.558783
 Sum of electronic and thermal Enthalpies=           -1297.557839
 Sum of electronic and thermal Free Energies=        -1297.624961

                     E (Thermal)             CV                S
                      KCal/Mol        Cal/Mol-Kelvin    Cal/Mol-Kelvin
 Total                  243.947             76.569            141.270
 Electronic               0.000              0.000              0.000
 Translational            0.889              2.981             43.384
 Rotational               0.889              2.981             35.186
 Vibrational            242.170             70.607             62.700
 Vibration     1          0.594              1.984              5.847
 Vibration     2          0.594              1.981              5.257
 Vibration     3          0.595              1.980              5.110
 Vibration     4          0.603              1.954              3.578
 Vibration     5          0.608              1.936              3.172
 Vibration     6          0.610              1.930              3.058
 Vibration     7          0.619              1.900              2.640
 Vibration     8          0.623              1.887              2.508
 Vibration     9          0.630              1.865              2.316
 Vibration    10          0.639              1.838              2.118
 Vibration    11          0.666              1.753              1.692
 Vibration    12          0.669              1.742              1.648
 Vibration    13          0.674              1.728              1.594
 Vibration    14          0.687              1.689              1.465
 Vibration    15          0.692              1.676              1.423
 Vibration    16          0.710              1.623              1.278
 Vibration    17          0.716              1.607              1.240
 Vibration    18          0.723              1.585              1.188
 Vibration    19          0.726              1.579              1.175
 Vibration    20          0.739              1.542              1.096
 Vibration    21          0.769              1.462              0.948
 Vibration    22          0.777              1.441              0.914
 Vibration    23          0.797              1.391              0.838
 Vibration    24          0.807              1.367              0.804
 Vibration    25          0.836              1.296              0.712
 Vibration    26          0.862              1.235              0.641
 Vibration    27          0.880              1.194              0.598
 Vibration    28          0.922              1.104              0.511
 Vibration    29          0.928              1.091              0.500
 Vibration    30          0.947              1.053              0.467
 Vibration    31          0.957              1.035              0.452
 Vibration    32          0.980              0.989              0.416

 Normal termination of Gaussian 09 at Sat Apr  2 16:09:38 2016.
