 Gaussian 09, Revision B.01,
 Gaussian 09:  EM64L-G09RevB.01 12-Aug-2010

 ----------------------------------------------------------------------
 # opt freq=raman b3lyp/6-31+g(2df,p) scrf=(smd,solvent=water) geom=con
 nectivity
 ----------------------------------------------------------------------

 --------------
 Furfural Raman
 --------------
 Symbolic Z-matrix:
 Charge =  0 Multiplicity = 1

 SCF Done:  E(RB3LYP) =  -341.370816256     A.U. after   14 cycles
 SCF Done:  E(RB3LYP) =  -342.159204845     A.U. after   15 cycles
 SCF Done:  E(RB3LYP) =  -343.030604600     A.U. after   15 cycles
 SCF Done:  E(RB3LYP) =  -343.378350794     A.U. after   14 cycles
 SCF Done:  E(RB3LYP) =  -343.388330109     A.U. after   12 cycles
 SCF Done:  E(RB3LYP) =  -343.390974967     A.U. after   12 cycles
 SCF Done:  E(RB3LYP) =  -343.394668073     A.U. after   12 cycles
 SCF Done:  E(RB3LYP) =  -343.396766832     A.U. after   12 cycles
 SCF Done:  E(RB3LYP) =  -343.397674142     A.U. after   11 cycles
 SCF Done:  E(RB3LYP) =  -343.398002063     A.U. after   10 cycles
 SCF Done:  E(RB3LYP) =  -343.398076041     A.U. after   10 cycles
 SCF Done:  E(RB3LYP) =  -343.398100628     A.U. after   10 cycles
 SCF Done:  E(RB3LYP) =  -343.398131714     A.U. after    9 cycles
 SCF Done:  E(RB3LYP) =  -343.398158395     A.U. after    9 cycles
 SCF Done:  E(RB3LYP) =  -343.398166085     A.U. after    9 cycles
 SCF Done:  E(RB3LYP) =  -343.398171520     A.U. after    8 cycles
 SCF Done:  E(RB3LYP) =  -343.398180785     A.U. after   10 cycles
 SCF Done:  E(RB3LYP) =  -343.398183266     A.U. after    8 cycles
 Optimization completed.
    -- Stationary point found.
 Normal termination of Gaussian 09 at Fri Mar 20 16:03:43 2015.

 ----------------------------------------------------------------------
 #N Geom=AllCheck Guess=TCheck SCRF=Check GenChk RB3LYP/6-31+G(2df,p) F
 req
 ----------------------------------------------------------------------

 Furfural Raman
 --------------
 Redundant internal coordinates taken from checkpoint file:
 furfural_raman.chk
 Charge =  0 Multiplicity = 1

                         Standard orientation:
 ---------------------------------------------------------------------
 Center     Atomic      Atomic             Coordinates (Angstroms)
 Number     Number       Type             X           Y           Z
 ---------------------------------------------------------------------
      1          6           0        0.000000    0.293375    0.000000
      2          8           0        1.235649   -0.329892    0.000000
      3          6           0       -0.989932   -0.661600    0.000000
      4          6           0        0.010457    1.730861    0.000000
      5          6           0        1.003196   -1.660412    0.000000
      6          6           0       -0.340622   -1.922599    0.000000
      7          8           0       -1.003020    2.428802    0.000000
      8          1           0       -2.051999   -0.467867    0.000000
      9          1           0        1.013760    2.190398    0.000000
     10          1           0        1.878348   -2.292370    0.000000
     11          1           0       -0.799738   -2.899187    0.000000
 ---------------------------------------------------------------------

 SCF Done:  E(RB3LYP) =  -343.398183266     A.U. after    2 cycles

 The electronic state is 1-A'.
 Alpha  occ. eigenvalues --  -19.23310 -19.15446 -10.28473 -10.25821 -10.25055
 Alpha  occ. eigenvalues --  -10.21292 -10.20191  -1.13196  -1.05206  -0.82126
 Alpha  occ. eigenvalues --   -0.78324  -0.65860  -0.61354  -0.56902  -0.53357
 Alpha  occ. eigenvalues --   -0.48516  -0.47666  -0.45049  -0.42243  -0.41567
 Alpha  occ. eigenvalues --   -0.40161  -0.39429  -0.30239  -0.28028  -0.25297
 Alpha virt. eigenvalues --   -0.07854   0.01525   0.01595   0.02873   0.03610
 Alpha virt. eigenvalues --    0.04846   0.04958   0.05360   0.06744   0.07407
 Alpha virt. eigenvalues --    0.09614   0.09769   0.10436   0.10475   0.12501

 Mulliken atomic charges:
              1
     1  C    0.173314
     2  O    0.006101
     3  C    0.040824
     4  C   -0.371116
     5  C   -0.109281
     6  C   -0.226942
     7  O   -0.367852
     8  H    0.220421
     9  H    0.189653
    10  H    0.232203
    11  H    0.212676
 Sum of Mulliken atomic charges =   0.00000

 Dipole moment (field-independent basis, Debye):
    X=              2.2103    Y=             -5.4796    Z=              0.0000  Tot=              5.9086
 Quadrupole moment (field-independent basis, Debye-Ang):
   XX=            -38.6341   YY=            -42.3530   ZZ=            -41.5001
   XY=              6.0746   XZ=              0.0000   YZ=              0.0000

  Exact polarizability:  96.571 -14.096 147.385   0.000   0.000  52.757
 Approx polarizability: 110.193 -16.317 159.485   0.000   0.000  56.499

                     1                      2                      3
                    A"                     A'                     A"
 Frequencies --   162.3940               210.4817               252.3001
 Red. masses --     5.2033                 5.7821                 2.3606
 Frc consts  --     0.0808                 0.1509                 0.0885
 IR Inten    --     4.2573                15.5341                34.1296
 Raman Activ --     2.0404                 2.2816                 4.3558

                     4                      5                      6
                    A'                     A"                     A"
 Frequencies --   497.9002               598.0366               643.1690
 Red. masses --     9.1089                 2.7277                 5.0726
 Frc consts  --     1.3305                 0.5748                 1.2363
 IR Inten    --     4.1455                22.8929                 0.0129
 Raman Activ --    16.5044                 0.7058                 1.5001

                     7                      8                      9
                    A'                     A"                     A"
 Frequencies --   748.0916               793.8765               881.4875
 Red. masses --     5.2347                 1.2191                 1.3413
 Frc consts  --     1.7260                 0.4527                 0.6140
 IR Inten    --   168.0920               114.5898                 2.2220
 Raman Activ --    11.9455                15.0376                 7.1413

                    10                     11                     12
                    A'                     A"                     A'
 Frequencies --   889.5786               933.0570               949.3970
 Red. masses --     6.2175                 1.4022                 3.2688
 Frc consts  --     2.8989                 0.7193                 1.7360
 IR Inten    --    18.5067                 2.8089                11.6267
 Raman Activ --    18.0593                 2.7392                45.0658

                    13                     14                     15
                    A"                     A'                     A'
 Frequencies --  1019.8274              1029.1027              1084.0611
 Red. masses --     1.7755                 1.2678                 4.2412
 Frc consts  --     1.0880                 0.7911                 2.9366
 IR Inten    --     0.2656                97.9423               133.0954
 Raman Activ --     4.7871                27.2945                81.6156

                    16                     17                     18
                    A'                     A'                     A'
 Frequencies --  1156.6540              1206.0725              1269.6229
 Red. masses --     1.7705                 3.3337                 1.7910
 Frc consts  --     1.3956                 2.8571                 1.7009
 IR Inten    --    29.2625                 9.6567                49.5646
 Raman Activ --   114.4418                 5.5027                16.7554

                    19                     20                     21
                    A'                     A'                     A'
 Frequencies --  1390.2478              1424.4426              1473.6278
 Red. masses --     1.9667                 1.8860                 3.8892
 Frc consts  --     2.2397                 2.2546                 4.9760
 IR Inten    --   119.1053                25.7006               461.1326
 Raman Activ --   397.1335                27.6993              1010.6626

                    22                     23                     24
                    A'                     A'                     A'
 Frequencies --  1593.5160              1656.9670              2995.1116
 Red. masses --     6.0021                 7.6219                 1.0845
 Frc consts  --     8.9797                12.3294                 5.7322
 IR Inten    --   297.3120               842.6021                91.9030
 Raman Activ --   153.8773               631.1309               362.0599

                    25                     26                     27
                    A'                     A'                     A'
 Frequencies --  3260.2794              3270.0792              3286.6738
 Red. masses --     1.0916                 1.0979                 1.1070
 Frc consts  --     6.8363                 6.9174                 7.0455
 IR Inten    --     0.3799                 5.1218                 1.9458
 Raman Activ --   205.9386               125.0687               386.6208

 - Thermochemistry -
 -------------------
 Temperature   298.150 Kelvin.  Pressure   1.00000 Atm.
 Atom     1 has atomic number  6 and mass  12.00000

 Molecular mass:    96.02113 amu.
 Principal axes and moments of inertia in atomic units:
                           1         2         3
     Eigenvalues --   220.33652 885.606731105.94325
           X           -0.26942   0.96302   0.00000
           Y            0.96302   0.26942   0.00000
           Z            0.00000   0.00000   1.00000
 This molecule is an asymmetric top.
 Rotational symmetry number  1.
 Rotational temperatures (Kelvin)      0.39310     0.09780     0.07832
 Rotational constants (GHZ):           8.19084     2.03786     1.63186
 Zero-point vibrational energy     207408.9 (Joules/Mol)
                                   49.57191 (Kcal/Mol)
 Warning -- explicit consideration of   5 degrees of freedom as
           vibrations may cause significant error
 Vibrational temperatures:    233.65   302.84   363.00   716.37   860.44
          (Kelvin)            925.38  1076.34  1142.21  1268.26  1279.90
                             1342.46  1365.97  1467.30  1480.65  1559.72
                             1664.16  1735.27  1826.70  2000.25  2049.45
                             2120.22  2292.71  2384.00  4309.29  4690.81
                             4704.91  4728.78

 Zero-point correction=                           0.078998 (Hartree/Particle)
 Thermal correction to Energy=                    0.084554
 Thermal correction to Enthalpy=                  0.085499
 Thermal correction to Gibbs Free Energy=         0.049551
 Sum of electronic and zero-point Energies=           -343.319185
 Sum of electronic and thermal Energies=              -343.313629
 Sum of electronic and thermal Enthalpies=            -343.312685
 Sum of electronic and thermal Free Energies=         -343.348632

                     E (Thermal)             CV                S
                      KCal/Mol        Cal/Mol-Kelvin    Cal/Mol-Kelvin
 Total                   53.059             19.982             75.658
 Electronic               0.000              0.000              0.000
 Translational            0.889              2.981             39.597
 Rotational               0.889              2.981             26.870
 Vibrational             51.281             14.020              9.191
 Vibration     1          0.623              1.889              2.522
 Vibration     2          0.643              1.825              2.039
 Vibration     3          0.664              1.759              1.714
 Vibration     4          0.853              1.255              0.663
 Vibration     5          0.956              1.036              0.453

 Normal termination of Gaussian 09 at Fri Mar 20 16:40:00 2015.
