 Gaussian 09, Revision B.01,
 Gaussian 09:  EM64L-G09RevB.01 12-Aug-2010

 -------------------------------------------------
 # freq=raman b3lyp/6-31+g(2d,p) geom=connectivity
 -------------------------------------------------

 -----------------
 400 8312/8312.com
 -----------------
 Symbolic Z-matrix:
 Charge =  0 Multiplicity = 1

                         Standard orientation:
 ---------------------------------------------------------------------
 Center     Atomic      Atomic             Coordinates (Angstroms)
 Number     Number       Type             X           Y           Z
 ---------------------------------------------------------------------
      1          8           0        5.090512    0.226026    0.440027
      2          6           0        3.790292    0.075458   -0.149096
      3          6           0        3.232044   -1.280443    0.250089
      4          8           0        4.112345   -2.281589   -0.280228
      5          1           0        5.048603   -2.120407    0.033733
      6          6           0        1.848548   -1.484558   -0.346233
      7          8           0        1.346919   -2.665470    0.297542
      8          1           0        0.365097   -2.796462    0.160518
      9          6           0        3.029560    2.572046    0.006834
     10          8           0        4.329721    3.160633    0.151250
     11          1           0        4.190731    4.129854   -0.053505
     12          6           0        2.818787    1.114337    0.385477
     13          8           0        1.512897    0.957747   -0.188135
     14          6           0        0.945465   -0.335457    0.070275
     15          8           0       -0.292303   -0.338770   -0.655215
     16          6           0       -1.519146   -0.225430    0.080241
     17          6           0       -2.133933    1.106890   -0.316937
     18          8           0       -1.119379    2.118051   -0.240475
     19          1           0       -0.312915    1.893857   -0.787375
     20          6           0       -3.507404    1.569269    0.141504
     21          8           0       -3.991843    2.890742   -0.141635
     22          1           0       -4.776720    2.985066    0.471308
     23          6           0       -2.382614   -2.571550    0.313639
     24          8           0       -1.171637   -3.206976   -0.122849
     25          1           0       -1.293908   -4.198695   -0.089845
     26          6           0       -2.543695   -1.240001   -0.400986
     27          8           0       -3.870754   -0.969762    0.072232
     28          6           0       -4.348110    0.353667   -0.210846
     29          8           0       -5.411757    0.404752    0.751327
     30          1           0       -6.254055    0.298606    0.303145
     31          1           0        5.759893    0.183527   -0.246795
     32          1           0        2.350094    3.154305    0.593521
     33          1           0        2.744659    2.678388   -1.019042
     34          1           0        2.753735    1.027870    1.449992
     35          1           0        3.857320    0.147018   -1.214595
     36          1           0        3.187334   -1.359237    1.316247
     37          1           0        1.886032   -1.597830   -1.409560
     38          1           0        0.735894   -0.420470    1.116101
     39          1           0       -4.733235    0.422345   -1.206769
     40          1           0       -3.449230    1.552459    1.209789
     41          1           0       -2.279555    0.987133   -1.370195
     42          1           0       -1.360231   -0.289137    1.136455
     43          1           0       -2.520982   -1.359275   -1.464075
     44          1           0       -3.217408   -3.201221    0.086634
     45          1           0       -2.337690   -2.406129    1.369820
 ---------------------------------------------------------------------

 SCF Done:  E(RB3LYP) =  -1297.96399714     A.U. after   13 cycles

 The electronic state is 1-A.
 Alpha  occ. eigenvalues --  -19.18930 -19.18563 -19.18136 -19.17506 -19.17225
 Alpha  occ. eigenvalues --  -19.17091 -19.16205 -19.15190 -19.14533 -19.13376
 Alpha  occ. eigenvalues --  -19.12280 -10.30447 -10.29807 -10.26212 -10.25718
 Alpha  occ. eigenvalues --  -10.25380 -10.25156 -10.24731 -10.24236 -10.24222
 Alpha  occ. eigenvalues --  -10.23723 -10.23405 -10.22893  -1.09858  -1.09135
 Alpha  occ. eigenvalues --   -1.05859  -1.04797  -1.03912  -1.03722  -1.02423
 Alpha  occ. eigenvalues --   -1.01755  -1.01285  -1.00107  -0.99189  -0.82260
 Alpha  occ. eigenvalues --   -0.80224  -0.79529  -0.77904  -0.71932  -0.69080
 Alpha  occ. eigenvalues --   -0.67029  -0.64680  -0.63484  -0.61563  -0.61096
 Alpha  occ. eigenvalues --   -0.59853  -0.56409  -0.56236  -0.54880  -0.54619
 Alpha  occ. eigenvalues --   -0.53135  -0.53065  -0.52857  -0.51461  -0.51203
 Alpha  occ. eigenvalues --   -0.50821  -0.49812  -0.48717  -0.48056  -0.46741
 Alpha  occ. eigenvalues --   -0.45769  -0.44985  -0.43896  -0.42995  -0.42774
 Alpha  occ. eigenvalues --   -0.41922  -0.41495  -0.40671  -0.40314  -0.39225
 Alpha  occ. eigenvalues --   -0.38939  -0.37996  -0.37560  -0.36003  -0.35272
 Alpha  occ. eigenvalues --   -0.35224  -0.34869  -0.33519  -0.33263  -0.32588
 Alpha  occ. eigenvalues --   -0.32190  -0.31410  -0.30703  -0.30573  -0.29508
 Alpha  occ. eigenvalues --   -0.28887  -0.28472  -0.27748  -0.27330  -0.26393
 Alpha  occ. eigenvalues --   -0.25605
 Alpha virt. eigenvalues --   -0.01948  -0.01480  -0.01219  -0.00276   0.00043
 Alpha virt. eigenvalues --    0.00645   0.01822   0.02358   0.02534   0.03610
 Alpha virt. eigenvalues --    0.03876   0.04265   0.05010   0.05316   0.05787

 Mulliken atomic charges:
              1
     1  O   -0.552381
     2  C   -0.049473
     3  C    0.282436
     4  O   -0.578774
     5  H    0.338526
     6  C   -0.087394
     7  O   -0.603971
     8  H    0.440634
     9  C   -0.215078
    10  O   -0.519577
    11  H    0.329010
    12  C    0.133653
    13  O   -0.239768
    14  C    0.060448
    15  O   -0.247770
    16  C    0.498538
    17  C    0.328317
    18  O   -0.555486
    19  H    0.361791
    20  C   -0.193682
    21  O   -0.529685
    22  H    0.340470
    23  C   -0.215153
    24  O   -0.574268
    25  H    0.362799
    26  C   -0.368168
    27  O   -0.185103
    28  C    0.317497
    29  O   -0.524994
    30  H    0.323613
    31  H    0.337643
    32  H    0.148460
    33  H    0.137979
    34  H    0.108882
    35  H    0.121603
    36  H    0.130110
    37  H    0.132993
    38  H    0.117380
    39  H    0.127868
    40  H    0.123480
    41  H    0.094266
    42  H    0.111863
    43  H    0.129470
    44  H    0.142398
    45  H    0.158598
 Sum of Mulliken atomic charges =   0.00000

 Dipole moment (field-independent basis, Debye):
    X=             -3.6073    Y=             -1.1142    Z=             -1.2629  Tot=              3.9811
 Quadrupole moment (field-independent basis, Debye-Ang):
   XX=           -118.7401   YY=           -137.0406   ZZ=           -137.0380
   XY=             13.9572   XZ=             -2.8566   YZ=             -0.2013

  Exact polarizability: 234.831  -1.773 196.921  -2.388  -0.629 143.531
 Approx polarizability: 275.562  -1.184 257.445  -3.702  -1.288 239.876

 ******    8 imaginary frequencies (negative Signs) ******

                     1                      2                      3
                     A                      A                      A
 Frequencies --  -275.6503              -257.8517              -222.9366
 Red. masses --     1.4405                 1.3934                 1.1383
 Frc consts  --     0.0645                 0.0546                 0.0333
 IR Inten    --    59.0378                62.7738                87.6908
 Raman Activ --     0.4682                 0.5951                 1.3612

                     4                      5                      6
                     A                      A                      A
 Frequencies --  -139.2364              -102.2438               -74.9989
 Red. masses --     2.3770                 5.0290                 7.0906
 Frc consts  --     0.0272                 0.0310                 0.0235
 IR Inten    --     1.8549                 1.2288                 1.4831
 Raman Activ --     0.1704                 0.0768                 0.0199

                     7                      8                      9
                     A                      A                      A
 Frequencies --   -34.0391               -19.9864                58.4779
 Red. masses --     6.5018                 6.2362                 6.2464
 Frc consts  --     0.0044                 0.0015                 0.0126
 IR Inten    --     0.6514                 0.5588                 1.2983
 Raman Activ --     0.0223                 0.0235                 0.0815

                    10                     11                     12
                     A                      A                      A
 Frequencies --    75.7259                83.2964                93.5429
 Red. masses --     5.5834                 6.2731                 6.4906
 Frc consts  --     0.0189                 0.0256                 0.0335
 IR Inten    --     3.9344                 0.5095                 0.9806
 Raman Activ --     0.1410                 0.1133                 0.1818

                    13                     14                     15
                     A                      A                      A
 Frequencies --   155.3039               167.1913               189.3740
 Red. masses --     6.5006                 6.2174                 6.9821
 Frc consts  --     0.0924                 0.1024                 0.1475
 IR Inten    --     0.9599                 0.7461                 5.6164
 Raman Activ --     0.5909                 0.5331                 0.5443

                    16                     17                     18
                     A                      A                      A
 Frequencies --   216.1780               233.1187               255.2703
 Red. masses --     6.7937                 5.9371                 5.7353
 Frc consts  --     0.1871                 0.1901                 0.2202
 IR Inten    --     0.4482                 0.6275                 1.4637
 Raman Activ --     2.7939                 0.3486                 0.2475

                    19                     20                     21
                     A                      A                      A
 Frequencies --   278.2661               306.3412               311.7143
 Red. masses --     4.3625                 4.5715                 4.8907
 Frc consts  --     0.1990                 0.2528                 0.2800
 IR Inten    --    16.9819                 0.0538                 1.6984
 Raman Activ --     0.2926                 0.1803                 0.7142

                    22                     23                     24
                     A                      A                      A
 Frequencies --   314.6973               334.5644               337.8477
 Red. masses --     5.7323                 6.6504                 5.9577
 Frc consts  --     0.3345                 0.4386                 0.4007
 IR Inten    --     2.9868                 3.7345                 1.8857
 Raman Activ --     1.7786                 1.5046                 1.1415

                    25                     26                     27
                     A                      A                      A
 Frequencies --   353.7193               371.6124               391.8791
 Red. masses --     5.3853                 4.4110                 9.0736
 Frc consts  --     0.3970                 0.3589                 0.8210
 IR Inten    --     7.2732                 3.4349                 2.2032
 Raman Activ --     5.6936                 0.3853                 1.6946

                    28                     29                     30
                     A                      A                      A
 Frequencies --   411.1265               429.2907               442.9404
 Red. masses --     4.9007                 4.0785                 6.6214
 Frc consts  --     0.4880                 0.4428                 0.7654
 IR Inten    --    12.5084                 3.2946                 0.2701
 Raman Activ --     2.1129                 3.0837                 1.2468

                    31                     32                     33
                     A                      A                      A
 Frequencies --   452.2137               484.6868               494.2388
 Red. masses --     4.6969                 4.1972                 3.9850
 Frc consts  --     0.5659                 0.5809                 0.5735
 IR Inten    --     0.2524                 6.9612                19.3568
 Raman Activ --     2.1918                 3.4211                 0.2306

                    34                     35                     36
                     A                      A                      A
 Frequencies --   498.1555               541.4047               575.1269
 Red. masses --     4.7876                 3.2573                 3.9482
 Frc consts  --     0.7000                 0.5625                 0.7694
 IR Inten    --     2.5331                23.5472                18.2557
 Raman Activ --     4.4441                 3.1041                 1.7112

                    37                     38                     39
                     A                      A                      A
 Frequencies --   599.2432               607.6615               630.9859
 Red. masses --     3.8304                 3.4882                 5.2473
 Frc consts  --     0.8104                 0.7589                 1.2309
 IR Inten    --    19.2210                33.1221                 4.1520
 Raman Activ --     0.2043                 1.1431                 0.2097

                    40                     41                     42
                     A                      A                      A
 Frequencies --   645.1998               700.7825               725.4890
 Red. masses --     4.2397                 5.4969                 1.0881
 Frc consts  --     1.0398                 1.5905                 0.3374
 IR Inten    --    26.8725                14.0973               101.8837
 Raman Activ --     1.7038                 0.5788                 1.6950

                    43                     44                     45
                     A                      A                      A
 Frequencies --   730.2983               740.3377               748.6156
 Red. masses --     1.0845                 1.0909                 1.0748
 Frc consts  --     0.3408                 0.3523                 0.3549
 IR Inten    --    76.2391               107.1004               206.7724
 Raman Activ --     1.6822                 1.7708                 5.0203

                    46                     47                     48
                     A                      A                      A
 Frequencies --   757.4190               857.2680               858.2140
 Red. masses --     1.0521                 1.3452                 1.6709
 Frc consts  --     0.3556                 0.5824                 0.7251
 IR Inten    --    77.0909                18.5608                16.9735
 Raman Activ --     1.6328                 0.4010                 2.7593

                    49                     50                     51
                     A                      A                      A
 Frequencies --   892.3831               924.5201               949.0508
 Red. masses --     1.2897                 5.6508                 6.5787
 Frc consts  --     0.6051                 2.8457                 3.4912
 IR Inten    --    30.5922               103.7116                64.5650
 Raman Activ --     0.4304                 3.0231                 0.3594

                    52                     53                     54
                     A                      A                      A
 Frequencies --   976.7152               984.4230               992.1962
 Red. masses --     6.8094                 4.8538                 5.8295
 Frc consts  --     3.8273                 2.7714                 3.3812
 IR Inten    --    47.3957                33.6322               184.3313
 Raman Activ --     0.6090                 1.3141                 1.9367

                    55                     56                     57
                     A                      A                      A
 Frequencies --   995.8824              1013.9082              1025.5227
 Red. masses --     4.8928                 6.5068                 7.4378
 Frc consts  --     2.8591                 3.9411                 4.6088
 IR Inten    --   257.3828                27.8087               251.6032
 Raman Activ --     4.6496                 2.5172                 4.5374

                    58                     59                     60
                     A                      A                      A
 Frequencies --  1032.0442              1049.9436              1058.3282
 Red. masses --     5.1731                 3.9254                 3.3772
 Frc consts  --     3.2464                 2.5496                 2.2287
 IR Inten    --   149.4531                52.3390                68.3394
 Raman Activ --     2.7602                 3.9149                22.1510

                    61                     62                     63
                     A                      A                      A
 Frequencies --  1063.3518              1071.6618              1078.3684
 Red. masses --     6.3879                 3.4912                 2.2473
 Frc consts  --     4.2556                 2.3623                 1.5397
 IR Inten    --    16.5466                93.6782                73.0385
 Raman Activ --     1.1008                 2.5259                10.5825

                    64                     65                     66
                     A                      A                      A
 Frequencies --  1083.8705              1101.6216              1103.5783
 Red. masses --     3.6872                 2.5858                 2.5701
 Frc consts  --     2.5522                 1.8489                 1.8442
 IR Inten    --    96.8890                81.7937                51.0117
 Raman Activ --    12.8895                 3.6095                 7.8534

                    67                     68                     69
                     A                      A                      A
 Frequencies --  1109.3828              1117.1398              1130.0638
 Red. masses --     2.7790                 2.6809                 1.9179
 Frc consts  --     2.0152                 1.9712                 1.4430
 IR Inten    --    22.2157                12.3732                16.3714
 Raman Activ --     6.3297                 4.4915                 5.7161

                    70                     71                     72
                     A                      A                      A
 Frequencies --  1134.4137              1139.1349              1147.3042
 Red. masses --     2.6628                 1.9855                 2.2097
 Frc consts  --     2.0190                 1.5180                 1.7137
 IR Inten    --    65.9031                38.0861                42.8846
 Raman Activ --     1.2744                 5.2055                 2.1939

                    73                     74                     75
                     A                      A                      A
 Frequencies --  1154.8639              1169.0884              1173.1166
 Red. masses --     1.7007                 1.7914                 1.9510
 Frc consts  --     1.3364                 1.4426                 1.5819
 IR Inten    --    32.8383                 5.9644                25.7323
 Raman Activ --     2.8774                 2.7356                 2.3295

                    76                     77                     78
                     A                      A                      A
 Frequencies --  1196.6486              1201.0525              1211.7829
 Red. masses --     1.4926                 1.2770                 1.2631
 Frc consts  --     1.2593                 1.0854                 1.0928
 IR Inten    --    17.7680                 7.1244                 6.4989
 Raman Activ --     4.7377                 0.3648                 1.8661

                    79                     80                     81
                     A                      A                      A
 Frequencies --  1228.2150              1240.7972              1242.7574
 Red. masses --     1.3830                 1.2841                 1.3239
 Frc consts  --     1.2292                 1.1648                 1.2047
 IR Inten    --     2.8496                 8.0150                 1.1373
 Raman Activ --     3.2622                 1.4344                 0.7772

                    82                     83                     84
                     A                      A                      A
 Frequencies --  1252.8380              1268.4857              1276.6889
 Red. masses --     1.3284                 1.2972                 1.3317
 Frc consts  --     1.2285                 1.2298                 1.2789
 IR Inten    --     7.0449                23.6385                 7.7223
 Raman Activ --     4.2256                 3.4933                 1.1301

                    85                     86                     87
                     A                      A                      A
 Frequencies --  1286.6512              1287.7418              1299.8301
 Red. masses --     1.3228                 1.2306                 1.2118
 Frc consts  --     1.2902                 1.2024                 1.2063
 IR Inten    --    45.7807                21.7129                 0.4700
 Raman Activ --     5.0225                 4.2225                 8.0490

                    88                     89                     90
                     A                      A                      A
 Frequencies --  1311.6656              1327.7492              1332.3815
 Red. masses --     1.2571                 1.3198                 1.3476
 Frc consts  --     1.2743                 1.3708                 1.4095
 IR Inten    --     4.5637                11.7857                82.0513
 Raman Activ --     4.9921                 2.2909                 1.5014

                    91                     92                     93
                     A                      A                      A
 Frequencies --  1334.7869              1347.7946              1352.1594
 Red. masses --     1.2238                 1.0914                 1.5967
 Frc consts  --     1.2847                 1.1681                 1.7200
 IR Inten    --    14.2854                35.9510                 8.8785
 Raman Activ --     2.7025                 1.6683                 8.1261

                    94                     95                     96
                     A                      A                      A
 Frequencies --  1358.0695              1361.2171              1376.8434
 Red. masses --     1.4469                 1.3227                 1.4900
 Frc consts  --     1.5723                 1.4440                 1.6643
 IR Inten    --     3.1360                23.8075                17.8699
 Raman Activ --     4.6996                 1.6833                 6.5457

                    97                     98                     99
                     A                      A                      A
 Frequencies --  1388.6448              1400.2301              1408.0333
 Red. masses --     1.4817                 1.6305                 1.1321
 Frc consts  --     1.6834                 1.8835                 1.3224
 IR Inten    --    10.0282                10.8750                24.6950
 Raman Activ --     9.5657                 6.3199                 4.4781

                   100                    101                    102
                     A                      A                      A
 Frequencies --  1417.8686              1439.2837              1448.1006
 Red. masses --     1.4641                 1.2936                 1.4397
 Frc consts  --     1.7341                 1.5789                 1.7787
 IR Inten    --    40.1964                19.2519                27.9518
 Raman Activ --     1.4852                 2.8067                 1.2095

                   103                    104                    105
                     A                      A                      A
 Frequencies --  1475.1741              1477.3908              1480.1510
 Red. masses --     1.0785                 1.0765                 1.3365
 Frc consts  --     1.3828                 1.3844                 1.7251
 IR Inten    --     1.0979                 2.3666                32.8010
 Raman Activ --     4.8151                 4.3313                 4.3532

                   106                    107                    108
                     A                      A                      A
 Frequencies --  1493.0776              1499.4169              3226.3440
 Red. masses --     1.3832                 1.2276                 1.0698
 Frc consts  --     1.8168                 1.6261                 6.5612
 IR Inten    --    12.9951                36.9543              1134.9277
 Raman Activ --     0.7374                 0.8862               186.6299

                   109                    110                    111
                     A                      A                      A
 Frequencies --  3233.0899              3256.4177              3263.1066
 Red. masses --     1.0789                 1.0570                 1.0827
 Frc consts  --     6.6443                 6.6040                 6.7926
 IR Inten    --    68.1189                40.8593                14.9788
 Raman Activ --    65.3666                72.0543                54.0742

                   112                    113                    114
                     A                      A                      A
 Frequencies --  3266.2699              3277.0629              3281.0169
 Red. masses --     1.0565                 1.0849                 1.0853
 Frc consts  --     6.6406                 6.8642                 6.8839
 IR Inten    --     9.1848                 4.8836                 6.1651
 Raman Activ --   146.9398                49.9639                 6.6308

                   115                    116                    117
                     A                      A                      A
 Frequencies --  3287.8535              3290.5382              3292.0510
 Red. masses --     1.0846                 1.0868                 1.0851
 Frc consts  --     6.9080                 6.9331                 6.9289
 IR Inten    --     5.9078                40.5562                 1.3621
 Raman Activ --    87.8009                54.3065               183.6229

                   118                    119                    120
                     A                      A                      A
 Frequencies --  3295.6988              3301.1764              3306.7253
 Red. masses --     1.0872                 1.0873                 1.0933
 Frc consts  --     6.9577                 6.9811                 7.0432
 IR Inten    --     2.6303                38.8847                13.9355
 Raman Activ --    19.2094                12.7195                25.2398

                   121                    122                    123
                     A                      A                      A
 Frequencies --  3311.8271              3331.4522              3357.6834
 Red. masses --     1.0985                 1.1093                 1.0654
 Frc consts  --     7.0986                 7.2540                 7.0772
 IR Inten    --    85.3728                39.5196                34.2534
 Raman Activ --    14.9957                36.3548               133.8089

                   124                    125                    126
                     A                      A                      A
 Frequencies --  3362.2615              3364.3157              3370.5718
 Red. masses --     1.0663                 1.0662                 1.0659
 Frc consts  --     7.1024                 7.1105                 7.1346
 IR Inten    --    51.5932               172.3053                46.6522
 Raman Activ --   171.5315                74.6379               125.3675

                   127                    128                    129
                     A                      A                      A
 Frequencies --  3377.4058              3885.9713              3888.1326
 Red. masses --     1.0679                 1.0672                 1.0676
 Frc consts  --     7.1771                 9.4954                 9.5089
 IR Inten    --    53.3251                55.8404                68.6503
 Raman Activ --   150.2671               136.2723                97.7719

 - Thermochemistry -
 -------------------
 Temperature   298.150 Kelvin.  Pressure   1.00000 Atm.
 Atom     1 has atomic number  8 and mass  15.99491

 Molecular mass:   342.11621 amu.
 Principal axes and moments of inertia in atomic units:
                           1         2         3
     Eigenvalues --  4310.64294********************
           X            0.99998   0.00684  -0.00048
           Y           -0.00684   0.99998  -0.00168
           Z            0.00047   0.00168   1.00000
 This molecule is an asymmetric top.
 Rotational symmetry number  1.
 Warning -- assumption of classical behavior for rotation
           may cause significant error
 Rotational temperatures (Kelvin)      0.02009     0.00688     0.00525
 Rotational constants (GHZ):           0.41867     0.14338     0.10934
    8 imaginary frequencies ignored.
 Zero-point vibrational energy     974844.0 (Joules/Mol)
                                  232.99332 (Kcal/Mol)
 Warning -- explicit consideration of  30 degrees of freedom as
           vibrations may cause significant error
 Vibrational temperatures:     84.14   108.95   119.84   134.59   223.45
          (Kelvin)            240.55   272.47   311.03   335.41   367.28
                              400.36   440.76   448.49   452.78   481.36
                              486.09   508.92   534.67   563.83   591.52
                              617.65   637.29   650.63   697.36   711.10
                              716.73   778.96   827.48   862.18   874.29
                              907.85   928.30  1008.27  1043.82  1050.74
                             1065.18  1077.09  1089.76  1233.42  1234.78
                             1283.94  1330.18  1365.47  1405.27  1416.36
                             1427.55  1432.85  1458.79  1475.50  1484.88
                             1510.63  1522.70  1529.92  1541.88  1551.53
                             1559.45  1584.99  1587.80  1596.15  1607.31
                             1625.91  1632.17  1638.96  1650.71  1661.59
                             1682.06  1687.85  1721.71  1728.04  1743.48
                             1767.13  1785.23  1788.05  1802.55  1825.07
                             1836.87  1851.20  1852.77  1870.16  1887.19
                             1910.33  1917.00  1920.46  1939.17  1945.45
                             1953.96  1958.49  1980.97  1997.95  2014.62
                             2025.84  2039.99  2070.81  2083.49  2122.44
                             2125.63  2129.60  2148.20  2157.32  4641.98
                             4651.69  4685.25  4694.88  4699.43  4714.96
                             4720.65  4730.48  4734.34  4736.52  4741.77
                             4749.65  4757.63  4764.97  4793.21  4830.95
                             4837.54  4840.49  4849.49  4859.33  5591.04
                             5594.15

 Zero-point correction=                           0.371298 (Hartree/Particle)
 Thermal correction to Energy=                    0.388659
 Thermal correction to Enthalpy=                  0.389603
 Thermal correction to Gibbs Free Energy=         0.327123
 Sum of electronic and zero-point Energies=          -1297.592699
 Sum of electronic and thermal Energies=             -1297.575338
 Sum of electronic and thermal Enthalpies=           -1297.574394
 Sum of electronic and thermal Free Energies=        -1297.636874

                     E (Thermal)             CV                S
                      KCal/Mol        Cal/Mol-Kelvin    Cal/Mol-Kelvin
 Total                  243.887             73.496            131.500
 Electronic               0.000              0.000              0.000
 Translational            0.889              2.981             43.384
 Rotational               0.889              2.981             35.148
 Vibrational            242.110             67.534             52.968
 Vibration     1          0.596              1.974              4.508
 Vibration     2          0.599              1.965              3.999
 Vibration     3          0.600              1.961              3.812
 Vibration     4          0.603              1.954              3.585
 Vibration     5          0.620              1.897              2.606
 Vibration     6          0.624              1.883              2.467
 Vibration     7          0.633              1.854              2.234
 Vibration     8          0.645              1.816              1.991
 Vibration     9          0.654              1.790              1.855
 Vibration    10          0.666              1.754              1.694
 Vibration    11          0.679              1.714              1.544
 Vibration    12          0.697              1.662              1.382
 Vibration    13          0.700              1.651              1.353
 Vibration    14          0.702              1.646              1.338
 Vibration    15          0.716              1.606              1.238
 Vibration    16          0.718              1.600              1.222
 Vibration    17          0.730              1.568              1.150
 Vibration    18          0.743              1.530              1.073
 Vibration    19          0.759              1.488              0.993
 Vibration    20          0.775              1.446              0.923
 Vibration    21          0.791              1.406              0.861
 Vibration    22          0.803              1.376              0.817
 Vibration    23          0.811              1.356              0.789
 Vibration    24          0.841              1.284              0.698
 Vibration    25          0.850              1.263              0.673
 Vibration    26          0.854              1.254              0.663
 Vibration    27          0.896              1.159              0.562
 Vibration    28          0.931              1.085              0.494
 Vibration    29          0.957              1.033              0.451
 Vibration    30          0.966              1.016              0.437

 Normal termination of Gaussian 09 at Sun Mar 27 03:37:07 2016.
