 Gaussian 09, Revision B.01,
 Gaussian 09:  EM64L-G09RevB.01 12-Aug-2010

 -------------------------------------------------
 # freq=raman b3lyp/6-31+g(2d,p) geom=connectivity
 -------------------------------------------------

 -----------------
 290 9606/9606.com
 -----------------
 Symbolic Z-matrix:
 Charge =  0 Multiplicity = 1

                         Standard orientation:
 ---------------------------------------------------------------------
 Center     Atomic      Atomic             Coordinates (Angstroms)
 Number     Number       Type             X           Y           Z
 ---------------------------------------------------------------------
      1          8           0       -5.111975   -0.314389    0.088328
      2          6           0       -3.744499   -0.087841   -0.283036
      3          6           0       -3.230547    1.204260    0.331387
      4          8           0       -4.078854    2.296818   -0.052691
      5          1           0       -5.033135    2.004327   -0.107438
      6          6           0       -1.824912    1.601129   -0.091439
      7          8           0       -1.183520    2.805383    0.353609
      8          1           0       -0.256147    2.809370   -0.021079
      9          6           0       -3.145313   -2.551590   -0.047559
     10          8           0       -4.415247   -3.081590    0.359921
     11          1           0       -4.600609   -4.061255    0.288958
     12          6           0       -2.711218   -1.109896    0.162500
     13          8           0       -1.363543   -0.800846   -0.221606
     14          6           0       -0.888968    0.460059    0.272962
     15          8           0        0.291803    0.601690   -0.530933
     16          6           0        1.547629    0.207324    0.041986
     17          6           0        1.951069   -1.203975   -0.351902
     18          8           0        0.956051   -2.194810   -0.055044
     19          1           0        0.065829   -1.741608   -0.095133
     20          6           0        3.325205   -1.622009    0.145725
     21          8           0        3.861507   -2.675798   -0.668657
     22          1           0        4.637624   -2.932570   -0.093740
     23          6           0        2.478343    2.626113    0.018768
     24          8           0        1.308706    3.377474   -0.338689
     25          1           0        1.604761    4.330681   -0.287167
     26          6           0        2.669539    1.160311   -0.335092
     27          8           0        3.834452    0.821869    0.432396
     28          6           0        4.304456   -0.466507    0.010360
     29          8           0        5.422195   -0.837499    0.830953
     30          1           0       -5.631937   -0.492859   -0.698684
     31          1           0       -2.403141   -3.158246    0.427887
     32          1           0       -3.069671   -2.735083   -1.098991
     33          1           0       -2.697013   -1.005609    1.227311
     34          1           0       -3.695466   -0.000357   -1.348326
     35          1           0       -3.253861    1.109280    1.396908
     36          1           0       -1.842802    1.653771   -1.159993
     37          1           0       -0.664343    0.429227    1.318665
     38          1           0        3.312835    3.149145   -0.399513
     39          1           0        2.567448    2.694052    1.082885
     40          1           0        6.152156   -1.113254    0.271743
     41          1           0        2.886496    1.066906   -1.378694
     42          1           0        1.441849    0.231788    1.106463
     43          1           0        2.027797   -1.188441   -1.419034
     44          1           0        3.267592   -1.938226    1.166307
     45          1           0        4.626432   -0.401736   -1.007990
 ---------------------------------------------------------------------

 SCF Done:  E(RB3LYP) =  -1297.95784457     A.U. after   13 cycles

 The electronic state is 1-A.
 Alpha  occ. eigenvalues --  -19.19371 -19.18742 -19.18483 -19.18064 -19.17997
 Alpha  occ. eigenvalues --  -19.17549 -19.16784 -19.15815 -19.14382 -19.13309
 Alpha  occ. eigenvalues --  -19.13236 -10.30704 -10.30341 -10.26544 -10.25952
 Alpha  occ. eigenvalues --  -10.25605 -10.25552 -10.25246 -10.24616 -10.24532
 Alpha  occ. eigenvalues --  -10.24336 -10.24109 -10.23762  -1.10701  -1.09407
 Alpha  occ. eigenvalues --   -1.05716  -1.05434  -1.04534  -1.04068  -1.03095
 Alpha  occ. eigenvalues --   -1.02009  -1.01505  -1.00371  -0.99716  -0.82326
 Alpha  occ. eigenvalues --   -0.80973  -0.79142  -0.78294  -0.72167  -0.70246
 Alpha  occ. eigenvalues --   -0.67343  -0.65044  -0.63091  -0.62965  -0.61436
 Alpha  occ. eigenvalues --   -0.60462  -0.56552  -0.55867  -0.55161  -0.54709
 Alpha  occ. eigenvalues --   -0.54420  -0.53594  -0.52759  -0.51951  -0.51162
 Alpha  occ. eigenvalues --   -0.51089  -0.50283  -0.49350  -0.48989  -0.46756
 Alpha  occ. eigenvalues --   -0.45628  -0.45369  -0.44290  -0.44209  -0.43399
 Alpha  occ. eigenvalues --   -0.42679  -0.41934  -0.41439  -0.40192  -0.39716
 Alpha  occ. eigenvalues --   -0.38913  -0.38348  -0.37789  -0.36200  -0.35909
 Alpha  occ. eigenvalues --   -0.35237  -0.34830  -0.34187  -0.33864  -0.33082
 Alpha  occ. eigenvalues --   -0.32587  -0.31457  -0.30852  -0.30540  -0.29818
 Alpha  occ. eigenvalues --   -0.29454  -0.28561  -0.28336  -0.26902  -0.26498
 Alpha  occ. eigenvalues --   -0.26104
 Alpha virt. eigenvalues --   -0.02224  -0.02098  -0.01867  -0.00308   0.00402
 Alpha virt. eigenvalues --    0.01243   0.01708   0.02459   0.03031   0.03312
 Alpha virt. eigenvalues --    0.03985   0.04381   0.04767   0.05419   0.05616

 Mulliken atomic charges:
              1
     1  O   -0.528726
     2  C   -0.138698
     3  C    0.232563
     4  O   -0.568716
     5  H    0.341137
     6  C   -0.031853
     7  O   -0.582490
     8  H    0.431944
     9  C   -0.113195
    10  O   -0.544287
    11  H    0.356138
    12  C    0.182702
    13  O   -0.260038
    14  C    0.193492
    15  O   -0.244031
    16  C    0.136486
    17  C    0.101306
    18  O   -0.602123
    19  H    0.408139
    20  C    0.097094
    21  O   -0.508278
    22  H    0.328894
    23  C   -0.286430
    24  O   -0.550242
    25  H    0.356342
    26  C    0.001897
    27  O   -0.260772
    28  C    0.096209
    29  O   -0.558366
    30  H    0.343727
    31  H    0.147095
    32  H    0.138463
    33  H    0.104804
    34  H    0.117708
    35  H    0.120724
    36  H    0.127563
    37  H    0.137851
    38  H    0.145105
    39  H    0.160482
    40  H    0.339047
    41  H    0.123651
    42  H    0.114044
    43  H    0.117290
    44  H    0.142060
    45  H    0.134287
 Sum of Mulliken atomic charges =   0.00000

 Dipole moment (field-independent basis, Debye):
    X=              2.1591    Y=             -0.7560    Z=             -1.9006  Tot=              2.9742
 Quadrupole moment (field-independent basis, Debye-Ang):
   XX=           -114.6733   YY=           -136.2240   ZZ=           -139.8151
   XY=             18.7064   XZ=              3.8556   YZ=             -3.8262

  Exact polarizability: 234.893   0.208 197.763   1.782  -0.132 143.279
 Approx polarizability: 275.545   1.164 257.463   2.572  -0.126 239.396

 ******    6 imaginary frequencies (negative Signs) ******

                     1                      2                      3
                     A                      A                      A
 Frequencies --  -362.8629              -288.8530              -238.0276
 Red. masses --     1.7480                 1.7349                 1.2522
 Frc consts  --     0.1356                 0.0853                 0.0418
 IR Inten    --    10.8510                 1.5346               123.2623
 Raman Activ --     0.1048                 0.0383                 1.0953

                     4                      5                      6
                     A                      A                      A
 Frequencies --  -226.1418               -76.8268               -61.3677
 Red. masses --     1.1776                 6.9239                 6.1886
 Frc consts  --     0.0355                 0.0241                 0.0137
 IR Inten    --   104.9455                 0.8014                 0.3776
 Raman Activ --     0.6926                 0.0439                 0.0184

                     7                      8                      9
                     A                      A                      A
 Frequencies --    27.7699                42.9358                61.5125
 Red. masses --     6.5059                 6.7328                 6.8085
 Frc consts  --     0.0030                 0.0073                 0.0152
 IR Inten    --     1.0945                 2.7903                 5.2699
 Raman Activ --     0.0376                 0.0485                 0.0300

                    10                     11                     12
                     A                      A                      A
 Frequencies --    85.7103                91.2711               128.9618
 Red. masses --     6.6251                 6.4404                 5.8014
 Frc consts  --     0.0287                 0.0316                 0.0568
 IR Inten    --     0.3513                 2.2676                 0.6877
 Raman Activ --     0.3452                 0.0927                 0.0348

                    13                     14                     15
                     A                      A                      A
 Frequencies --   161.3671               177.9141               187.6806
 Red. masses --     6.0838                 5.9055                 6.9092
 Frc consts  --     0.0933                 0.1101                 0.1434
 IR Inten    --     5.2029                 2.0205                 1.2915
 Raman Activ --     0.6024                 0.6041                 0.2738

                    16                     17                     18
                     A                      A                      A
 Frequencies --   212.8345               232.3626               260.2193
 Red. masses --     7.1230                 6.2729                 4.2919
 Frc consts  --     0.1901                 0.1996                 0.1712
 IR Inten    --     0.3586                 2.1968                29.0788
 Raman Activ --     3.2478                 0.3591                 0.1962

                    19                     20                     21
                     A                      A                      A
 Frequencies --   275.8787               294.7609               302.5922
 Red. masses --     4.7215                 6.4843                 4.6958
 Frc consts  --     0.2117                 0.3319                 0.2533
 IR Inten    --     2.2509                 2.1733                 2.3582
 Raman Activ --     0.2136                 3.1761                 0.9586

                    22                     23                     24
                     A                      A                      A
 Frequencies --   309.9947               318.8307               326.6262
 Red. masses --     4.6224                 6.5625                 4.9626
 Frc consts  --     0.2617                 0.3930                 0.3119
 IR Inten    --     1.7548                 7.7444                 4.6590
 Raman Activ --     0.7679                 2.4984                 1.0823

                    25                     26                     27
                     A                      A                      A
 Frequencies --   347.2156               362.6407               386.1556
 Red. masses --     6.7153                 4.5814                 6.4333
 Frc consts  --     0.4770                 0.3550                 0.5652
 IR Inten    --     8.4427                 1.1606                 0.6832
 Raman Activ --     0.7561                 1.1824                 1.1850

                    28                     29                     30
                     A                      A                      A
 Frequencies --   406.5151               412.7621               427.0929
 Red. masses --     5.1004                 5.0619                 5.2872
 Frc consts  --     0.4966                 0.5081                 0.5682
 IR Inten    --    18.9792                 7.4896                 4.5296
 Raman Activ --     2.5076                 7.9796                 1.5010

                    31                     32                     33
                     A                      A                      A
 Frequencies --   439.2174               483.6240               487.0382
 Red. masses --     5.2004                 4.1978                 4.9978
 Frc consts  --     0.5911                 0.5785                 0.6985
 IR Inten    --     1.8890                 5.5462                 3.3270
 Raman Activ --     2.2197                 3.1977                 0.2462

                    34                     35                     36
                     A                      A                      A
 Frequencies --   512.9847               517.6497               539.6427
 Red. masses --     3.0666                 2.4721                 1.2625
 Frc consts  --     0.4755                 0.3903                 0.2166
 IR Inten    --    19.8299                25.2841                78.8356
 Raman Activ --     0.7239                 6.9540                 2.9020

                    37                     38                     39
                     A                      A                      A
 Frequencies --   570.7855               584.9605               600.2694
 Red. masses --     3.9861                 3.0448                 6.7433
 Frc consts  --     0.7652                 0.6139                 1.4316
 IR Inten    --    16.8507                28.5874                 3.3183
 Raman Activ --     1.4580                 0.5685                 1.0719

                    40                     41                     42
                     A                      A                      A
 Frequencies --   610.8980               626.0228               679.8671
 Red. masses --     5.2923                 3.6041                 5.8004
 Frc consts  --     1.1637                 0.8322                 1.5796
 IR Inten    --    25.5630                38.2546                10.9587
 Raman Activ --     1.1277                 1.9483                 1.9174

                    43                     44                     45
                     A                      A                      A
 Frequencies --   706.1601               748.2141               772.4658
 Red. masses --     1.0876                 1.0562                 1.1277
 Frc consts  --     0.3195                 0.3484                 0.3965
 IR Inten    --   113.5449                87.0233                80.4840
 Raman Activ --     1.7025                 1.6473                 1.1375

                    46                     47                     48
                     A                      A                      A
 Frequencies --   797.5558               840.7940               854.8118
 Red. masses --     1.0632                 1.1424                 1.8297
 Frc consts  --     0.3985                 0.4758                 0.7877
 IR Inten    --    51.0194                44.1541                 5.0590
 Raman Activ --     0.3619                 0.5328                 0.5017

                    49                     50                     51
                     A                      A                      A
 Frequencies --   863.3882               919.1244               955.2642
 Red. masses --     1.6252                 5.9482                 4.3248
 Frc consts  --     0.7138                 2.9606                 2.3252
 IR Inten    --    10.7426               103.8009                68.5935
 Raman Activ --     0.6619                 2.3971                 0.3364

                    52                     53                     54
                     A                      A                      A
 Frequencies --   967.0740               970.6818               987.1162
 Red. masses --     4.6158                 6.0213                 6.2872
 Frc consts  --     2.5434                 3.3427                 3.6094
 IR Inten    --   153.2105                25.4741                35.6813
 Raman Activ --     0.6544                 2.9492                 1.2070

                    55                     56                     57
                     A                      A                      A
 Frequencies --   996.7865              1003.7454              1013.9392
 Red. masses --     6.9958                 5.5911                 5.5723
 Frc consts  --     4.0954                 3.3189                 3.3753
 IR Inten    --   510.0993                53.0511               252.7100
 Raman Activ --     0.8942                 3.4061                 2.8480

                    58                     59                     60
                     A                      A                      A
 Frequencies --  1028.0867              1045.3578              1050.8922
 Red. masses --     6.5540                 6.5493                 4.7007
 Frc consts  --     4.0815                 4.2167                 3.0586
 IR Inten    --   146.5710               145.0899                30.4542
 Raman Activ --     2.9009                 0.4513                 6.1798

                    61                     62                     63
                     A                      A                      A
 Frequencies --  1065.9015              1070.4331              1079.1920
 Red. masses --     3.4075                 5.2947                 3.9938
 Frc consts  --     2.2809                 3.5745                 2.7405
 IR Inten    --     3.8595                 6.8306                 5.3936
 Raman Activ --     7.2046                 4.1043                23.3880

                    64                     65                     66
                     A                      A                      A
 Frequencies --  1098.2852              1113.6140              1115.5639
 Red. masses --     2.5151                 3.3817                 2.6821
 Frc consts  --     1.7875                 2.4709                 1.9666
 IR Inten    --    35.6469                98.1790                12.4925
 Raman Activ --     6.9700                 2.1251                 4.0352

                    67                     68                     69
                     A                      A                      A
 Frequencies --  1117.8303              1127.3479              1130.8619
 Red. masses --     2.3458                 3.0103                 2.4714
 Frc consts  --     1.7270                 2.2541                 1.8621
 IR Inten    --     5.5038                34.6619                70.2316
 Raman Activ --     8.1896                 4.0856                 4.7822

                    70                     71                     72
                     A                      A                      A
 Frequencies --  1142.5672              1158.4652              1163.6970
 Red. masses --     3.0667                 2.0902                 1.5556
 Frc consts  --     2.3587                 1.6527                 1.2411
 IR Inten    --    20.2132                11.5324                 3.4338
 Raman Activ --    10.8973                 1.8094                 4.3897

                    73                     74                     75
                     A                      A                      A
 Frequencies --  1171.9719              1182.4066              1190.8994
 Red. masses --     2.2891                 1.6068                 2.0627
 Frc consts  --     1.8525                 1.3235                 1.7236
 IR Inten    --    46.9116                 7.6371                16.5114
 Raman Activ --     3.8478                 1.4356                 1.2557

                    76                     77                     78
                     A                      A                      A
 Frequencies --  1213.7577              1215.9659              1229.9104
 Red. masses --     1.4003                 1.3155                 1.2139
 Frc consts  --     1.2155                 1.1460                 1.0819
 IR Inten    --    13.5824                 4.8533                36.1981
 Raman Activ --     1.9382                 1.7800                 2.0902

                    79                     80                     81
                     A                      A                      A
 Frequencies --  1232.1256              1256.3040              1260.1598
 Red. masses --     1.1779                 1.2824                 1.1939
 Frc consts  --     1.0536                 1.1925                 1.1171
 IR Inten    --     1.3429                12.1468                 8.0089
 Raman Activ --     1.0275                 1.3469                 1.7392

                    82                     83                     84
                     A                      A                      A
 Frequencies --  1266.5389              1284.8210              1290.2387
 Red. masses --     1.2495                 1.4792                 1.4147
 Frc consts  --     1.1809                 1.4386                 1.3876
 IR Inten    --    32.7754                38.0342                11.4693
 Raman Activ --     2.3898                 1.0847                 2.6703

                    85                     86                     87
                     A                      A                      A
 Frequencies --  1301.3451              1309.0374              1310.7257
 Red. masses --     1.3026                 1.2536                 1.3484
 Frc consts  --     1.2997                 1.2656                 1.3649
 IR Inten    --    15.8289                14.8820                28.2809
 Raman Activ --     5.9821                 3.2444                 2.8466

                    88                     89                     90
                     A                      A                      A
 Frequencies --  1315.9546              1328.5822              1341.0307
 Red. masses --     1.2416                 1.4421                 1.3745
 Frc consts  --     1.2668                 1.4998                 1.4564
 IR Inten    --     7.7465                 4.3780                27.0316
 Raman Activ --     1.7816                 9.7114                 4.3614

                    91                     92                     93
                     A                      A                      A
 Frequencies --  1346.8104              1352.1918              1364.0453
 Red. masses --     1.1292                 1.2391                 1.2562
 Frc consts  --     1.2068                 1.3348                 1.3771
 IR Inten    --    19.1163                18.8857                13.2336
 Raman Activ --     8.7022                 3.0443                 7.8265

                    94                     95                     96
                     A                      A                      A
 Frequencies --  1368.4246              1374.3306              1378.1785
 Red. masses --     1.1948                 1.2276                 1.3681
 Frc consts  --     1.3182                 1.3661                 1.5310
 IR Inten    --    18.3858                15.5597                11.7340
 Raman Activ --     6.5596                 2.1852                 2.8118

                    97                     98                     99
                     A                      A                      A
 Frequencies --  1388.2571              1398.1036              1409.4043
 Red. masses --     1.3293                 1.4565                 1.3954
 Frc consts  --     1.5094                 1.6774                 1.6332
 IR Inten    --     1.8742                19.5885                35.9024
 Raman Activ --     4.1417                 3.4657                 2.9764

                   100                    101                    102
                     A                      A                      A
 Frequencies --  1414.1180              1426.6975              1458.3016
 Red. masses --     1.3950                 1.3589                 1.3991
 Frc consts  --     1.6436                 1.6297                 1.7530
 IR Inten    --    20.4224                 0.4961                71.3822
 Raman Activ --     3.4629                 3.0558                 2.4177

                   103                    104                    105
                     A                      A                      A
 Frequencies --  1473.1508              1474.9669              1486.0819
 Red. masses --     1.0787                 1.0979                 1.2845
 Frc consts  --     1.3793                 1.4073                 1.6714
 IR Inten    --    10.4547                 2.1592                39.3135
 Raman Activ --     4.9951                 3.4612                 1.3969

                   106                    107                    108
                     A                      A                      A
 Frequencies --  1494.7205              1533.5287              3241.0723
 Red. masses --     1.3682                 1.2441                 1.0773
 Frc consts  --     1.8010                 1.7237                 6.6678
 IR Inten    --    12.2167                48.7850                21.7684
 Raman Activ --     0.5349                 1.8004                48.0139

                   109                    110                    111
                     A                      A                      A
 Frequencies --  3251.2622              3253.5200              3258.9074
 Red. masses --     1.0614                 1.0696                 1.0698
 Frc consts  --     6.6105                 6.6710                 6.6940
 IR Inten    --    61.6955                79.2540               533.1644
 Raman Activ --   165.1819               111.8912                69.5514

                   112                    113                    114
                     A                      A                      A
 Frequencies --  3265.1598              3270.4347              3272.7656
 Red. masses --     1.0674                 1.0792                 1.0826
 Frc consts  --     6.7047                 6.8009                 6.8320
 IR Inten    --    85.9056                41.5974                 4.4801
 Raman Activ --   222.3918               154.4166                38.0421

                   115                    116                    117
                     A                      A                      A
 Frequencies --  3274.6713              3279.8230              3281.2618
 Red. masses --     1.0779                 1.0782                 1.0857
 Frc consts  --     6.8105                 6.8337                 6.8872
 IR Inten    --   470.6126               526.5940                 4.9419
 Raman Activ --    25.0867                18.3408                87.2885

                   118                    119                    120
                     A                      A                      A
 Frequencies --  3286.6167              3290.2656              3299.7484
 Red. masses --     1.0863                 1.0867                 1.1013
 Frc consts  --     6.9134                 6.9312                 7.0651
 IR Inten    --    40.6174                89.9451                29.5379
 Raman Activ --    66.7459                23.9564                39.1584

                   121                    122                    123
                     A                      A                      A
 Frequencies --  3301.9060              3304.2892              3313.9211
 Red. masses --     1.0873                 1.0874                 1.1044
 Frc consts  --     6.9845                 6.9950                 7.1460
 IR Inten    --     7.4377               112.3646                55.4508
 Raman Activ --     7.3805                47.3885                42.5182

                   124                    125                    126
                     A                      A                      A
 Frequencies --  3368.8480              3372.1632              3376.5017
 Red. masses --     1.0656                 1.0690                 1.0644
 Frc consts  --     7.1257                 7.1625                 7.1497
 IR Inten    --    30.6039                92.1231                28.1382
 Raman Activ --   108.7031               222.6614               103.2554

                   127                    128                    129
                     A                      A                      A
 Frequencies --  3380.6816              3890.1984              3890.5223
 Red. masses --     1.0668                 1.0674                 1.0677
 Frc consts  --     7.1837                 9.5178                 9.5218
 IR Inten    --    67.0299                95.0239                69.0156
 Raman Activ --   153.9195                79.4466               107.5592

 - Thermochemistry -
 -------------------
 Temperature   298.150 Kelvin.  Pressure   1.00000 Atm.
 Atom     1 has atomic number  8 and mass  15.99491

 Molecular mass:   342.11621 amu.
 Principal axes and moments of inertia in atomic units:
                           1         2         3
     Eigenvalues --  4416.17678********************
           X            0.99997   0.00834  -0.00001
           Y           -0.00834   0.99996  -0.00116
           Z            0.00000   0.00116   1.00000
 This molecule is an asymmetric top.
 Rotational symmetry number  1.
 Warning -- assumption of classical behavior for rotation
           may cause significant error
 Rotational temperatures (Kelvin)      0.01961     0.00695     0.00526
 Rotational constants (GHZ):           0.40867     0.14482     0.10966
    6 imaginary frequencies ignored.
 Zero-point vibrational energy     974761.6 (Joules/Mol)
                                  232.97361 (Kcal/Mol)
 Warning -- explicit consideration of  34 degrees of freedom as
           vibrations may cause significant error
 Vibrational temperatures:     39.95    61.77    88.50   123.32   131.32
          (Kelvin)            185.55   232.17   255.98   270.03   306.22
                              334.32   374.40   396.93   424.09   435.36
                              446.01   458.73   469.94   499.57   521.76
                              555.59   584.88   593.87   614.49   631.94
                              695.83   700.74   738.07   744.78   776.42
                              821.23   841.63   863.65   878.94   900.71
                              978.18  1016.01  1076.51  1111.40  1147.50
                             1209.71  1229.88  1242.22  1322.41  1374.41
                             1391.40  1396.59  1420.24  1434.15  1444.16
                             1458.83  1479.19  1504.03  1512.00  1533.59
                             1540.11  1552.71  1580.19  1602.24  1605.05
                             1608.31  1622.00  1627.06  1643.90  1666.77
                             1674.30  1686.20  1701.22  1713.44  1746.32
                             1749.50  1769.56  1772.75  1807.54  1813.09
                             1822.26  1848.57  1856.36  1872.34  1883.41
                             1885.84  1893.36  1911.53  1929.44  1937.76
                             1945.50  1962.55  1968.86  1977.35  1982.89
                             1997.39  2011.56  2027.82  2034.60  2052.70
                             2098.17  2119.53  2122.15  2138.14  2150.57
                             2206.40  4663.17  4677.84  4681.08  4688.84
                             4697.83  4705.42  4708.77  4711.52  4718.93
                             4721.00  4728.70  4733.95  4747.60  4750.70
                             4754.13  4767.99  4847.01  4851.78  4858.03
                             4864.04  5597.12  5597.59

 Zero-point correction=                           0.371267 (Hartree/Particle)
 Thermal correction to Energy=                    0.390488
 Thermal correction to Enthalpy=                  0.391432
 Thermal correction to Gibbs Free Energy=         0.323847
 Sum of electronic and zero-point Energies=          -1297.586577
 Sum of electronic and thermal Energies=             -1297.567357
 Sum of electronic and thermal Enthalpies=           -1297.566413
 Sum of electronic and thermal Free Energies=        -1297.633998

                     E (Thermal)             CV                S
                      KCal/Mol        Cal/Mol-Kelvin    Cal/Mol-Kelvin
 Total                  245.035             78.065            142.245
 Electronic               0.000              0.000              0.000
 Translational            0.889              2.981             43.384
 Rotational               0.889              2.981             35.159
 Vibrational            243.257             72.103             63.701
 Vibration     1          0.593              1.984              5.983
 Vibration     2          0.595              1.980              5.119
 Vibration     3          0.597              1.973              4.408
 Vibration     4          0.601              1.959              3.756
 Vibration     5          0.602              1.955              3.633
 Vibration     6          0.611              1.924              2.961
 Vibration     7          0.622              1.890              2.534
 Vibration     8          0.628              1.870              2.350
 Vibration     9          0.632              1.857              2.251
 Vibration    10          0.644              1.821              2.019
 Vibration    11          0.653              1.791              1.861
 Vibration    12          0.668              1.745              1.660
 Vibration    13          0.678              1.718              1.559
 Vibration    14          0.689              1.684              1.446
 Vibration    15          0.694              1.669              1.403
 Vibration    16          0.699              1.655              1.362
 Vibration    17          0.705              1.638              1.316
 Vibration    18          0.710              1.622              1.277
 Vibration    19          0.725              1.581              1.179
 Vibration    20          0.736              1.549              1.111
 Vibration    21          0.755              1.500              1.015
 Vibration    22          0.771              1.456              0.939
 Vibration    23          0.777              1.443              0.917
 Vibration    24          0.789              1.411              0.868
 Vibration    25          0.799              1.385              0.829
 Vibration    26          0.840              1.286              0.700
 Vibration    27          0.843              1.279              0.691
 Vibration    28          0.868              1.221              0.626
 Vibration    29          0.873              1.211              0.615
 Vibration    30          0.895              1.162              0.566
 Vibration    31          0.927              1.094              0.503
 Vibration    32          0.942              1.064              0.476
 Vibration    33          0.958              1.031              0.449
 Vibration    34          0.970              1.009              0.431

 Normal termination of Gaussian 09 at Wed Mar 23 06:02:41 2016.
