 Gaussian 09, Revision B.01,
 Gaussian 09:  EM64L-G09RevB.01 12-Aug-2010

 ------------------------------------------------
 # freq=raman b3lyp/6-31+g(d,p) geom=connectivity
 ------------------------------------------------

 ------------
 550 7000.com
 ------------
 Symbolic Z-matrix:
 Charge =  0 Multiplicity = 1

                         Standard orientation:
 ---------------------------------------------------------------------
 Center     Atomic      Atomic             Coordinates (Angstroms)
 Number     Number       Type             X           Y           Z
 ---------------------------------------------------------------------
      1          8           0        5.163219   -0.518998   -0.351031
      2          6           0        3.908432   -0.113380    0.216831
      3          6           0        3.371363    1.245218   -0.198917
      4          8           0        4.232893    2.290067    0.272997
      5          1           0        5.193694    2.060878    0.117917
      6          6           0        1.994614    1.472687    0.405554
      7          8           0        1.629924    2.825070    0.094707
      8          1           0        2.201397    3.517284    0.534677
      9          6           0        3.172051   -2.466796    0.291634
     10          8           0        2.358363   -3.525231   -0.232218
     11          1           0        2.718778   -4.362603    0.180339
     12          6           0        2.881073   -1.101871   -0.310712
     13          8           0        1.535717   -0.789155    0.078826
     14          6           0        1.012397    0.509158   -0.240197
     15          8           0       -0.235873    0.500853    0.467704
     16          6           0       -1.442748    0.189571   -0.243556
     17          6           0       -1.737817   -1.285144   -0.025864
     18          8           0       -1.158487   -2.072525   -1.076624
     19          1           0       -0.208609   -1.762252   -1.127995
     20          6           0       -3.222921   -1.538339    0.177038
     21          8           0       -3.492253   -2.366231    1.317170
     22          1           0       -3.067055   -3.270072    1.263391
     23          6           0       -1.933742    2.520612   -0.146774
     24          8           0       -2.840143    3.633937   -0.158241
     25          1           0       -3.148653    3.865788    0.763981
     26          6           0       -2.551525    1.159803    0.128433
     27          8           0       -3.819295    0.802577   -0.439467
     28          6           0       -4.209116   -0.384956    0.266215
     29          8           0       -5.295285   -0.781377   -0.584624
     30          1           0       -6.128912   -0.554700   -0.165955
     31          1           0       -4.530571   -0.185918    1.267190
     32          1           0       -3.528110   -2.107825   -0.675866
     33          1           0       -1.248100   -1.570163    0.881793
     34          1           0       -1.243080    0.322637   -1.286305
     35          1           0       -2.673727    1.093882    1.189386
     36          1           0       -1.447619    2.478251   -1.099029
     37          1           0       -1.190399    2.705167    0.600407
     38          1           0        5.875114   -0.294665    0.252691
     39          1           0        3.017376   -2.411217    1.348936
     40          1           0        4.198928   -2.706213    0.109692
     41          1           0        2.945534   -1.156292   -1.377381
     42          1           0        3.955609   -0.174534    1.284040
     43          1           0        3.305013    1.291715   -1.265845
     44          1           0        2.022145    1.326210    1.465123
     45          1           0        0.898632    0.663390   -1.292894
 ---------------------------------------------------------------------

 SCF Done:  E(RB3LYP) =  -1297.92536975     A.U. after   14 cycles

 The electronic state is 1-A.
 Alpha  occ. eigenvalues --  -19.20350 -19.19119 -19.18869 -19.18173 -19.17240
 Alpha  occ. eigenvalues --  -19.17130 -19.16998 -19.16129 -19.15795 -19.15531
 Alpha  occ. eigenvalues --  -19.15206 -10.31967 -10.29518 -10.27366 -10.26632
 Alpha  occ. eigenvalues --  -10.26592 -10.26560 -10.24604 -10.24558 -10.24011
 Alpha  occ. eigenvalues --  -10.23793 -10.23334 -10.22634  -1.09871  -1.07679
 Alpha  occ. eigenvalues --   -1.07436  -1.05360  -1.04025  -1.02715  -1.02487
 Alpha  occ. eigenvalues --   -1.02346  -1.01129  -1.00877  -0.99924  -0.82762
 Alpha  occ. eigenvalues --   -0.81893  -0.78515  -0.76931  -0.71679  -0.69921
 Alpha  occ. eigenvalues --   -0.67653  -0.64652  -0.63652  -0.62779  -0.62268
 Alpha  occ. eigenvalues --   -0.59220  -0.57211  -0.55948  -0.55623  -0.55084
 Alpha  occ. eigenvalues --   -0.54298  -0.53147  -0.52109  -0.51117  -0.50475
 Alpha  occ. eigenvalues --   -0.50448  -0.49333  -0.48176  -0.47134  -0.46719
 Alpha  occ. eigenvalues --   -0.46008  -0.45709  -0.44824  -0.44063  -0.43188
 Alpha  occ. eigenvalues --   -0.42365  -0.41781  -0.41083  -0.40074  -0.39382
 Alpha  occ. eigenvalues --   -0.38351  -0.37265  -0.36770  -0.36405  -0.36143
 Alpha  occ. eigenvalues --   -0.35807  -0.34781  -0.34226  -0.33773  -0.33443
 Alpha  occ. eigenvalues --   -0.31817  -0.31365  -0.31149  -0.29774  -0.29479
 Alpha  occ. eigenvalues --   -0.29121  -0.28782  -0.28421  -0.27686  -0.27306
 Alpha  occ. eigenvalues --   -0.25214
 Alpha virt. eigenvalues --   -0.04077  -0.01624  -0.00768  -0.00248   0.00218
 Alpha virt. eigenvalues --    0.01120   0.01349   0.01555   0.02740   0.03416
 Alpha virt. eigenvalues --    0.03600   0.04010   0.05080   0.05502   0.05711

 Mulliken atomic charges:
              1
     1  O   -0.530748
     2  C   -0.260468
     3  C    0.163889
     4  O   -0.557514
     5  H    0.349078
     6  C   -0.099926
     7  O   -0.489221
     8  H    0.372903
     9  C   -0.177727
    10  O   -0.535578
    11  H    0.347622
    12  C    0.198673
    13  O   -0.365301
    14  C    0.165233
    15  O   -0.276117
    16  C   -0.010335
    17  C   -0.140141
    18  O   -0.488144
    19  H    0.376213
    20  C    0.349814
    21  O   -0.525059
    22  H    0.360942
    23  C    0.057495
    24  O   -0.522897
    25  H    0.338476
    26  C   -0.195412
    27  O   -0.289112
    28  C    0.158621
    29  O   -0.517902
    30  H    0.351016
    31  H    0.143239
    32  H    0.182732
    33  H    0.158940
    34  H    0.136310
    35  H    0.117146
    36  H    0.136038
    37  H    0.171845
    38  H    0.356528
    39  H    0.133134
    40  H    0.150909
    41  H    0.145120
    42  H    0.137869
    43  H    0.142812
    44  H    0.149151
    45  H    0.129854
 Sum of Mulliken atomic charges =   0.00000

 Dipole moment (field-independent basis, Debye):
    X=              7.5299    Y=             -0.7766    Z=              4.8801  Tot=              9.0065
 Quadrupole moment (field-independent basis, Debye-Ang):
   XX=           -112.7852   YY=           -141.2669   ZZ=           -140.0822
   XY=             -2.5414   XZ=             -4.3409   YZ=              1.1478

  Exact polarizability: 220.031   0.580 193.516  -1.501   0.639 143.905
 Approx polarizability: 259.086  -1.795 246.861  -1.158   1.675 234.390

 ******    8 imaginary frequencies (negative Signs) ******

                     1                      2                      3
                     A                      A                      A
 Frequencies --  -351.7648              -229.1053              -200.7382
 Red. masses --     1.0982                 1.9236                 1.1909
 Frc consts  --     0.0801                 0.0595                 0.0283
 IR Inten    --    98.7616                 3.6139               120.7628
 Raman Activ --     1.9720                 0.0427                 0.9307

                     4                      5                      6
                     A                      A                      A
 Frequencies --  -173.3950               -98.2022               -68.1735
 Red. masses --     1.7634                 5.8453                 5.9201
 Frc consts  --     0.0312                 0.0332                 0.0162
 IR Inten    --     5.0860                 3.2106                 0.5291
 Raman Activ --     0.2265                 0.3313                 0.0942

                     7                      8                      9
                     A                      A                      A
 Frequencies --   -60.3432               -50.4205                 8.6358
 Red. masses --     6.0371                 6.6148                 6.8012
 Frc consts  --     0.0130                 0.0099                 0.0003
 IR Inten    --     1.1802                 0.4042                 0.8299
 Raman Activ --     0.0113                 0.0593                 0.0236

                    10                     11                     12
                     A                      A                      A
 Frequencies --    45.5092                74.4843               113.6570
 Red. masses --     6.7667                 6.4144                 6.2831
 Frc consts  --     0.0083                 0.0210                 0.0478
 IR Inten    --     1.5979                 0.5969                 0.2037
 Raman Activ --     0.1345                 0.0290                 0.1308

                    13                     14                     15
                     A                      A                      A
 Frequencies --   120.3503               142.5237               163.8343
 Red. masses --     6.3742                 6.9980                 6.1325
 Frc consts  --     0.0544                 0.0838                 0.0970
 IR Inten    --     1.9350                 0.1716                 4.5576
 Raman Activ --     0.4607                 0.5959                 0.1456

                    16                     17                     18
                     A                      A                      A
 Frequencies --   183.4304               214.1547               252.9269
 Red. masses --     7.2153                 6.0052                 6.2614
 Frc consts  --     0.1430                 0.1623                 0.2360
 IR Inten    --     3.4865                 1.4338                 3.1240
 Raman Activ --     1.6174                 1.2848                 0.6758

                    19                     20                     21
                     A                      A                      A
 Frequencies --   272.4395               282.4241               291.1618
 Red. masses --     4.5731                 4.0525                 5.4986
 Frc consts  --     0.2000                 0.1904                 0.2746
 IR Inten    --     0.7613                17.6390                 9.9089
 Raman Activ --     0.4501                 0.0576                 0.5187

                    22                     23                     24
                     A                      A                      A
 Frequencies --   318.7262               325.0002               345.5040
 Red. masses --     6.9236                 6.4434                 6.2309
 Frc consts  --     0.4144                 0.4010                 0.4382
 IR Inten    --     0.3378                 1.2957                 2.7800
 Raman Activ --     0.4656                 0.5861                 3.2476

                    25                     26                     27
                     A                      A                      A
 Frequencies --   358.1845               385.1983               388.0626
 Red. masses --     6.2976                 4.2939                 6.9890
 Frc consts  --     0.4760                 0.3754                 0.6201
 IR Inten    --     1.8680                 5.2947                 6.0973
 Raman Activ --     3.9870                 0.8117                 0.7876

                    28                     29                     30
                     A                      A                      A
 Frequencies --   419.3169               432.7463               447.5550
 Red. masses --     5.8278                 4.2936                 5.2508
 Frc consts  --     0.6037                 0.4737                 0.6197
 IR Inten    --     2.0132                 3.1338                 0.7730
 Raman Activ --     4.6130                 4.8265                 1.4125

                    31                     32                     33
                     A                      A                      A
 Frequencies --   490.1606               492.7131               515.3489
 Red. masses --     4.9045                 3.8332                 3.9458
 Frc consts  --     0.6943                 0.5483                 0.6174
 IR Inten    --     3.6818                12.4411                16.1781
 Raman Activ --     2.7422                 1.0168                 0.7750

                    34                     35                     36
                     A                      A                      A
 Frequencies --   550.5141               560.5898               573.5006
 Red. masses --     3.9475                 4.4742                 4.1921
 Frc consts  --     0.7049                 0.8284                 0.8124
 IR Inten    --    13.2022                14.4150                 5.2529
 Raman Activ --     3.6255                 3.5287                 0.3346

                    37                     38                     39
                     A                      A                      A
 Frequencies --   599.0826               609.3867               624.2094
 Red. masses --     3.3598                 3.7737                 3.4685
 Frc consts  --     0.7105                 0.8257                 0.7962
 IR Inten    --    11.7737                21.9260                21.8665
 Raman Activ --     0.4433                 1.9735                 0.3939

                    40                     41                     42
                     A                      A                      A
 Frequencies --   650.2322               660.8774               671.2658
 Red. masses --     3.3167                 1.5144                 1.6431
 Frc consts  --     0.8262                 0.3897                 0.4362
 IR Inten    --    40.5939               144.1385                70.4776
 Raman Activ --     1.2814                 0.3567                 2.4166

                    43                     44                     45
                     A                      A                      A
 Frequencies --   674.6432               692.2301               694.3201
 Red. masses --     1.1168                 1.0802                 1.0988
 Frc consts  --     0.2995                 0.3050                 0.3121
 IR Inten    --    70.6297               114.7170                61.6483
 Raman Activ --     2.4757                 1.0622                 1.8828

                    46                     47                     48
                     A                      A                      A
 Frequencies --   705.8955               731.3445               838.3889
 Red. masses --     1.0990                 1.1116                 2.4785
 Frc consts  --     0.3227                 0.3503                 1.0264
 IR Inten    --   113.4147                93.0123                 6.1502
 Raman Activ --     2.0688                 1.3962                 4.3206

                    49                     50                     51
                     A                      A                      A
 Frequencies --   848.4142               929.4937               963.9647
 Red. masses --     2.5872                 5.3887                 4.2242
 Frc consts  --     1.0972                 2.7430                 2.3127
 IR Inten    --     9.5118               266.6131               107.9042
 Raman Activ --     7.6205                 2.2121                 1.0327

                    52                     53                     54
                     A                      A                      A
 Frequencies --   975.7246               983.9484               994.7075
 Red. masses --     5.3187                 5.7895                 4.1427
 Frc consts  --     2.9834                 3.3024                 2.4150
 IR Inten    --    56.0271                95.8285                73.3436
 Raman Activ --     4.1461                 2.1240                 5.6893

                    55                     56                     57
                     A                      A                      A
 Frequencies --   997.5888              1014.7872              1022.5260
 Red. masses --     3.5820                 4.6557                 2.2927
 Frc consts  --     2.1003                 2.8248                 1.4124
 IR Inten    --    46.1902               143.5411               205.8063
 Raman Activ --     5.3397                 2.2147                 3.9462

                    58                     59                     60
                     A                      A                      A
 Frequencies --  1044.2114              1049.0111              1060.1356
 Red. masses --     3.7916                 6.1981                 3.7340
 Frc consts  --     2.4358                 4.0185                 2.4725
 IR Inten    --   165.5034               105.2767                44.1408
 Raman Activ --     2.5574                 0.9458                 6.6880

                    61                     62                     63
                     A                      A                      A
 Frequencies --  1062.4864              1075.1925              1085.8891
 Red. masses --     3.9145                 4.6054                 4.3743
 Frc consts  --     2.6036                 3.1368                 3.0390
 IR Inten    --   100.8348                72.0530                87.9761
 Raman Activ --     3.8425                15.5814                 3.8790

                    64                     65                     66
                     A                      A                      A
 Frequencies --  1095.1080              1098.8738              1103.7250
 Red. masses --     3.4320                 2.6716                 2.5854
 Frc consts  --     2.4250                 1.9007                 1.8557
 IR Inten    --   109.8666                12.4113                46.3400
 Raman Activ --     2.2319                 4.1016                 8.9476

                    67                     68                     69
                     A                      A                      A
 Frequencies --  1109.7577              1122.5742              1139.9551
 Red. masses --     2.7705                 2.0936                 2.6812
 Frc consts  --     2.0103                 1.5544                 2.0529
 IR Inten    --    29.8488                20.0775                40.1051
 Raman Activ --     3.8117                 5.4350                 5.2341

                    70                     71                     72
                     A                      A                      A
 Frequencies --  1149.3958              1155.0357              1166.8403
 Red. masses --     2.2707                 1.7601                 1.5809
 Frc consts  --     1.7675                 1.3835                 1.2682
 IR Inten    --    19.8709                14.5624                31.0817
 Raman Activ --     2.3016                 1.4767                 2.9337

                    73                     74                     75
                     A                      A                      A
 Frequencies --  1172.6514              1175.9583              1186.1723
 Red. masses --     1.3534                 2.3534                 2.0278
 Frc consts  --     1.0965                 1.9175                 1.6810
 IR Inten    --    39.5432                14.1423                 5.5998
 Raman Activ --     1.1321                 2.4322                 1.5732

                    76                     77                     78
                     A                      A                      A
 Frequencies --  1190.5657              1207.8275              1217.6365
 Red. masses --     1.8094                 1.3130                 1.6976
 Frc consts  --     1.5111                 1.1286                 1.4830
 IR Inten    --     8.5713                15.4994                25.9100
 Raman Activ --     1.4746                 2.9304                 1.8550

                    79                     80                     81
                     A                      A                      A
 Frequencies --  1221.7212              1246.1651              1250.9078
 Red. masses --     1.2102                 1.2695                 1.3088
 Frc consts  --     1.0643                 1.1615                 1.2067
 IR Inten    --     2.6884                 6.7052                 3.8777
 Raman Activ --     3.2502                 1.2809                 0.7165

                    82                     83                     84
                     A                      A                      A
 Frequencies --  1264.1672              1266.7177              1281.5410
 Red. masses --     1.2713                 1.1594                 1.2692
 Frc consts  --     1.1970                 1.0961                 1.2281
 IR Inten    --    11.2270                 7.9835                12.0476
 Raman Activ --     3.3948                 4.8630                 2.9085

                    85                     86                     87
                     A                      A                      A
 Frequencies --  1286.1068              1291.5944              1298.9102
 Red. masses --     1.2182                 1.2592                 1.3357
 Frc consts  --     1.1872                 1.2376                 1.3277
 IR Inten    --    13.2905                16.9877                16.6047
 Raman Activ --     0.9523                 1.1116                 3.2279

                    88                     89                     90
                     A                      A                      A
 Frequencies --  1301.4019              1310.8375              1322.2464
 Red. masses --     1.2197                 1.3425                 1.3181
 Frc consts  --     1.2171                 1.3591                 1.3578
 IR Inten    --    51.7223                51.2701                 7.8754
 Raman Activ --     5.7907                 1.2894                 3.8585

                    91                     92                     93
                     A                      A                      A
 Frequencies --  1325.8782              1332.9871              1345.0426
 Red. masses --     1.3469                 1.2457                 1.3736
 Frc consts  --     1.3950                 1.3041                 1.4641
 IR Inten    --    36.4266                62.9106                26.5706
 Raman Activ --     8.5748                 2.3677                 5.9718

                    94                     95                     96
                     A                      A                      A
 Frequencies --  1353.4433              1356.5897              1375.9050
 Red. masses --     1.6276                 1.2729                 1.4223
 Frc consts  --     1.7566                 1.3802                 1.5864
 IR Inten    --    13.2974                15.4805                23.2407
 Raman Activ --     1.9524                 3.9165                 3.3996

                    97                     98                     99
                     A                      A                      A
 Frequencies --  1380.4880              1381.7072              1402.9260
 Red. masses --     1.3782                 1.3937                 1.7347
 Frc consts  --     1.5475                 1.5676                 2.0116
 IR Inten    --     0.2525                 1.6850                 8.1214
 Raman Activ --     5.0284                 1.3158                 5.0504

                   100                    101                    102
                     A                      A                      A
 Frequencies --  1412.4515              1417.0178              1419.1015
 Red. masses --     1.2355                 1.6078                 1.1752
 Frc consts  --     1.4522                 1.9021                 1.3944
 IR Inten    --     7.1812                54.6224                73.0079
 Raman Activ --     4.9343                 3.1437                 3.9560

                   103                    104                    105
                     A                      A                      A
 Frequencies --  1437.9625              1463.3366              1464.8526
 Red. masses --     1.7539                 1.0847                 1.3672
 Frc consts  --     2.1367                 1.3686                 1.7284
 IR Inten    --    16.8269                 5.6449                15.1667
 Raman Activ --     5.6840                 5.9989                 0.2250

                   106                    107                    108
                     A                      A                      A
 Frequencies --  1475.3560              1479.3528              3264.3823
 Red. masses --     1.1737                 1.2851                 1.0824
 Frc consts  --     1.5053                 1.6570                 6.7957
 IR Inten    --    15.5903                28.0948                16.7228
 Raman Activ --     6.7744                 1.8689                69.1409

                   109                    110                    111
                     A                      A                      A
 Frequencies --  3271.7977              3282.3491              3288.6631
 Red. masses --     1.0573                 1.0603                 1.0819
 Frc consts  --     6.6686                 6.7306                 6.8944
 IR Inten    --    33.7469                20.0543                 8.4005
 Raman Activ --    82.3888                50.8382                95.2956

                   112                    113                    114
                     A                      A                      A
 Frequencies --  3292.7059              3295.8840              3298.3959
 Red. masses --     1.0843                 1.0843                 1.0849
 Frc consts  --     6.9265                 6.9394                 6.9543
 IR Inten    --     6.4497                 3.2762                 4.3285
 Raman Activ --    50.8829                93.4429                21.5626

                   115                    116                    117
                     A                      A                      A
 Frequencies --  3299.0106              3308.3438              3310.6322
 Red. masses --     1.0851                 1.0863                 1.0869
 Frc consts  --     6.9579                 7.0050                 7.0188
 IR Inten    --    18.3155                13.9404                 1.3707
 Raman Activ --    22.8622               101.4385                51.7449

                   118                    119                    120
                     A                      A                      A
 Frequencies --  3316.8129              3321.5478              3329.4866
 Red. masses --     1.0875                 1.0882                 1.1046
 Frc consts  --     7.0487                 7.0736                 7.2145
 IR Inten    --    32.3084                43.8986                50.4053
 Raman Activ --    66.7797                 2.1753                42.1650

                   121                    122                    123
                     A                      A                      A
 Frequencies --  3348.2359              3375.3358              3382.2707
 Red. masses --     1.1058                 1.0658                 1.0666
 Frc consts  --     7.3041                 7.1543                 7.1893
 IR Inten    --    27.4201               111.3326                32.4306
 Raman Activ --    43.4550               139.3633               161.3699

                   124                    125                    126
                     A                      A                      A
 Frequencies --  3388.8730              3390.1708              3390.2294
 Red. masses --     1.0675                 1.0701                 1.0672
 Frc consts  --     7.2229                 7.2462                 7.2267
 IR Inten    --    43.6303                22.3078                20.5718
 Raman Activ --   104.8324                55.7690               167.7986

                   127                    128                    129
                     A                      A                      A
 Frequencies --  3404.4712              3912.5480              3918.9426
 Red. masses --     1.0670                 1.0675                 1.0674
 Frc consts  --     7.2865                 9.6278                 9.6583
 IR Inten    --    70.1412                50.6697                49.2017
 Raman Activ --   116.6484               119.3996               152.2811

 - Thermochemistry -
 -------------------
 Temperature   298.150 Kelvin.  Pressure   1.00000 Atm.
 Atom     1 has atomic number  8 and mass  15.99491

 Molecular mass:   342.11621 amu.
 Principal axes and moments of inertia in atomic units:
                           1         2         3
     Eigenvalues --  4626.97411********************
           X            0.99999  -0.00412  -0.00099
           Y            0.00412   0.99999  -0.00087
           Z            0.00099   0.00087   1.00000
 This molecule is an asymmetric top.
 Rotational symmetry number  1.
 Warning -- assumption of classical behavior for rotation
           may cause significant error
 Rotational temperatures (Kelvin)      0.01872     0.00719     0.00541
 Rotational constants (GHZ):           0.39005     0.14989     0.11280
    8 imaginary frequencies ignored.
 Zero-point vibrational energy     974229.7 (Joules/Mol)
                                  232.84649 (Kcal/Mol)
 Warning -- explicit consideration of  30 degrees of freedom as
           vibrations may cause significant error
 Vibrational temperatures:     12.42    65.48   107.17   163.53   173.16
          (Kelvin)            205.06   235.72   263.92   308.12   363.90
                              391.98   406.34   418.92   458.58   467.60
                              497.10   515.35   554.21   558.33   603.30
                              622.62   643.93   705.23   708.90   741.47
                              792.07   806.56   825.14   861.95   876.77
                              898.10   935.54   950.85   965.80   970.66
                              995.96   998.97  1015.62  1052.24  1206.25
                             1220.68  1337.33  1386.93  1403.85  1415.68
                             1431.16  1435.31  1460.05  1471.19  1502.39
                             1509.29  1525.30  1528.68  1546.96  1562.35
                             1575.61  1581.03  1588.01  1596.69  1615.13
                             1640.14  1653.72  1661.84  1678.82  1687.18
                             1691.94  1706.64  1712.96  1737.79  1751.91
                             1757.78  1792.95  1799.78  1818.85  1822.52
                             1843.85  1850.42  1858.31  1868.84  1872.42
                             1886.00  1902.42  1907.64  1917.87  1935.21
                             1947.30  1951.83  1979.62  1986.21  1987.97
                             2018.50  2032.20  2038.77  2041.77  2068.90
                             2105.41  2107.59  2122.71  2128.46  4696.71
                             4707.38  4722.56  4731.65  4737.46  4742.04
                             4745.65  4746.53  4759.96  4763.26  4772.15
                             4778.96  4790.38  4817.36  4856.35  4866.33
                             4875.83  4877.69  4877.78  4898.27  5629.28
                             5638.48

 Zero-point correction=                           0.371065 (Hartree/Particle)
 Thermal correction to Energy=                    0.388897
 Thermal correction to Enthalpy=                  0.389841
 Thermal correction to Gibbs Free Energy=         0.324287
 Sum of electronic and zero-point Energies=          -1297.554305
 Sum of electronic and thermal Energies=             -1297.536472
 Sum of electronic and thermal Enthalpies=           -1297.535528
 Sum of electronic and thermal Free Energies=        -1297.601083

                     E (Thermal)             CV                S
                      KCal/Mol        Cal/Mol-Kelvin    Cal/Mol-Kelvin
 Total                  244.037             74.232            137.971
 Electronic               0.000              0.000              0.000
 Translational            0.889              2.981             43.384
 Rotational               0.889              2.981             35.143
 Vibrational            242.259             68.271             59.443
 Vibration     1          0.593              1.987              8.302
 Vibration     2          0.595              1.979              5.004
 Vibration     3          0.599              1.966              4.031
 Vibration     4          0.607              1.938              3.205
 Vibration     5          0.609              1.932              3.095
 Vibration     6          0.616              1.911              2.770
 Vibration     7          0.623              1.887              2.505
 Vibration     8          0.631              1.862              2.293
 Vibration     9          0.644              1.819              2.008
 Vibration    10          0.664              1.758              1.710
 Vibration    11          0.675              1.724              1.581
 Vibration    12          0.681              1.706              1.519
 Vibration    13          0.687              1.690              1.467
 Vibration    14          0.705              1.638              1.317
 Vibration    15          0.709              1.625              1.285
 Vibration    16          0.724              1.584              1.187
 Vibration    17          0.733              1.558              1.130
 Vibration    18          0.754              1.502              1.019
 Vibration    19          0.756              1.496              1.008
 Vibration    20          0.782              1.428              0.894
 Vibration    21          0.794              1.399              0.850
 Vibration    22          0.807              1.366              0.803
 Vibration    23          0.846              1.272              0.683
 Vibration    24          0.848              1.266              0.677
 Vibration    25          0.870              1.216              0.621
 Vibration    26          0.906              1.139              0.543
 Vibration    27          0.916              1.117              0.523
 Vibration    28          0.930              1.089              0.498
 Vibration    29          0.957              1.034              0.451
 Vibration    30          0.968              1.012              0.434

 Normal termination of Gaussian 09 at Tue Mar  1 17:22:11 2016.
