 Gaussian 09, Revision B.01,
 Gaussian 09:  EM64L-G09RevB.01 12-Aug-2010

 -------------------------------------------------
 # freq=raman b3lyp/6-31+g(2d,p) geom=connectivity
 -------------------------------------------------

 -----------------
 450 7183/7183.com
 -----------------
 Symbolic Z-matrix:
 Charge =  0 Multiplicity = 1

                         Standard orientation:
 ---------------------------------------------------------------------
 Center     Atomic      Atomic             Coordinates (Angstroms)
 Number     Number       Type             X           Y           Z
 ---------------------------------------------------------------------
      1          8           0       -4.759058    0.566931   -0.822625
      2          6           0       -3.849750    0.182617    0.219024
      3          6           0       -3.339060   -1.136042   -0.339383
      4          8           0       -4.322029   -2.165272   -0.162303
      5          1           0       -5.177902   -1.778087   -0.506503
      6          6           0       -1.981467   -1.556564    0.199278
      7          8           0       -1.499470   -2.791444   -0.350137
      8          1           0       -2.227583   -3.222788   -0.882611
      9          6           0       -2.980984    2.640315    0.635012
     10          8           0       -2.007283    3.583546    0.163109
     11          1           0       -2.357485    4.511527    0.285519
     12          6           0       -2.741485    1.219550    0.151007
     13          8           0       -1.565468    0.705500    0.792839
     14          6           0       -1.020487   -0.389440    0.043048
     15          8           0        0.205295   -0.608020    0.756139
     16          6           0        1.438622   -0.353108    0.068710
     17          6           0        1.795850    1.123158    0.002346
     18          8           0        0.843962    1.804546   -0.828042
     19          1           0       -0.073788    1.775036   -0.432304
     20          6           0        3.190187    1.383326   -0.543472
     21          8           0        3.491221    2.747624   -0.213913
     22          1           0        2.950183    3.291883   -0.853818
     23          6           0        2.303257   -2.677536    0.670585
     24          8           0        1.769986   -3.185364   -0.560235
     25          1           0        0.806280   -3.438827   -0.467559
     26          6           0        2.531617   -1.176394    0.732038
     27          8           0        3.688631   -0.935116   -0.081441
     28          6           0        4.142563    0.409426    0.131585
     29          8           0        5.484579    0.375514   -0.376374
     30          1           0       -5.648013    0.288971   -0.590040
     31          1           0       -2.967761    2.642922    1.704927
     32          1           0       -3.948735    2.954760    0.304132
     33          1           0       -2.496715    1.308315   -0.886831
     34          1           0       -4.311315    0.097342    1.180578
     35          1           0       -3.221705   -0.998759   -1.394030
     36          1           0       -2.102969   -1.717015    1.250179
     37          1           0       -0.853186   -0.131216   -0.981760
     38          1           0        6.045649   -0.108413    0.234048
     39          1           0        4.167749    0.611585    1.182012
     40          1           0        3.205542    1.244578   -1.604327
     41          1           0        1.737489    1.530264    0.990151
     42          1           0        1.329829   -0.705362   -0.935771
     43          1           0        2.699093   -0.853447    1.738296
     44          1           0        1.630078   -2.943359    1.458664
     45          1           0        3.239160   -3.163314    0.852257
 ---------------------------------------------------------------------

 SCF Done:  E(RB3LYP) =  -1297.99994312     A.U. after   14 cycles

 The electronic state is 1-A.
 Alpha  occ. eigenvalues --  -19.19366 -19.19051 -19.18194 -19.17758 -19.17221
 Alpha  occ. eigenvalues --  -19.16533 -19.15272 -19.15009 -19.14844 -19.14737
 Alpha  occ. eigenvalues --  -19.13670 -10.30580 -10.28593 -10.27563 -10.26534
 Alpha  occ. eigenvalues --  -10.26438 -10.25790 -10.25306 -10.23809 -10.23482
 Alpha  occ. eigenvalues --  -10.23204 -10.23152 -10.22152  -1.09966  -1.08214
 Alpha  occ. eigenvalues --   -1.07038  -1.05603  -1.04002  -1.03541  -1.03129
 Alpha  occ. eigenvalues --   -1.02375  -1.00642  -1.00367  -0.99527  -0.82072
 Alpha  occ. eigenvalues --   -0.81269  -0.78108  -0.77228  -0.72170  -0.69572
 Alpha  occ. eigenvalues --   -0.67356  -0.64826  -0.63522  -0.62881  -0.60755
 Alpha  occ. eigenvalues --   -0.59641  -0.57413  -0.56179  -0.55140  -0.53992
 Alpha  occ. eigenvalues --   -0.53953  -0.53095  -0.52519  -0.51853  -0.50924
 Alpha  occ. eigenvalues --   -0.49846  -0.49356  -0.49084  -0.47419  -0.46632
 Alpha  occ. eigenvalues --   -0.46141  -0.45107  -0.44969  -0.43438  -0.42978
 Alpha  occ. eigenvalues --   -0.42850  -0.42498  -0.40403  -0.40098  -0.39761
 Alpha  occ. eigenvalues --   -0.39380  -0.38112  -0.37535  -0.36164  -0.36012
 Alpha  occ. eigenvalues --   -0.35145  -0.34804  -0.34230  -0.32819  -0.32548
 Alpha  occ. eigenvalues --   -0.32429  -0.31440  -0.30959  -0.30531  -0.29997
 Alpha  occ. eigenvalues --   -0.29873  -0.29214  -0.28475  -0.27171  -0.26737
 Alpha  occ. eigenvalues --   -0.25472
 Alpha virt. eigenvalues --   -0.04274  -0.01759  -0.01015   0.00191   0.00564
 Alpha virt. eigenvalues --    0.01616   0.01809   0.02415   0.02776   0.03410
 Alpha virt. eigenvalues --    0.04203   0.04474   0.05057   0.05248   0.05664

 Mulliken atomic charges:
              1
     1  O   -0.551174
     2  C   -0.032187
     3  C    0.201802
     4  O   -0.545329
     5  H    0.313358
     6  C   -0.298191
     7  O   -0.576818
     8  H    0.354414
     9  C   -0.452097
    10  O   -0.501251
    11  H    0.345210
    12  C    0.302284
    13  O   -0.262023
    14  C    0.366776
    15  O   -0.289942
    16  C    0.137871
    17  C    0.254939
    18  O   -0.583849
    19  H    0.374850
    20  C   -0.114905
    21  O   -0.510475
    22  H    0.345056
    23  C   -0.381433
    24  O   -0.499659
    25  H    0.353624
    26  C    0.272560
    27  O   -0.272143
    28  C    0.201369
    29  O   -0.514777
    30  H    0.323502
    31  H    0.146769
    32  H    0.149178
    33  H    0.126550
    34  H    0.137593
    35  H    0.138070
    36  H    0.135758
    37  H    0.154509
    38  H    0.322930
    39  H    0.117751
    40  H    0.138728
    41  H    0.131740
    42  H    0.142475
    43  H    0.110020
    44  H    0.141181
    45  H    0.145389
 Sum of Mulliken atomic charges =   0.00000

 Dipole moment (field-independent basis, Debye):
    X=             -8.8400    Y=              1.1560    Z=              2.3131  Tot=              9.2105
 Quadrupole moment (field-independent basis, Debye-Ang):
   XX=           -115.8291   YY=           -139.1178   ZZ=           -138.0596
   XY=             -9.6734   XZ=             11.2121   YZ=             -0.2222

  Exact polarizability: 224.798   2.075 196.853   2.637  -0.627 146.331
 Approx polarizability: 269.346   0.680 256.189   2.832   0.184 243.275

 ******    7 imaginary frequencies (negative Signs) ******

                     1                      2                      3
                     A                      A                      A
 Frequencies --  -239.6414              -237.8183              -181.3180
 Red. masses --     1.0831                 1.7915                 1.4402
 Frc consts  --     0.0366                 0.0597                 0.0279
 IR Inten    --   111.5617                 5.3109                92.4934
 Raman Activ --     1.4973                 0.0673                 0.8139

                     4                      5                      6
                     A                      A                      A
 Frequencies --  -168.8495               -70.3050               -43.0461
 Red. masses --     1.6826                 5.3686                 5.9848
 Frc consts  --     0.0283                 0.0156                 0.0065
 IR Inten    --     1.1535                 8.4056                 1.2707
 Raman Activ --     0.1402                 0.0777                 0.1014

                     7                      8                      9
                     A                      A                      A
 Frequencies --   -17.7339                36.3558                71.8028
 Red. masses --     6.2707                 6.5929                 6.0346
 Frc consts  --     0.0012                 0.0051                 0.0183
 IR Inten    --     2.8455                 0.2397                 0.3127
 Raman Activ --     0.0700                 0.0344                 0.1519

                    10                     11                     12
                     A                      A                      A
 Frequencies --    78.8665                87.2198               104.8021
 Red. masses --     6.0643                 6.0127                 6.0907
 Frc consts  --     0.0222                 0.0269                 0.0394
 IR Inten    --     1.5078                 5.5387                 1.3487
 Raman Activ --     0.0563                 0.1040                 0.2883

                    13                     14                     15
                     A                      A                      A
 Frequencies --   135.9390               149.4697               161.5651
 Red. masses --     6.5792                 6.0121                 5.8795
 Frc consts  --     0.0716                 0.0791                 0.0904
 IR Inten    --     2.1529                 0.7964                 0.1655
 Raman Activ --     0.1839                 0.5772                 0.1070

                    16                     17                     18
                     A                      A                      A
 Frequencies --   207.1848               240.3799               257.5443
 Red. masses --     5.5766                 5.7169                 6.4550
 Frc consts  --     0.1410                 0.1946                 0.2523
 IR Inten    --     1.8605                 0.6212                 2.7900
 Raman Activ --     0.8694                 1.2880                 0.9471

                    19                     20                     21
                     A                      A                      A
 Frequencies --   268.9243               274.0109               286.8736
 Red. masses --     4.7728                 5.4571                 6.5381
 Frc consts  --     0.2034                 0.2414                 0.3170
 IR Inten    --     3.3597                 9.4636                 6.0067
 Raman Activ --     0.4903                 0.8796                 0.1176

                    22                     23                     24
                     A                      A                      A
 Frequencies --   300.2203               311.1107               319.7338
 Red. masses --     4.7959                 5.5698                 6.1970
 Frc consts  --     0.2547                 0.3176                 0.3733
 IR Inten    --     8.0571                 1.7968                 3.2902
 Raman Activ --     0.5664                 0.0987                 3.5868

                    25                     26                     27
                     A                      A                      A
 Frequencies --   356.7717               360.3964               404.8970
 Red. masses --     4.3745                 6.3015                 4.1813
 Frc consts  --     0.3281                 0.4822                 0.4039
 IR Inten    --    21.9619                 1.1053                 9.1073
 Raman Activ --     3.1428                 1.6297                 4.8190

                    28                     29                     30
                     A                      A                      A
 Frequencies --   412.8706               424.9273               439.0699
 Red. masses --     4.7221                 5.3279                 5.7063
 Frc consts  --     0.4743                 0.5668                 0.6481
 IR Inten    --     4.1102                 5.2333                 4.0571
 Raman Activ --     1.2346                 3.7356                 0.6185

                    31                     32                     33
                     A                      A                      A
 Frequencies --   477.3930               489.6905               516.6433
 Red. masses --     5.4535                 4.1221                 4.6343
 Frc consts  --     0.7323                 0.5824                 0.7288
 IR Inten    --    10.0931                 1.3071                 7.2787
 Raman Activ --     3.0655                 1.6061                 3.5207

                    34                     35                     36
                     A                      A                      A
 Frequencies --   540.6751               550.5806               570.5278
 Red. masses --     3.6246                 3.6526                 3.9431
 Frc consts  --     0.6243                 0.6524                 0.7562
 IR Inten    --    20.9729                55.4719                21.5791
 Raman Activ --     1.2443                 3.5146                 1.0598

                    37                     38                     39
                     A                      A                      A
 Frequencies --   581.2600               604.4693               619.3498
 Red. masses --     4.0796                 3.7605                 3.3970
 Frc consts  --     0.8121                 0.8096                 0.7678
 IR Inten    --    15.3074                15.7825                25.0797
 Raman Activ --     1.5189                 0.9995                 0.7245

                    40                     41                     42
                     A                      A                      A
 Frequencies --   657.3149               672.1817               681.1505
 Red. masses --     1.1255                 2.9779                 1.1290
 Frc consts  --     0.2865                 0.7928                 0.3086
 IR Inten    --    55.7460                12.8701               106.5696
 Raman Activ --     1.4486                 0.8112                 1.6309

                    43                     44                     45
                     A                      A                      A
 Frequencies --   692.8056               706.1942               739.1532
 Red. masses --     2.0089                 1.3530                 1.1671
 Frc consts  --     0.5681                 0.3976                 0.3757
 IR Inten    --    37.6037               103.5356               123.6044
 Raman Activ --     0.2741                 1.3514                 1.5364

                    46                     47                     48
                     A                      A                      A
 Frequencies --   744.8465               810.2224               847.1544
 Red. masses --     1.1004                 1.0748                 2.7011
 Frc consts  --     0.3597                 0.4157                 1.1422
 IR Inten    --   103.2362                67.0492                 6.1803
 Raman Activ --     1.6865                 1.4962                 3.1779

                    49                     50                     51
                     A                      A                      A
 Frequencies --   862.4471               902.7439               937.3146
 Red. masses --     2.7474                 2.7541                 6.6390
 Frc consts  --     1.2040                 1.3224                 3.4365
 IR Inten    --     7.1812                25.6394               195.3830
 Raman Activ --     2.9308                 2.1970                 2.9851

                    52                     53                     54
                     A                      A                      A
 Frequencies --   959.4760               989.1725               995.1280
 Red. masses --     6.9267                 5.3762                 4.8095
 Frc consts  --     3.7570                 3.0993                 2.8062
 IR Inten    --   140.4204                53.1304                86.9918
 Raman Activ --     1.8151                 2.5971                 3.3727

                    55                     56                     57
                     A                      A                      A
 Frequencies --  1004.8941              1017.1777              1020.7776
 Red. masses --     4.5415                 3.9539                 7.1343
 Frc consts  --     2.7020                 2.4103                 4.3799
 IR Inten    --    49.8393               216.8566               244.9438
 Raman Activ --     2.7502                 3.3195                 0.8942

                    58                     59                     60
                     A                      A                      A
 Frequencies --  1027.9373              1042.6635              1044.7536
 Red. masses --     3.8330                 3.9078                 4.0583
 Frc consts  --     2.3863                 2.5031                 2.6099
 IR Inten    --    26.4219               228.4824               105.5383
 Raman Activ --     1.8157                 9.1789                 1.2028

                    61                     62                     63
                     A                      A                      A
 Frequencies --  1050.2471              1061.4167              1070.1078
 Red. masses --     3.6108                 3.1456                 3.3354
 Frc consts  --     2.3466                 2.0880                 2.2504
 IR Inten    --    10.7678                54.2384                91.7383
 Raman Activ --     3.6491                 8.1175                10.4779

                    64                     65                     66
                     A                      A                      A
 Frequencies --  1081.1991              1094.0545              1102.8010
 Red. masses --     3.4863                 2.3333                 2.8438
 Frc consts  --     2.4012                 1.6455                 2.0377
 IR Inten    --    33.4033                28.2312                 5.3137
 Raman Activ --     4.6728                 5.5010                 4.0178

                    67                     68                     69
                     A                      A                      A
 Frequencies --  1108.9803              1115.1071              1125.6243
 Red. masses --     3.7813                 3.3801                 2.3579
 Frc consts  --     2.7399                 2.4763                 1.7602
 IR Inten    --    18.2854                 9.3940                32.9578
 Raman Activ --     5.4650                 1.2211                 3.1090

                    70                     71                     72
                     A                      A                      A
 Frequencies --  1135.3728              1143.9289              1153.4173
 Red. masses --     2.1485                 2.6005                 2.1275
 Frc consts  --     1.6318                 2.0049                 1.6676
 IR Inten    --    10.2367                70.5300                47.0761
 Raman Activ --     5.3861                 1.6130                 4.8803

                    73                     74                     75
                     A                      A                      A
 Frequencies --  1162.3881              1169.7411              1174.1602
 Red. masses --     2.5031                 1.5286                 1.6070
 Frc consts  --     1.9926                 1.2324                 1.3054
 IR Inten    --     4.2402                13.0395                 6.0698
 Raman Activ --     4.2644                 1.0377                 2.0030

                    76                     77                     78
                     A                      A                      A
 Frequencies --  1191.9971              1200.7834              1226.6973
 Red. masses --     1.6224                 1.3308                 1.1799
 Frc consts  --     1.3582                 1.1305                 1.0461
 IR Inten    --     9.0284                 4.8845                 8.4182
 Raman Activ --     3.3164                 1.8867                 4.1103

                    79                     80                     81
                     A                      A                      A
 Frequencies --  1238.7916              1243.2824              1252.2356
 Red. masses --     1.3708                 1.1338                 1.1574
 Frc consts  --     1.2394                 1.0326                 1.0693
 IR Inten    --     0.8750                 6.2444                10.5969
 Raman Activ --     1.3874                 3.2425                 1.3988

                    82                     83                     84
                     A                      A                      A
 Frequencies --  1262.3724              1267.2864              1279.3059
 Red. masses --     1.2144                 1.2099                 1.4054
 Frc consts  --     1.1402                 1.1448                 1.3552
 IR Inten    --    17.6187                 8.2482                31.0818
 Raman Activ --     1.7152                 3.6427                 2.5108

                    85                     86                     87
                     A                      A                      A
 Frequencies --  1284.4321              1300.6951              1304.4256
 Red. masses --     1.2249                 1.3008                 1.2313
 Frc consts  --     1.1906                 1.2966                 1.2344
 IR Inten    --     2.6090                 7.7159                34.1157
 Raman Activ --     1.6670                 1.3398                 1.5140

                    88                     89                     90
                     A                      A                      A
 Frequencies --  1308.2955              1321.2207              1327.7771
 Red. masses --     1.2766                 1.3149                 1.3660
 Frc consts  --     1.2874                 1.3523                 1.4189
 IR Inten    --    33.0893                24.5295                19.9560
 Raman Activ --     5.3535                 6.6683                 4.3720

                    91                     92                     93
                     A                      A                      A
 Frequencies --  1332.7477              1351.1937              1352.7380
 Red. masses --     1.3112                 1.3961                 1.4060
 Frc consts  --     1.3722                 1.5017                 1.5159
 IR Inten    --     5.4492                17.4387                37.2624
 Raman Activ --     2.5220                 6.0713                 2.5025

                    94                     95                     96
                     A                      A                      A
 Frequencies --  1354.6630              1365.5231              1369.5859
 Red. masses --     1.2702                 1.4244                 1.2488
 Frc consts  --     1.3734                 1.5649                 1.3801
 IR Inten    --    20.5236                 3.9422                19.7814
 Raman Activ --     2.5406                 6.7659                 2.0616

                    97                     98                     99
                     A                      A                      A
 Frequencies --  1382.3779              1384.3915              1395.3462
 Red. masses --     1.4088                 1.5181                 1.3855
 Frc consts  --     1.5862                 1.7143                 1.5894
 IR Inten    --     6.9475                11.4127                10.9867
 Raman Activ --     0.8444                 7.3302                 5.6987

                   100                    101                    102
                     A                      A                      A
 Frequencies --  1423.4929              1440.9445              1446.6410
 Red. masses --     1.4526                 1.0808                 1.3355
 Frc consts  --     1.7342                 1.3222                 1.6468
 IR Inten    --    14.5034                 7.7876                19.2825
 Raman Activ --     3.6130                 4.6793                 1.4706

                   103                    104                    105
                     A                      A                      A
 Frequencies --  1447.7882              1457.8961              1460.4334
 Red. masses --     1.3670                 1.2348                 1.2664
 Frc consts  --     1.6882                 1.5463                 1.5915
 IR Inten    --    15.0260                34.8575                27.6149
 Raman Activ --     0.7754                 5.1755                 3.9182

                   106                    107                    108
                     A                      A                      A
 Frequencies --  1462.7717              1477.6915              3260.9377
 Red. masses --     1.2116                 1.4597                 1.0597
 Frc consts  --     1.5275                 1.8779                 6.6391
 IR Inten    --    79.4754                46.6769                30.6796
 Raman Activ --     3.0828                 3.3928               110.3051

                   109                    110                    111
                     A                      A                      A
 Frequencies --  3265.2994              3268.9755              3273.2976
 Red. masses --     1.0612                 1.0807                 1.0840
 Frc consts  --     6.6667                 6.8039                 6.8428
 IR Inten    --    20.5233                 4.0500                 9.7103
 Raman Activ --    83.5021                39.8777                 8.4870

                   112                    113                    114
                     A                      A                      A
 Frequencies --  3273.7858              3281.4370              3284.2724
 Red. masses --     1.0814                 1.0835                 1.0819
 Frc consts  --     6.8289                 6.8737                 6.8756
 IR Inten    --    13.6759                 6.6355                21.3379
 Raman Activ --   104.4088                79.7563                49.5582

                   115                    116                    117
                     A                      A                      A
 Frequencies --  3286.1559              3295.8290              3299.6395
 Red. masses --     1.0834                 1.0857                 1.0865
 Frc consts  --     6.8931                 6.9486                 6.9695
 IR Inten    --    22.4607                 1.6212                11.1964
 Raman Activ --   150.1425                30.2503                 5.9153

                   118                    119                    120
                     A                      A                      A
 Frequencies --  3307.2042              3308.7256              3316.6255
 Red. masses --     1.0865                 1.0884                 1.1058
 Frc consts  --     7.0014                 7.0203                 7.1670
 IR Inten    --    40.3062                41.4528                34.3593
 Raman Activ --    21.3870                27.5886                53.3271

                   121                    122                    123
                     A                      A                      A
 Frequencies --  3321.4624              3354.8269              3357.9132
 Red. masses --     1.1026                 1.0723                 1.0669
 Frc consts  --     7.1666                 7.1108                 7.0878
 IR Inten    --    61.6971                30.3042               278.4291
 Raman Activ --    92.7662                30.5340               263.0344

                   124                    125                    126
                     A                      A                      A
 Frequencies --  3358.8282              3373.9622              3381.2299
 Red. masses --     1.0650                 1.0669                 1.0675
 Frc consts  --     7.0790                 7.1555                 7.1905
 IR Inten    --     5.9705                45.3987                54.1081
 Raman Activ --    72.9200                67.2114               167.7183

                   127                    128                    129
                     A                      A                      A
 Frequencies --  3387.4325              3879.6544              3888.4471
 Red. masses --     1.0659                 1.0673                 1.0669
 Frc consts  --     7.2060                 9.4647                 9.5045
 IR Inten    --    46.4847                39.3492                62.2522
 Raman Activ --    76.5373               118.2973               118.8587

 - Thermochemistry -
 -------------------
 Temperature   298.150 Kelvin.  Pressure   1.00000 Atm.
 Atom     1 has atomic number  8 and mass  15.99491

 Molecular mass:   342.11621 amu.
 Principal axes and moments of inertia in atomic units:
                           1         2         3
     Eigenvalues --  4547.06200********************
           X            0.99996  -0.00779   0.00313
           Y            0.00780   0.99997  -0.00093
           Z           -0.00312   0.00095   0.99999
 This molecule is an asymmetric top.
 Rotational symmetry number  1.
 Warning -- assumption of classical behavior for rotation
           may cause significant error
 Rotational temperatures (Kelvin)      0.01905     0.00760     0.00569
 Rotational constants (GHZ):           0.39690     0.15839     0.11848
    7 imaginary frequencies ignored.
 Zero-point vibrational energy     973086.4 (Joules/Mol)
                                  232.57324 (Kcal/Mol)
 Warning -- explicit consideration of  32 degrees of freedom as
           vibrations may cause significant error
 Vibrational temperatures:     52.31   103.31   113.47   125.49   150.79
          (Kelvin)            195.59   215.05   232.46   298.09   345.85
                              370.55   386.92   394.24   412.75   431.95
                              447.62   460.03   513.31   518.53   582.56
                              594.03   611.37   631.72   686.86   704.55
                              743.33   777.91   792.16   820.86   836.30
                              869.70   891.11   945.73   967.12   980.02
                              996.79  1016.05  1063.48  1071.67  1165.73
                             1218.86  1240.87  1298.85  1348.58  1380.47
                             1423.20  1431.77  1445.82  1463.49  1468.67
                             1478.97  1500.16  1503.17  1511.07  1527.14
                             1539.64  1555.60  1574.10  1586.68  1595.57
                             1604.39  1619.52  1633.55  1645.86  1659.51
                             1672.42  1682.99  1689.35  1715.02  1727.66
                             1764.94  1782.34  1788.80  1801.69  1816.27
                             1823.34  1840.63  1848.01  1871.41  1876.78
                             1882.34  1900.94  1910.37  1917.52  1944.06
                             1946.29  1949.06  1964.68  1970.53  1988.93
                             1991.83  2007.59  2048.09  2073.20  2081.39
                             2083.04  2097.58  2101.24  2104.60  2126.07
                             4691.76  4698.03  4703.32  4709.54  4710.24
                             4721.25  4725.33  4728.04  4741.96  4747.44
                             4758.32  4760.51  4771.88  4778.84  4826.84
                             4831.28  4832.60  4854.37  4864.83  4873.75
                             5581.95  5594.60

 Zero-point correction=                           0.370629 (Hartree/Particle)
 Thermal correction to Energy=                    0.389093
 Thermal correction to Enthalpy=                  0.390037
 Thermal correction to Gibbs Free Energy=         0.324681
 Sum of electronic and zero-point Energies=          -1297.629314
 Sum of electronic and thermal Energies=             -1297.610851
 Sum of electronic and thermal Enthalpies=           -1297.609906
 Sum of electronic and thermal Free Energies=        -1297.675262

                     E (Thermal)             CV                S
                      KCal/Mol        Cal/Mol-Kelvin    Cal/Mol-Kelvin
 Total                  244.159             76.159            137.552
 Electronic               0.000              0.000              0.000
 Translational            0.889              2.981             43.384
 Rotational               0.889              2.981             35.022
 Vibrational            242.382             70.198             59.146
 Vibration     1          0.594              1.982              5.448
 Vibration     2          0.598              1.967              4.103
 Vibration     3          0.600              1.963              3.919
 Vibration     4          0.601              1.958              3.721
 Vibration     5          0.605              1.945              3.363
 Vibration     6          0.614              1.917              2.860
 Vibration     7          0.618              1.903              2.679
 Vibration     8          0.622              1.890              2.531
 Vibration     9          0.641              1.830              2.068
 Vibration    10          0.657              1.779              1.800
 Vibration    11          0.667              1.750              1.678
 Vibration    12          0.673              1.730              1.603
 Vibration    13          0.676              1.721              1.571
 Vibration    14          0.684              1.698              1.492
 Vibration    15          0.693              1.673              1.416
 Vibration    16          0.700              1.653              1.356
 Vibration    17          0.706              1.636              1.311
 Vibration    18          0.732              1.561              1.136
 Vibration    19          0.735              1.554              1.120
 Vibration    20          0.770              1.460              0.945
 Vibration    21          0.777              1.442              0.917
 Vibration    22          0.787              1.416              0.875
 Vibration    23          0.799              1.385              0.830
 Vibration    24          0.834              1.300              0.717
 Vibration    25          0.846              1.273              0.684
 Vibration    26          0.872              1.213              0.618
 Vibration    27          0.896              1.160              0.564
 Vibration    28          0.906              1.138              0.543
 Vibration    29          0.927              1.095              0.503
 Vibration    30          0.938              1.072              0.483
 Vibration    31          0.963              1.022              0.442
 Vibration    32          0.979              0.991              0.418

 Normal termination of Gaussian 09 at Mon Mar 28 11:21:52 2016.
