 Gaussian 09, Revision B.01,
 Gaussian 09:  EM64L-G09RevB.01 12-Aug-2010

 -------------------------------------------------
 # freq=raman b3lyp/6-31+g(2d,p) geom=connectivity
 -------------------------------------------------

 -----------------
 483 6115/6115.com
 -----------------
 Symbolic Z-matrix:
 Charge =  0 Multiplicity = 1

                         Standard orientation:
 ---------------------------------------------------------------------
 Center     Atomic      Atomic             Coordinates (Angstroms)
 Number     Number       Type             X           Y           Z
 ---------------------------------------------------------------------
      1          8           0       -5.076428   -0.313539    0.576978
      2          6           0       -3.785496   -0.125166   -0.023049
      3          6           0       -3.239326    1.251569    0.318106
      4          8           0       -4.138575    2.236562   -0.212550
      5          1           0       -5.043299    1.824806   -0.104903
      6          6           0       -1.807079    1.484848   -0.134451
      7          8           0       -1.264877    2.744516    0.287694
      8          1           0       -0.317573    2.822406   -0.023728
      9          6           0       -2.976103   -2.564939   -0.232849
     10          8           0       -4.252222   -3.165499    0.030611
     11          1           0       -4.127259   -4.149744   -0.094257
     12          6           0       -2.715111   -1.159741    0.282528
     13          8           0       -1.419649   -0.778165   -0.202602
     14          6           0       -0.809030    0.421230    0.294312
     15          8           0        0.349589    0.550100   -0.543113
     16          6           0        1.577457    0.191816    0.107301
     17          6           0        2.021174   -1.175515   -0.384745
     18          8           0        0.980214   -2.156939   -0.280927
     19          1           0        0.242449   -1.760739   -0.826617
     20          6           0        3.341577   -1.580084    0.251110
     21          8           0        3.864273   -2.770219   -0.356538
     22          1           0        4.747536   -2.920415    0.086231
     23          6           0        2.265240    2.703562    0.086126
     24          8           0        1.196412    3.337774   -0.630600
     25          1           0        1.353366    4.316198   -0.499296
     26          6           0        2.617265    1.254413   -0.208860
     27          8           0        3.843384    0.872094    0.430680
     28          6           0        4.272866   -0.414311   -0.039864
     29          8           0        5.426214   -0.657752    0.778749
     30          1           0        6.166595   -0.909283    0.221822
     31          1           0        4.539316   -0.379077   -1.075559
     32          1           0        3.225720   -1.714425    1.306301
     33          1           0        2.218541   -1.065204   -1.430583
     34          1           0        1.420135    0.153758    1.164988
     35          1           0        2.792852    1.198693   -1.262883
     36          1           0        3.147938    3.284654   -0.081433
     37          1           0       -5.723118   -0.500882   -0.107342
     38          1           0       -2.226573   -3.205191    0.183304
     39          1           0       -2.840224   -2.549366   -1.294072
     40          1           0       -2.644476   -1.226145    1.348127
     41          1           0       -3.936109   -0.145066   -1.082209
     42          1           0       -3.254600    1.345556    1.383860
     43          1           0       -1.817852    1.490639   -1.204381
     44          1           0       -0.600344    0.404426    1.343630
     45          1           0        2.029691    2.766830    1.127958
 ---------------------------------------------------------------------

 SCF Done:  E(RB3LYP) =  -1297.98613589     A.U. after   13 cycles

 The electronic state is 1-A.
 Alpha  occ. eigenvalues --  -19.19348 -19.18547 -19.18497 -19.17991 -19.17124
 Alpha  occ. eigenvalues --  -19.17091 -19.17090 -19.16290 -19.14624 -19.14574
 Alpha  occ. eigenvalues --  -19.12351 -10.30895 -10.30321 -10.26353 -10.25864
 Alpha  occ. eigenvalues --  -10.25581 -10.25227 -10.25223 -10.24806 -10.24425
 Alpha  occ. eigenvalues --  -10.23809 -10.23684 -10.23343  -1.10086  -1.09432
 Alpha  occ. eigenvalues --   -1.06116  -1.05242  -1.04273  -1.03894  -1.02949
 Alpha  occ. eigenvalues --   -1.02618  -1.01468  -1.01213  -0.99377  -0.82317
 Alpha  occ. eigenvalues --   -0.79901  -0.79671  -0.77899  -0.72126  -0.69722
 Alpha  occ. eigenvalues --   -0.67115  -0.64885  -0.63438  -0.62067  -0.61879
 Alpha  occ. eigenvalues --   -0.59752  -0.56716  -0.55859  -0.54955  -0.54529
 Alpha  occ. eigenvalues --   -0.54051  -0.53270  -0.52930  -0.51959  -0.51197
 Alpha  occ. eigenvalues --   -0.51023  -0.49881  -0.48835  -0.48524  -0.46877
 Alpha  occ. eigenvalues --   -0.46313  -0.45352  -0.44331  -0.43841  -0.43371
 Alpha  occ. eigenvalues --   -0.42681  -0.41531  -0.41066  -0.40229  -0.40046
 Alpha  occ. eigenvalues --   -0.38692  -0.37937  -0.37816  -0.36597  -0.36206
 Alpha  occ. eigenvalues --   -0.35560  -0.34984  -0.34553  -0.34276  -0.33288
 Alpha  occ. eigenvalues --   -0.32627  -0.31582  -0.31219  -0.30702  -0.29976
 Alpha  occ. eigenvalues --   -0.29020  -0.28601  -0.28542  -0.27172  -0.26655
 Alpha  occ. eigenvalues --   -0.25645
 Alpha virt. eigenvalues --   -0.02187  -0.02082  -0.01684  -0.00195   0.00134
 Alpha virt. eigenvalues --    0.00754   0.01799   0.02535   0.03110   0.03371
 Alpha virt. eigenvalues --    0.03944   0.04419   0.04642   0.05209   0.05836

 Mulliken atomic charges:
              1
     1  O   -0.541922
     2  C   -0.283656
     3  C    0.369839
     4  O   -0.555620
     5  H    0.339066
     6  C    0.044044
     7  O   -0.617460
     8  H    0.431334
     9  C   -0.266429
    10  O   -0.530110
    11  H    0.340480
    12  C    0.243409
    13  O   -0.207164
    14  C    0.059337
    15  O   -0.241470
    16  C    0.343437
    17  C    0.027624
    18  O   -0.502677
    19  H    0.354168
    20  C   -0.004425
    21  O   -0.521882
    22  H    0.330079
    23  C   -0.341312
    24  O   -0.537440
    25  H    0.358221
    26  C    0.006605
    27  O   -0.260018
    28  C    0.197050
    29  O   -0.543805
    30  H    0.334929
    31  H    0.140137
    32  H    0.138025
    33  H    0.114825
    34  H    0.105307
    35  H    0.119788
    36  H    0.149775
    37  H    0.347755
    38  H    0.152232
    39  H    0.140309
    40  H    0.102806
    41  H    0.120527
    42  H    0.118805
    43  H    0.129545
    44  H    0.137141
    45  H    0.158788
 Sum of Mulliken atomic charges =   0.00000

 Dipole moment (field-independent basis, Debye):
    X=              3.4394    Y=             -0.8336    Z=             -1.5243  Tot=              3.8533
 Quadrupole moment (field-independent basis, Debye-Ang):
   XX=           -120.0195   YY=           -136.0373   ZZ=           -139.7605
   XY=             15.8124   XZ=              0.9470   YZ=             -0.3047

  Exact polarizability: 232.155  -0.568 197.008   1.648   0.940 144.017
 Approx polarizability: 273.424   0.651 256.848   3.135   0.943 241.030

 ******    7 imaginary frequencies (negative Signs) ******

                     1                      2                      3
                     A                      A                      A
 Frequencies --  -278.8297              -277.1295              -243.0868
 Red. masses --     1.7113                 1.7860                 1.2159
 Frc consts  --     0.0784                 0.0808                 0.0423
 IR Inten    --     3.3974                 3.6714               116.2623
 Raman Activ --     0.0516                 0.0595                 0.9852

                     4                      5                      6
                     A                      A                      A
 Frequencies --  -164.3822               -79.9995               -60.8095
 Red. masses --     1.2718                 7.0252                 6.1710
 Frc consts  --     0.0202                 0.0265                 0.0134
 IR Inten    --   106.2100                 1.2508                 0.3583
 Raman Activ --     0.5719                 0.0570                 0.0797

                     7                      8                      9
                     A                      A                      A
 Frequencies --   -35.1260                31.6607                61.4151
 Red. masses --     6.3443                 5.9466                 6.4698
 Frc consts  --     0.0046                 0.0035                 0.0144
 IR Inten    --     0.2344                 4.5330                 2.5538
 Raman Activ --     0.0132                 0.0421                 0.0843

                    10                     11                     12
                     A                      A                      A
 Frequencies --    83.0810                89.9374               126.4930
 Red. masses --     6.3209                 6.1560                 5.5072
 Frc consts  --     0.0257                 0.0293                 0.0519
 IR Inten    --     0.3680                 1.9301                 0.8271
 Raman Activ --     0.2408                 0.0750                 0.0964

                    13                     14                     15
                     A                      A                      A
 Frequencies --   154.5654               177.6992               182.3442
 Red. masses --     6.2685                 5.9674                 7.4696
 Frc consts  --     0.0882                 0.1110                 0.1463
 IR Inten    --     2.8927                 4.3286                 1.7767
 Raman Activ --     0.3017                 0.2708                 0.8363

                    16                     17                     18
                     A                      A                      A
 Frequencies --   211.2723               227.3681               250.0185
 Red. masses --     6.8789                 6.0569                 4.4245
 Frc consts  --     0.1809                 0.1845                 0.1630
 IR Inten    --     0.3426                 1.7124                19.1957
 Raman Activ --     1.8430                 1.4273                 0.0943

                    19                     20                     21
                     A                      A                      A
 Frequencies --   277.1507               298.3463               304.1194
 Red. masses --     4.4657                 4.2673                 6.2035
 Frc consts  --     0.2021                 0.2238                 0.3380
 IR Inten    --     2.7619                 0.9499                 3.9622
 Raman Activ --     0.1943                 0.1885                 1.8338

                    22                     23                     24
                     A                      A                      A
 Frequencies --   313.7604               321.6260               326.3098
 Red. masses --     4.9724                 6.2130                 4.7410
 Frc consts  --     0.2884                 0.3787                 0.2974
 IR Inten    --     1.5478                 5.7442                 0.8194
 Raman Activ --     0.5109                 2.4117                 3.1024

                    25                     26                     27
                     A                      A                      A
 Frequencies --   339.4058               351.3508               391.3796
 Red. masses --     6.2962                 4.3247                 7.0328
 Frc consts  --     0.4273                 0.3145                 0.6347
 IR Inten    --     7.3524                 2.8345                 0.9758
 Raman Activ --     2.1000                 0.1034                 1.2610

                    28                     29                     30
                     A                      A                      A
 Frequencies --   406.3888               417.9770               427.7973
 Red. masses --     3.8432                 6.3388                 4.7493
 Frc consts  --     0.3740                 0.6525                 0.5121
 IR Inten    --    15.7787                 3.1032                 3.4954
 Raman Activ --     1.7684                 7.7736                 1.8539

                    31                     32                     33
                     A                      A                      A
 Frequencies --   437.5123               477.8445               489.6486
 Red. masses --     5.6639                 5.1626                 4.5464
 Frc consts  --     0.6388                 0.6945                 0.6422
 IR Inten    --     0.3223                 6.2002                11.9275
 Raman Activ --     3.6746                 0.6600                 3.8423

                    34                     35                     36
                     A                      A                      A
 Frequencies --   507.8688               524.0948               565.2862
 Red. masses --     3.4665                 3.0703                 4.4866
 Frc consts  --     0.5268                 0.4969                 0.8447
 IR Inten    --    14.3167                 5.1523                23.5868
 Raman Activ --     1.8698                 3.9544                 1.5161

                    37                     38                     39
                     A                      A                      A
 Frequencies --   587.3382               604.9330               621.9537
 Red. masses --     2.8554                 5.1966                 5.8600
 Frc consts  --     0.5804                 1.1204                 1.3356
 IR Inten    --    40.2387                 2.0915                40.1002
 Raman Activ --     0.1656                 0.8003                 0.8903

                    40                     41                     42
                     A                      A                      A
 Frequencies --   635.1629               687.2975               710.2182
 Red. masses --     4.0602                 5.5999                 1.0735
 Frc consts  --     0.9651                 1.5586                 0.3190
 IR Inten    --    13.3414                13.1765                95.5484
 Raman Activ --     0.5377                 0.6290                 1.8076

                    43                     44                     45
                     A                      A                      A
 Frequencies --   753.7842               757.2180               759.0678
 Red. masses --     1.1092                 1.0804                 1.1002
 Frc consts  --     0.3713                 0.3650                 0.3735
 IR Inten    --    88.7189               219.9290                62.2396
 Raman Activ --     4.1264                 2.7343                 1.6803

                    46                     47                     48
                     A                      A                      A
 Frequencies --   766.5736               847.4419               853.2878
 Red. masses --     1.0846                 1.5050                 1.7809
 Frc consts  --     0.3755                 0.6368                 0.7640
 IR Inten    --    97.4376                 8.8710                 3.4582
 Raman Activ --     1.5115                 0.3442                 1.3713

                    49                     50                     51
                     A                      A                      A
 Frequencies --   880.0914               911.9397               956.6323
 Red. masses --     1.2444                 4.9784                 4.7001
 Frc consts  --     0.5679                 2.4393                 2.5343
 IR Inten    --    66.4038                98.1792               172.1760
 Raman Activ --     0.7261                 2.3501                 0.5613

                    52                     53                     54
                     A                      A                      A
 Frequencies --   971.9368               978.2665               989.1711
 Red. masses --     5.3961                 5.0440                 5.9577
 Frc consts  --     3.0034                 2.8440                 3.4346
 IR Inten    --    43.2297                29.5926               175.4055
 Raman Activ --     1.4982                 2.1329                 1.3814

                    55                     56                     57
                     A                      A                      A
 Frequencies --  1002.7941              1015.5093              1017.5461
 Red. masses --     5.4224                 6.5476                 6.1501
 Frc consts  --     3.2126                 3.9783                 3.7518
 IR Inten    --   304.8227                 2.4511                89.7187
 Raman Activ --     1.7979                 3.3321                 2.8223

                    58                     59                     60
                     A                      A                      A
 Frequencies --  1041.5821              1050.1622              1065.1967
 Red. masses --     8.1840                 5.7096                 3.2495
 Frc consts  --     5.2312                 3.7100                 2.1723
 IR Inten    --   385.6253                39.7131                14.2799
 Raman Activ --     2.7063                 1.9437                 5.5858

                    61                     62                     63
                     A                      A                      A
 Frequencies --  1070.3102              1079.3923              1086.2295
 Red. masses --     4.4562                 3.6595                 3.3412
 Frc consts  --     3.0077                 2.5121                 2.3227
 IR Inten    --    50.8028                84.4506                17.9231
 Raman Activ --    13.9839                10.4510                 3.7400

                    64                     65                     66
                     A                      A                      A
 Frequencies --  1090.8561              1095.1943              1116.3134
 Red. masses --     2.4869                 3.3100                 2.6365
 Frc consts  --     1.7436                 2.3392                 1.9358
 IR Inten    --   116.2463                 2.8318                20.0999
 Raman Activ --     4.5559                 7.6972                 5.8721

                    67                     68                     69
                     A                      A                      A
 Frequencies --  1119.4053              1122.7729              1134.4219
 Red. masses --     3.0628                 2.6606                 3.5457
 Frc consts  --     2.2612                 1.9761                 2.6884
 IR Inten    --    77.0923                26.9355                49.1968
 Raman Activ --     2.0434                13.3670                 1.0015

                    70                     71                     72
                     A                      A                      A
 Frequencies --  1142.5019              1147.8189              1162.1183
 Red. masses --     1.8117                 2.4353                 1.8832
 Frc consts  --     1.3933                 1.8904                 1.4984
 IR Inten    --     0.5675                26.1190                 9.6079
 Raman Activ --     3.9213                 4.9910                 2.0963

                    73                     74                     75
                     A                      A                      A
 Frequencies --  1172.3825              1186.1246              1193.9272
 Red. masses --     2.1019                 1.8328                 1.8712
 Frc consts  --     1.7022                 1.5192                 1.5716
 IR Inten    --     5.4103                 0.9374                 9.2384
 Raman Activ --     4.1283                 1.3300                 2.5022

                    76                     77                     78
                     A                      A                      A
 Frequencies --  1205.1774              1208.3043              1220.7009
 Red. masses --     1.4263                 1.3820                 1.2104
 Frc consts  --     1.2205                 1.1888                 1.0626
 IR Inten    --    17.0142                 5.9647                24.5335
 Raman Activ --     4.3443                 0.9729                 3.0294

                    79                     80                     81
                     A                      A                      A
 Frequencies --  1230.1218              1241.4432              1253.6929
 Red. masses --     1.2005                 1.1941                 1.3829
 Frc consts  --     1.0703                 1.0843                 1.2806
 IR Inten    --     1.9716                17.0919                24.3771
 Raman Activ --     1.4415                 0.9402                 1.2924

                    82                     83                     84
                     A                      A                      A
 Frequencies --  1270.8686              1286.4922              1289.0638
 Red. masses --     1.1846                 1.4402                 1.2812
 Frc consts  --     1.1272                 1.4044                 1.2543
 IR Inten    --     7.2323                25.1421                12.3079
 Raman Activ --     1.4889                 1.9374                 1.9173

                    85                     86                     87
                     A                      A                      A
 Frequencies --  1296.0825              1302.0325              1310.6123
 Red. masses --     1.1961                 1.3388                 1.3256
 Frc consts  --     1.1838                 1.3373                 1.3416
 IR Inten    --     0.0460                12.7823                24.1268
 Raman Activ --     4.2061                 0.8533                 1.3294

                    88                     89                     90
                     A                      A                      A
 Frequencies --  1316.9943              1320.9672              1327.0617
 Red. masses --     1.3088                 1.2562                 1.3459
 Frc consts  --     1.3375                 1.2915                 1.3966
 IR Inten    --     2.2088                15.2517                15.6046
 Raman Activ --     7.0248                 9.2585                 5.9248

                    91                     92                     93
                     A                      A                      A
 Frequencies --  1337.6623              1342.0934              1355.1273
 Red. masses --     1.1980                 1.1413                 1.4519
 Frc consts  --     1.2630                 1.2112                 1.5709
 IR Inten    --    24.3201                41.5364                15.8463
 Raman Activ --     3.0608                 1.4111                 9.3086

                    94                     95                     96
                     A                      A                      A
 Frequencies --  1357.9257              1367.7422              1372.1651
 Red. masses --     1.2802                 1.1965                 1.4713
 Frc consts  --     1.3908                 1.3188                 1.6321
 IR Inten    --    29.2934                19.5468                16.0206
 Raman Activ --     3.1180                 2.1026                 7.8107

                    97                     98                     99
                     A                      A                      A
 Frequencies --  1376.2418              1394.0877              1407.7495
 Red. masses --     1.3374                 1.5318                 1.3827
 Frc consts  --     1.4924                 1.7540                 1.6144
 IR Inten    --     9.4949                 6.7121                 3.5615
 Raman Activ --     6.9698                 4.0149                 5.4356

                   100                    101                    102
                     A                      A                      A
 Frequencies --  1445.6926              1461.4861              1474.0889
 Red. masses --     1.3474                 1.2969                 1.0767
 Frc consts  --     1.6592                 1.6321                 1.3785
 IR Inten    --    37.1455                55.8212                 4.4332
 Raman Activ --     1.5054                 1.1229                 4.8748

                   103                    104                    105
                     A                      A                      A
 Frequencies --  1474.4181              1477.9846              1480.9704
 Red. masses --     1.1251                 1.4206                 1.3193
 Frc consts  --     1.4411                 1.8283                 1.7048
 IR Inten    --    11.2639                29.9294                18.1991
 Raman Activ --     5.1265                 1.2589                 0.5228

                   106                    107                    108
                     A                      A                      A
 Frequencies --  1493.6484              1507.2541              3245.0331
 Red. masses --     1.3199                 1.3288                 1.0666
 Frc consts  --     1.7350                 1.7787                 6.6177
 IR Inten    --    41.2832                46.3100               743.1652
 Raman Activ --     2.1161                 1.7284                82.4685

                   109                    110                    111
                     A                      A                      A
 Frequencies --  3255.9757              3259.2269              3261.9521
 Red. masses --     1.0581                 1.0771                 1.0806
 Frc consts  --     6.6090                 6.7413                 6.7745
 IR Inten    --    33.4283                89.7454                 6.2237
 Raman Activ --    96.5419               100.2568                67.9555

                   112                    113                    114
                     A                      A                      A
 Frequencies --  3263.2454              3265.7756              3267.2791
 Red. masses --     1.0735                 1.0757                 1.0787
 Frc consts  --     6.7354                 6.7592                 6.7845
 IR Inten    --     9.3946                33.1204                58.9293
 Raman Activ --   251.2960                25.9746                58.5292

                   115                    116                    117
                     A                      A                      A
 Frequencies --  3279.1936              3285.8691              3289.4163
 Red. masses --     1.0843                 1.0863                 1.0854
 Frc consts  --     6.8697                 6.9106                 6.9197
 IR Inten    --    16.8280                26.9799                 4.3169
 Raman Activ --    30.1472                 7.0153               120.1809

                   118                    119                    120
                     A                      A                      A
 Frequencies --  3290.6386              3303.7019              3307.0177
 Red. masses --     1.0861                 1.0872                 1.0877
 Frc consts  --     6.9294                 6.9912                 7.0089
 IR Inten    --    45.7888                14.9980                55.2492
 Raman Activ --    19.2856                 4.9885                44.4983

                   121                    122                    123
                     A                      A                      A
 Frequencies --  3310.9103              3314.0136              3358.0253
 Red. masses --     1.1053                 1.1051                 1.0653
 Frc consts  --     7.1390                 7.1508                 7.0776
 IR Inten    --    52.5106                49.7698               219.5068
 Raman Activ --    29.6564                51.6291               109.8575

                   124                    125                    126
                     A                      A                      A
 Frequencies --  3360.8293              3370.1175              3376.2525
 Red. masses --     1.0648                 1.0673                 1.0651
 Frc consts  --     7.0865                 7.1420                 7.1534
 IR Inten    --    34.5082                45.6896                29.5036
 Raman Activ --    81.6847               147.3358               129.5112

                   127                    128                    129
                     A                      A                      A
 Frequencies --  3380.8002              3888.2589              3889.6424
 Red. masses --     1.0666                 1.0677                 1.0674
 Frc consts  --     7.1825                 9.5107                 9.5146
 IR Inten    --    68.6149                86.6458                61.9956
 Raman Activ --   134.2841                79.4446               116.7002

 - Thermochemistry -
 -------------------
 Temperature   298.150 Kelvin.  Pressure   1.00000 Atm.
 Atom     1 has atomic number  8 and mass  15.99491

 Molecular mass:   342.11621 amu.
 Principal axes and moments of inertia in atomic units:
                           1         2         3
     Eigenvalues --  4426.09218********************
           X            0.99997   0.00745  -0.00011
           Y           -0.00745   0.99997   0.00184
           Z            0.00012  -0.00184   1.00000
 This molecule is an asymmetric top.
 Rotational symmetry number  1.
 Warning -- assumption of classical behavior for rotation
           may cause significant error
 Rotational temperatures (Kelvin)      0.01957     0.00704     0.00532
 Rotational constants (GHZ):           0.40775     0.14662     0.11080
    7 imaginary frequencies ignored.
 Zero-point vibrational energy     976079.3 (Joules/Mol)
                                  233.28856 (Kcal/Mol)
 Warning -- explicit consideration of  31 degrees of freedom as
           vibrations may cause significant error
 Vibrational temperatures:     45.55    88.36   119.53   129.40   181.99
          (Kelvin)            222.38   255.67   262.35   303.97   327.13
                              359.72   398.76   429.25   437.56   451.43
                              462.75   469.49   488.33   505.51   563.11
                              584.70   601.37   615.50   629.48   687.51
                              704.49   730.71   754.05   813.32   845.05
                              870.36   894.85   913.86   988.87  1021.84
                             1084.53  1089.47  1092.13  1102.93  1219.28
                             1227.69  1266.25  1312.08  1376.38  1398.40
                             1407.51  1423.19  1442.80  1461.09  1464.02
                             1498.60  1510.95  1532.58  1539.94  1553.00
                             1562.84  1569.50  1575.74  1606.12  1610.57
                             1615.42  1632.18  1643.80  1651.45  1672.03
                             1686.79  1706.57  1717.79  1733.98  1738.48
                             1756.31  1769.87  1786.16  1803.78  1828.49
                             1850.97  1854.67  1864.77  1873.33  1885.68
                             1894.86  1900.57  1909.34  1924.60  1930.97
                             1949.72  1953.75  1967.87  1974.24  1980.10
                             2005.78  2025.44  2080.03  2102.75  2120.88
                             2121.36  2126.49  2130.78  2149.02  2168.60
                             4668.87  4684.62  4689.29  4693.22  4695.08
                             4698.72  4700.88  4718.02  4727.63  4732.73
                             4734.49  4753.28  4758.05  4763.66  4768.12
                             4831.44  4835.48  4848.84  4857.67  4864.21
                             5594.33  5596.32

 Zero-point correction=                           0.371769 (Hartree/Particle)
 Thermal correction to Energy=                    0.390070
 Thermal correction to Enthalpy=                  0.391015
 Thermal correction to Gibbs Free Energy=         0.325984
 Sum of electronic and zero-point Energies=          -1297.614367
 Sum of electronic and thermal Energies=             -1297.596065
 Sum of electronic and thermal Enthalpies=           -1297.595121
 Sum of electronic and thermal Free Energies=        -1297.660152

                     E (Thermal)             CV                S
                      KCal/Mol        Cal/Mol-Kelvin    Cal/Mol-Kelvin
 Total                  244.773             75.652            136.868
 Electronic               0.000              0.000              0.000
 Translational            0.889              2.981             43.384
 Rotational               0.889              2.981             35.138
 Vibrational            242.995             69.690             58.345
 Vibration     1          0.594              1.983              5.723
 Vibration     2          0.597              1.973              4.411
 Vibration     3          0.600              1.961              3.817
 Vibration     4          0.602              1.956              3.661
 Vibration     5          0.611              1.927              2.999
 Vibration     6          0.620              1.898              2.615
 Vibration     7          0.628              1.870              2.352
 Vibration     8          0.630              1.864              2.304
 Vibration     9          0.643              1.824              2.033
 Vibration    10          0.651              1.799              1.900
 Vibration    11          0.663              1.763              1.730
 Vibration    12          0.678              1.716              1.551
 Vibration    13          0.691              1.677              1.426
 Vibration    14          0.695              1.666              1.394
 Vibration    15          0.702              1.647              1.342
 Vibration    16          0.707              1.632              1.302
 Vibration    17          0.710              1.623              1.278
 Vibration    18          0.719              1.597              1.215
 Vibration    19          0.728              1.572              1.160
 Vibration    20          0.759              1.489              0.995
 Vibration    21          0.771              1.456              0.939
 Vibration    22          0.781              1.431              0.899
 Vibration    23          0.789              1.410              0.866
 Vibration    24          0.798              1.388              0.834
 Vibration    25          0.834              1.299              0.716
 Vibration    26          0.845              1.273              0.685
 Vibration    27          0.863              1.233              0.639
 Vibration    28          0.879              1.197              0.601
 Vibration    29          0.921              1.106              0.513
 Vibration    30          0.944              1.059              0.472
 Vibration    31          0.963              1.021              0.441

 Normal termination of Gaussian 09 at Tue Mar 29 21:10:14 2016.
