 Gaussian 09, Revision B.01,
 Gaussian 09:  EM64L-G09RevB.01 12-Aug-2010

 -------------------------------------------------
 # freq=raman b3lyp/6-31+g(2d,p) geom=connectivity
 -------------------------------------------------

 -----------------
 350 9808/9808.com
 -----------------
 Symbolic Z-matrix:
 Charge =  0 Multiplicity = 1

                         Standard orientation:
 ---------------------------------------------------------------------
 Center     Atomic      Atomic             Coordinates (Angstroms)
 Number     Number       Type             X           Y           Z
 ---------------------------------------------------------------------
      1          8           0        4.981962   -0.518124   -0.392336
      2          6           0        3.765532   -0.076764    0.229101
      3          6           0        3.282485    1.296611   -0.207390
      4          8           0        4.124666    2.377109    0.218602
      5          1           0        5.056818    2.019557    0.287403
      6          6           0        1.834765    1.599571    0.144939
      7          8           0        1.312118    2.834256   -0.365727
      8          1           0        0.341002    2.856340   -0.128863
      9          6           0        3.091670   -2.511826    0.271499
     10          8           0        4.205281   -3.238254   -0.268611
     11          1           0        4.189285   -4.210010   -0.031226
     12          6           0        2.733755   -1.109553   -0.193127
     13          8           0        1.437565   -0.810460    0.343583
     14          6           0        0.916000    0.428631   -0.159706
     15          8           0       -0.303428    0.517626    0.592611
     16          6           0       -1.440808    0.198442   -0.222927
     17          6           0       -1.996860   -1.134676    0.250548
     18          8           0       -1.083741   -2.111713   -0.272652
     19          1           0       -0.185075   -1.738480   -0.044062
     20          6           0       -3.383686   -1.544193   -0.219391
     21          8           0       -3.815596   -2.805357    0.309907
     22          1           0       -4.659155   -3.109557   -0.133761
     23          6           0       -2.434531    2.607691   -0.184366
     24          8           0       -1.213915    3.288336    0.143139
     25          1           0       -1.445864    4.251544    0.281323
     26          6           0       -2.531824    1.150678    0.237452
     27          8           0       -3.886153    0.850321   -0.130554
     28          6           0       -4.323840   -0.455424    0.272632
     29          8           0       -5.527701   -0.592735   -0.495105
     30          1           0       -6.264577   -0.769861    0.094165
     31          1           0        5.596041   -0.816627    0.282501
     32          1           0        2.224358   -3.117958    0.112518
     33          1           0        3.247278   -2.453955    1.328540
     34          1           0        2.669461   -1.109794   -1.261194
     35          1           0        3.878268   -0.096389    1.292964
     36          1           0        3.328723    1.293305   -1.276385
     37          1           0        1.819521    1.705221    1.209601
     38          1           0        0.713560    0.360206   -1.208150
     39          1           0       -3.242442    3.139065    0.273695
     40          1           0       -2.564339    2.653977   -1.245454
     41          1           0       -2.498204    1.141087    1.306881
     42          1           0       -1.249869    0.239538   -1.274950
     43          1           0       -1.967629   -1.165142    1.319715
     44          1           0       -3.403947   -1.578555   -1.288647
     45          1           0       -4.507622   -0.516679    1.324949
 ---------------------------------------------------------------------

 SCF Done:  E(RB3LYP) =  -1297.98076737     A.U. after   13 cycles

 The electronic state is 1-A.
 Alpha  occ. eigenvalues --  -19.18715 -19.18690 -19.18546 -19.17506 -19.17251
 Alpha  occ. eigenvalues --  -19.16897 -19.16369 -19.16000 -19.15291 -19.13604
 Alpha  occ. eigenvalues --  -19.13101 -10.30548 -10.29945 -10.25853 -10.25470
 Alpha  occ. eigenvalues --  -10.25378 -10.25313 -10.24877 -10.24685 -10.24285
 Alpha  occ. eigenvalues --  -10.24123 -10.24062 -10.23986  -1.10647  -1.08855
 Alpha  occ. eigenvalues --   -1.05656  -1.05316  -1.04159  -1.03273  -1.02449
 Alpha  occ. eigenvalues --   -1.02218  -1.02000  -1.00753  -0.99917  -0.82127
 Alpha  occ. eigenvalues --   -0.80281  -0.79161  -0.78156  -0.71910  -0.69874
 Alpha  occ. eigenvalues --   -0.67155  -0.65396  -0.62837  -0.62689  -0.61484
 Alpha  occ. eigenvalues --   -0.60108  -0.56613  -0.56149  -0.55023  -0.54636
 Alpha  occ. eigenvalues --   -0.53858  -0.53179  -0.52873  -0.52037  -0.50562
 Alpha  occ. eigenvalues --   -0.50369  -0.50076  -0.49578  -0.48797  -0.46562
 Alpha  occ. eigenvalues --   -0.46086  -0.44860  -0.44014  -0.43669  -0.43072
 Alpha  occ. eigenvalues --   -0.42418  -0.41518  -0.40997  -0.40134  -0.39049
 Alpha  occ. eigenvalues --   -0.38454  -0.38156  -0.37772  -0.37289  -0.36263
 Alpha  occ. eigenvalues --   -0.35429  -0.35067  -0.34719  -0.34247  -0.33472
 Alpha  occ. eigenvalues --   -0.32507  -0.31189  -0.30815  -0.30419  -0.30171
 Alpha  occ. eigenvalues --   -0.29339  -0.28498  -0.28197  -0.26907  -0.26515
 Alpha  occ. eigenvalues --   -0.25902
 Alpha virt. eigenvalues --   -0.02005  -0.01840  -0.01529  -0.00203   0.00176
 Alpha virt. eigenvalues --    0.00994   0.01829   0.02351   0.02643   0.03344
 Alpha virt. eigenvalues --    0.03734   0.04378   0.05093   0.05348   0.05632

 Mulliken atomic charges:
              1
     1  O   -0.500178
     2  C   -0.119693
     3  C    0.277817
     4  O   -0.548608
     5  H    0.331521
     6  C   -0.142316
     7  O   -0.590096
     8  H    0.436228
     9  C   -0.206057
    10  O   -0.549552
    11  H    0.341860
    12  C    0.149683
    13  O   -0.259518
    14  C    0.057385
    15  O   -0.169185
    16  C    0.385502
    17  C    0.151449
    18  O   -0.586381
    19  H    0.378788
    20  C    0.080857
    21  O   -0.551526
    22  H    0.340245
    23  C   -0.313654
    24  O   -0.564476
    25  H    0.359878
    26  C   -0.101486
    27  O   -0.242007
    28  C    0.180606
    29  O   -0.535029
    30  H    0.328580
    31  H    0.338864
    32  H    0.147046
    33  H    0.133916
    34  H    0.119888
    35  H    0.124959
    36  H    0.120095
    37  H    0.124454
    38  H    0.126209
    39  H    0.144953
    40  H    0.156420
    41  H    0.115047
    42  H    0.124378
    43  H    0.133440
    44  H    0.135367
    45  H    0.134329
 Sum of Mulliken atomic charges =   0.00000

 Dipole moment (field-independent basis, Debye):
    X=             -2.4008    Y=             -0.7064    Z=              2.6670  Tot=              3.6573
 Quadrupole moment (field-independent basis, Debye-Ang):
   XX=           -117.2345   YY=           -137.0586   ZZ=           -138.3961
   XY=            -15.8819   XZ=              3.8371   YZ=              0.0158

  Exact polarizability: 234.042   0.862 198.021   0.865  -0.059 142.946
 Approx polarizability: 273.822  -0.073 257.643   1.419   0.593 239.025

 ******    7 imaginary frequencies (negative Signs) ******

                     1                      2                      3
                     A                      A                      A
 Frequencies --  -312.1314              -255.7056              -241.2735
 Red. masses --     1.6463                 1.1924                 1.1722
 Frc consts  --     0.0945                 0.0459                 0.0402
 IR Inten    --    28.6552                82.5950               111.3800
 Raman Activ --     0.1355                 0.9195                 1.0258

                     4                      5                      6
                     A                      A                      A
 Frequencies --  -235.5096               -71.9875               -68.0068
 Red. masses --     1.8381                 6.6942                 6.2183
 Frc consts  --     0.0601                 0.0204                 0.0169
 IR Inten    --     0.9756                 1.2241                 0.1355
 Raman Activ --     0.1023                 0.0359                 0.0271

                     7                      8                      9
                     A                      A                      A
 Frequencies --   -45.4766                46.8275                61.1023
 Red. masses --     6.6240                 6.0976                 6.6849
 Frc consts  --     0.0081                 0.0079                 0.0147
 IR Inten    --     0.6792                 1.7463                 0.2024
 Raman Activ --     0.0108                 0.0573                 0.0709

                    10                     11                     12
                     A                      A                      A
 Frequencies --    73.0082                89.9890                92.2294
 Red. masses --     6.8867                 6.7747                 5.4734
 Frc consts  --     0.0216                 0.0323                 0.0274
 IR Inten    --     0.4765                 0.9642                 1.4197
 Raman Activ --     0.2377                 0.0325                 0.0892

                    13                     14                     15
                     A                      A                      A
 Frequencies --   157.6458               182.7158               195.4027
 Red. masses --     6.2939                 5.5314                 7.6870
 Frc consts  --     0.0922                 0.1088                 0.1729
 IR Inten    --     2.6119                 3.2519                 1.7867
 Raman Activ --     0.6928                 0.1239                 0.7626

                    16                     17                     18
                     A                      A                      A
 Frequencies --   213.7539               236.3388               264.5134
 Red. masses --     7.2947                 5.9723                 5.0588
 Frc consts  --     0.1964                 0.1965                 0.2085
 IR Inten    --     0.3277                 1.0018                 3.3576
 Raman Activ --     2.2974                 0.1937                 0.2572

                    19                     20                     21
                     A                      A                      A
 Frequencies --   271.1104               284.5309               302.9266
 Red. masses --     4.4185                 5.8887                 4.9649
 Frc consts  --     0.1913                 0.2809                 0.2684
 IR Inten    --    20.1843                 1.7922                 0.8299
 Raman Activ --     0.3272                 0.1063                 0.3774

                    22                     23                     24
                     A                      A                      A
 Frequencies --   308.3896               318.4404               324.7941
 Red. masses --     5.6101                 6.1184                 6.2393
 Frc consts  --     0.3144                 0.3655                 0.3878
 IR Inten    --     4.8982                 5.6905                 1.0399
 Raman Activ --     0.4496                 5.3718                 1.7140

                    25                     26                     27
                     A                      A                      A
 Frequencies --   355.8073               368.6601               380.1912
 Red. masses --     5.8538                 4.8735                 7.6091
 Frc consts  --     0.4366                 0.3903                 0.6480
 IR Inten    --    10.3585                 2.2311                 3.4949
 Raman Activ --     2.5469                 0.8259                 1.5312

                    28                     29                     30
                     A                      A                      A
 Frequencies --   411.7241               415.9885               434.6089
 Red. masses --     4.0417                 5.8227                 5.4630
 Frc consts  --     0.4037                 0.5937                 0.6080
 IR Inten    --    22.2857                 2.5093                 0.9687
 Raman Activ --     1.3485                 4.4480                 4.2618

                    31                     32                     33
                     A                      A                      A
 Frequencies --   449.4177               478.8182               492.3551
 Red. masses --     4.7337                 5.1103                 3.3655
 Frc consts  --     0.5633                 0.6903                 0.4807
 IR Inten    --     3.6137                 4.3589                17.0055
 Raman Activ --     1.4383                 2.7239                 1.1022

                    34                     35                     36
                     A                      A                      A
 Frequencies --   521.5527               529.1997               567.7002
 Red. masses --     3.3721                 3.7917                 4.5549
 Frc consts  --     0.5404                 0.6256                 0.8649
 IR Inten    --     0.4167                 9.5741                10.3425
 Raman Activ --     4.4965                 1.3631                 2.4889

                    37                     38                     39
                     A                      A                      A
 Frequencies --   596.7975               604.9674               633.4754
 Red. masses --     3.7062                 4.1511                 4.3821
 Frc consts  --     0.7777                 0.8951                 1.0361
 IR Inten    --    29.7134                11.6354                 9.4848
 Raman Activ --     0.3667                 0.2525                 0.5621

                    40                     41                     42
                     A                      A                      A
 Frequencies --   641.1996               663.6496               696.3831
 Red. masses --     4.5201                 1.0796                 1.7925
 Frc consts  --     1.0949                 0.2802                 0.5122
 IR Inten    --    30.2183               119.0945                22.7056
 Raman Activ --     1.3982                 2.2672                 0.7221

                    43                     44                     45
                     A                      A                      A
 Frequencies --   700.5318               707.3908               709.8892
 Red. masses --     1.5057                 1.1515                 1.1195
 Frc consts  --     0.4353                 0.3395                 0.3324
 IR Inten    --   106.5910                50.5432               115.1441
 Raman Activ --     2.2514                 1.7138                 1.7274

                    46                     47                     48
                     A                      A                      A
 Frequencies --   842.6562               849.1911               869.1263
 Red. masses --     1.1886                 1.6800                 1.2545
 Frc consts  --     0.4973                 0.7138                 0.5583
 IR Inten    --    38.1460                 1.6781                34.5461
 Raman Activ --     0.6880                 0.4706                 0.8370

                    49                     50                     51
                     A                      A                      A
 Frequencies --   877.5007               929.4545               955.2952
 Red. masses --     1.2456                 6.0354                 5.7743
 Frc consts  --     0.5651                 3.0719                 3.1047
 IR Inten    --    28.9254               113.8278                57.3073
 Raman Activ --     0.8227                 3.0064                 0.5146

                    52                     53                     54
                     A                      A                      A
 Frequencies --   972.6446               987.2305               988.7749
 Red. masses --     7.1673                 5.2135                 4.8015
 Frc consts  --     3.9950                 2.9938                 2.7658
 IR Inten    --    88.3045               109.0038                35.2702
 Raman Activ --     1.9086                 3.2995                 1.6973

                    55                     56                     57
                     A                      A                      A
 Frequencies --  1001.0613              1012.3755              1025.7777
 Red. masses --     6.9500                 6.3906                 6.1686
 Frc consts  --     4.1035                 3.8590                 3.8242
 IR Inten    --   375.7666                44.9332                99.7048
 Raman Activ --     2.5463                 1.5147                 1.9497

                    58                     59                     60
                     A                      A                      A
 Frequencies --  1033.1183              1055.8446              1060.5813
 Red. masses --     5.0061                 4.3753                 3.2316
 Frc consts  --     3.1481                 2.8738                 2.1417
 IR Inten    --   241.3170                95.8233                61.4737
 Raman Activ --     3.3643                 7.2200                 1.8938

                    61                     62                     63
                     A                      A                      A
 Frequencies --  1067.8942              1071.6201              1083.6798
 Red. masses --     3.2430                 6.7857                 5.6671
 Frc consts  --     2.1790                 4.5912                 3.9212
 IR Inten    --    18.1556               149.4556                25.4741
 Raman Activ --    22.9579                 1.3563                 7.6803

                    64                     65                     66
                     A                      A                      A
 Frequencies --  1087.3457              1099.2513              1102.6309
 Red. masses --     2.5066                 2.6433                 3.0324
 Frc consts  --     1.7461                 1.8818                 2.1722
 IR Inten    --    33.9190                66.9762                56.0601
 Raman Activ --     5.5577                 9.5045                14.8688

                    67                     68                     69
                     A                      A                      A
 Frequencies --  1108.4494              1123.7409              1135.9674
 Red. masses --     2.9618                 2.4301                 2.8696
 Frc consts  --     2.1441                 1.8080                 2.1818
 IR Inten    --    16.5729                29.6123                 0.9461
 Raman Activ --     2.7559                 2.7541                 2.8122

                    70                     71                     72
                     A                      A                      A
 Frequencies --  1137.9081              1143.6185              1150.3258
 Red. masses --     2.1412                 2.3240                 1.9740
 Frc consts  --     1.6335                 1.7908                 1.5390
 IR Inten    --    11.4753                50.2620                27.1415
 Raman Activ --     4.0252                 3.6265                 4.2772

                    73                     74                     75
                     A                      A                      A
 Frequencies --  1164.3384              1174.8710              1185.1983
 Red. masses --     1.7793                 1.5209                 1.6170
 Frc consts  --     1.4212                 1.2369                 1.3382
 IR Inten    --     1.4153                12.7104                22.9973
 Raman Activ --     2.2287                 3.1567                 2.1433

                    76                     77                     78
                     A                      A                      A
 Frequencies --  1200.5819              1203.5246              1222.5725
 Red. masses --     1.5517                 1.3741                 1.2419
 Frc consts  --     1.3178                 1.1727                 1.0937
 IR Inten    --    22.9721                10.9781                15.5261
 Raman Activ --     1.7693                 0.8356                 1.9800

                    79                     80                     81
                     A                      A                      A
 Frequencies --  1237.4391              1243.6986              1250.4207
 Red. masses --     1.3112                 1.3006                 1.2343
 Frc consts  --     1.1830                 1.1853                 1.1371
 IR Inten    --     5.6738                 8.1127                21.5140
 Raman Activ --     0.6201                 1.1447                 0.7921

                    82                     83                     84
                     A                      A                      A
 Frequencies --  1269.8058              1280.6628              1281.6230
 Red. masses --     1.3250                 1.2352                 1.1935
 Frc consts  --     1.2587                 1.1936                 1.1550
 IR Inten    --     4.0559                11.5770                 9.7094
 Raman Activ --     3.3062                 4.5572                 1.8342

                    85                     86                     87
                     A                      A                      A
 Frequencies --  1292.3523              1295.9216              1306.3392
 Red. masses --     1.2754                 1.3664                 1.3215
 Frc consts  --     1.2551                 1.3521                 1.3287
 IR Inten    --     1.3495                31.5526                25.3131
 Raman Activ --     3.6608                 1.9639                 7.6606

                    88                     89                     90
                     A                      A                      A
 Frequencies --  1309.2410              1314.5709              1324.8468
 Red. masses --     1.2706                 1.3456                 1.2317
 Frc consts  --     1.2832                 1.3701                 1.2738
 IR Inten    --     8.7847                 7.0198                48.7948
 Raman Activ --     4.2035                 1.6207                 2.2499

                    91                     92                     93
                     A                      A                      A
 Frequencies --  1328.5154              1335.0593              1345.9918
 Red. masses --     1.2464                 1.2287                 1.1903
 Frc consts  --     1.2961                 1.2903                 1.2705
 IR Inten    --    43.5277                 8.5894                11.5458
 Raman Activ --    13.2316                 2.3523                 5.4963

                    94                     95                     96
                     A                      A                      A
 Frequencies --  1354.5920              1367.8103              1372.2968
 Red. masses --     1.2005                 1.5167                 1.6505
 Frc consts  --     1.2978                 1.6718                 1.8313
 IR Inten    --    50.6573                12.1669                 9.8980
 Raman Activ --     1.3579                 6.3389                 3.8630

                    97                     98                     99
                     A                      A                      A
 Frequencies --  1380.2069              1383.5712              1410.4521
 Red. masses --     1.4432                 1.4500                 1.4114
 Frc consts  --     1.6198                 1.6354                 1.6543
 IR Inten    --     8.4858                 3.8255                 4.9400
 Raman Activ --     4.5526                 7.0969                 6.8819

                   100                    101                    102
                     A                      A                      A
 Frequencies --  1416.9474              1443.4168              1450.3060
 Red. masses --     1.4425                 1.3594                 1.3821
 Frc consts  --     1.7064                 1.6687                 1.7128
 IR Inten    --    22.5012                51.7149                15.7684
 Raman Activ --     1.7025                 0.7534                 2.7513

                   103                    104                    105
                     A                      A                      A
 Frequencies --  1474.1777              1474.2375              1476.5462
 Red. masses --     1.1152                 1.1071                 1.3357
 Frc consts  --     1.4279                 1.4177                 1.7158
 IR Inten    --     7.4625                 2.7768                18.4384
 Raman Activ --     5.4054                 2.8294                 0.5447

                   106                    107                    108
                     A                      A                      A
 Frequencies --  1499.7437              1539.5182              3239.6332
 Red. masses --     1.2820                 1.2351                 1.0687
 Frc consts  --     1.6989                 1.7248                 6.6086
 IR Inten    --    63.6485                44.8828               906.3926
 Raman Activ --     1.2298                 1.9365               164.3204

                   109                    110                    111
                     A                      A                      A
 Frequencies --  3253.4883              3261.2493              3264.2818
 Red. masses --     1.0590                 1.0745                 1.0668
 Frc consts  --     6.6047                 6.7330                 6.6974
 IR Inten    --    27.1251                31.9905                49.8163
 Raman Activ --    70.1713               210.0678                82.0068

                   112                    113                    114
                     A                      A                      A
 Frequencies --  3268.4745              3273.0068              3276.7894
 Red. masses --     1.0791                 1.0822                 1.0823
 Frc consts  --     6.7918                 6.8306                 6.8471
 IR Inten    --    20.2756                17.6490                18.4154
 Raman Activ --    16.0966                16.7989                78.3939

                   115                    116                    117
                     A                      A                      A
 Frequencies --  3282.2515              3287.4213              3291.9564
 Red. masses --     1.0834                 1.0867                 1.0858
 Frc consts  --     6.8769                 6.9196                 6.9327
 IR Inten    --    37.4560                 0.9615                 4.0144
 Raman Activ --    92.8826                50.0578               106.8999

                   118                    119                    120
                     A                      A                      A
 Frequencies --  3294.8910              3303.6711              3304.9065
 Red. masses --     1.0886                 1.0865                 1.0738
 Frc consts  --     6.9631                 6.9866                 6.9101
 IR Inten    --    84.9788                14.3887               407.0153
 Raman Activ --    12.4096                25.2156                83.3592

                   121                    122                    123
                     A                      A                      A
 Frequencies --  3307.5285              3312.2019              3321.1633
 Red. masses --     1.1002                 1.0848                 1.1062
 Frc consts  --     7.0912                 7.0120                 7.1892
 IR Inten    --    72.4970               154.2685                50.9825
 Raman Activ --    43.9946                68.5033                39.6103

                   124                    125                    126
                     A                      A                      A
 Frequencies --  3358.4690              3361.1810              3366.3406
 Red. masses --     1.0661                 1.0680                 1.0666
 Frc consts  --     7.0849                 7.1090                 7.1216
 IR Inten    --    24.0869                54.8154                51.4911
 Raman Activ --   103.9506               194.2167               153.5446

                   127                    128                    129
                     A                      A                      A
 Frequencies --  3371.1517              3890.0456              3890.8253
 Red. masses --     1.0680                 1.0673                 1.0676
 Frc consts  --     7.1510                 9.5162                 9.5224
 IR Inten    --    59.7621                65.1938                69.2002
 Raman Activ --   153.9490               119.7127                97.3378

 - Thermochemistry -
 -------------------
 Temperature   298.150 Kelvin.  Pressure   1.00000 Atm.
 Atom     1 has atomic number  8 and mass  15.99491

 Molecular mass:   342.11621 amu.
 Principal axes and moments of inertia in atomic units:
                           1         2         3
     Eigenvalues --  4414.82600********************
           X            0.99997  -0.00814   0.00067
           Y            0.00814   0.99997  -0.00182
           Z           -0.00066   0.00182   1.00000
 This molecule is an asymmetric top.
 Rotational symmetry number  1.
 Warning -- assumption of classical behavior for rotation
           may cause significant error
 Rotational temperatures (Kelvin)      0.01962     0.00701     0.00528
 Rotational constants (GHZ):           0.40879     0.14616     0.10993
    7 imaginary frequencies ignored.
 Zero-point vibrational energy     974654.0 (Joules/Mol)
                                  232.94789 (Kcal/Mol)
 Warning -- explicit consideration of  31 degrees of freedom as
           vibrations may cause significant error
 Vibrational temperatures:     67.37    87.91   105.04   129.47   132.70
          (Kelvin)            226.82   262.89   281.14   307.54   340.04
                              380.58   390.07   409.38   435.84   443.70
                              458.16   467.31   511.93   530.42   547.01
                              592.38   598.51   625.30   646.61   688.91
                              708.39   750.40   761.40   816.79   858.66
                              870.41   911.43   922.54   954.84  1001.94
                             1007.91  1017.78  1021.37  1212.39  1221.79
                             1250.48  1262.53  1337.28  1374.46  1399.42
                             1420.40  1422.62  1440.30  1456.58  1475.86
                             1486.42  1519.12  1525.94  1536.46  1541.82
                             1559.17  1564.45  1581.58  1586.44  1594.81
                             1616.81  1634.40  1637.19  1645.41  1655.06
                             1675.22  1690.38  1705.23  1727.37  1731.60
                             1759.01  1780.40  1789.40  1799.07  1826.97
                             1842.59  1843.97  1859.40  1864.54  1879.53
                             1883.70  1891.37  1906.16  1911.43  1920.85
                             1936.58  1948.95  1967.97  1974.43  1985.81
                             1990.65  2029.32  2038.67  2076.75  2086.66
                             2121.01  2121.10  2124.42  2157.79  2215.02
                             4661.10  4681.04  4692.20  4696.57  4702.60
                             4709.12  4714.56  4722.42  4729.86  4736.39
                             4740.61  4753.24  4755.02  4758.79  4765.51
                             4778.41  4832.08  4835.98  4843.41  4850.33
                             5596.90  5598.02

 Zero-point correction=                           0.371226 (Hartree/Particle)
 Thermal correction to Energy=                    0.389525
 Thermal correction to Enthalpy=                  0.390469
 Thermal correction to Gibbs Free Energy=         0.325554
 Sum of electronic and zero-point Energies=          -1297.609541
 Sum of electronic and thermal Energies=             -1297.591243
 Sum of electronic and thermal Enthalpies=           -1297.590298
 Sum of electronic and thermal Free Energies=        -1297.655213

                     E (Thermal)             CV                S
                      KCal/Mol        Cal/Mol-Kelvin    Cal/Mol-Kelvin
 Total                  244.431             75.758            136.624
 Electronic               0.000              0.000              0.000
 Translational            0.889              2.981             43.384
 Rotational               0.889              2.981             35.147
 Vibrational            242.653             69.796             58.093
 Vibration     1          0.595              1.979              4.947
 Vibration     2          0.597              1.973              4.421
 Vibration     3          0.599              1.967              4.071
 Vibration     4          0.602              1.956              3.660
 Vibration     5          0.602              1.955              3.612
 Vibration     6          0.621              1.894              2.578
 Vibration     7          0.630              1.863              2.300
 Vibration     8          0.636              1.846              2.176
 Vibration     9          0.644              1.820              2.011
 Vibration    10          0.655              1.785              1.830
 Vibration    11          0.671              1.738              1.632
 Vibration    12          0.675              1.726              1.589
 Vibration    13          0.683              1.702              1.506
 Vibration    14          0.694              1.668              1.401
 Vibration    15          0.698              1.658              1.371
 Vibration    16          0.705              1.638              1.318
 Vibration    17          0.709              1.626              1.286
 Vibration    18          0.731              1.563              1.140
 Vibration    19          0.741              1.537              1.085
 Vibration    20          0.750              1.512              1.038
 Vibration    21          0.776              1.445              0.921
 Vibration    22          0.779              1.436              0.906
 Vibration    23          0.795              1.395              0.844
 Vibration    24          0.808              1.362              0.798
 Vibration    25          0.835              1.297              0.713
 Vibration    26          0.848              1.267              0.678
 Vibration    27          0.877              1.202              0.606
 Vibration    28          0.884              1.185              0.589
 Vibration    29          0.924              1.101              0.509
 Vibration    30          0.955              1.039              0.455
 Vibration    31          0.964              1.021              0.441

 Normal termination of Gaussian 09 at Fri Mar 25 20:51:51 2016.
