 Gaussian 09, Revision B.01,
 Gaussian 09:  EM64L-G09RevB.01 12-Aug-2010

 ------------------------------------------------
 # freq=raman b3lyp/6-31+g(d,p) geom=connectivity
 ------------------------------------------------

 ------------
 320 8000.com
 ------------
 Symbolic Z-matrix:
 Charge =  0 Multiplicity = 1

                         Standard orientation:
 ---------------------------------------------------------------------
 Center     Atomic      Atomic             Coordinates (Angstroms)
 Number     Number       Type             X           Y           Z
 ---------------------------------------------------------------------
      1          8           0       -5.049987   -0.443833    0.338796
      2          6           0       -3.717933   -0.104126   -0.074282
      3          6           0       -3.258767    1.271415    0.381352
      4          8           0       -4.221782    2.232987   -0.073712
      5          1           0       -5.154232    1.962124    0.164276
      6          6           0       -1.910451    1.548599   -0.262352
      7          8           0       -1.382292    2.852041    0.023955
      8          1           0       -0.386879    2.915734   -0.034227
      9          6           0       -2.948468   -2.530559   -0.184523
     10          8           0       -4.170254   -3.193674    0.171986
     11          1           0       -4.126746   -4.137250   -0.155731
     12          6           0       -2.706286   -1.141524    0.384558
     13          8           0       -1.464862   -0.801166   -0.249707
     14          6           0       -0.939621    0.464446    0.175487
     15          8           0        0.298571    0.619120   -0.532608
     16          6           0        1.505505    0.224210    0.137024
     17          6           0        1.938747   -1.141614   -0.368703
     18          8           0        0.934975   -2.158872   -0.235974
     19          1           0        0.094627   -1.625469   -0.326118
     20          6           0        3.248967   -1.580199    0.266038
     21          8           0        3.764427   -2.823272   -0.231355
     22          1           0        4.742424   -2.925879   -0.047742
     23          6           0        2.566571    2.697384    0.019488
     24          8           0        1.360432    3.461069   -0.134340
     25          1           0        1.623499    4.415770    0.001468
     26          6           0        2.622823    1.195637   -0.206579
     27          8           0        3.892524    0.773165    0.311717
     28          6           0        4.293542   -0.541028   -0.104194
     29          8           0        5.505943   -0.737294    0.638976
     30          1           0       -5.594088   -0.604217   -0.435692
     31          1           0       -2.136680   -3.155259    0.124749
     32          1           0       -2.918203   -2.455181   -1.251436
     33          1           0       -2.609916   -1.160725    1.450036
     34          1           0       -3.709601   -0.102909   -1.144249
     35          1           0       -3.176236    1.302260    1.447719
     36          1           0       -2.032180    1.471574   -1.322611
     37          1           0       -0.786135    0.484188    1.234237
     38          1           0        6.234874   -0.878899    0.030530
     39          1           0        3.288422    3.131935   -0.640054
     40          1           0        2.909842    2.868090    1.018450
     41          1           0        2.718135    1.100601   -1.268079
     42          1           0        1.350877    0.195952    1.195415
     43          1           0        2.126706   -1.033259   -1.416477
     44          1           0        3.142515   -1.627734    1.329668
     45          1           0        4.489657   -0.559467   -1.155907
 ---------------------------------------------------------------------

 SCF Done:  E(RB3LYP) =  -1297.94498896     A.U. after   14 cycles

 The electronic state is 1-A.
 Alpha  occ. eigenvalues --  -19.19931 -19.19911 -19.19594 -19.19300 -19.18865
 Alpha  occ. eigenvalues --  -19.17442 -19.16883 -19.16729 -19.15792 -19.14794
 Alpha  occ. eigenvalues --  -19.14042 -10.31710 -10.31374 -10.26963 -10.26911
 Alpha  occ. eigenvalues --  -10.26296 -10.25906 -10.25394 -10.25341 -10.24921
 Alpha  occ. eigenvalues --  -10.24896 -10.24781 -10.24281  -1.10906  -1.09590
 Alpha  occ. eigenvalues --   -1.05778  -1.05246  -1.04450  -1.03718  -1.02824
 Alpha  occ. eigenvalues --   -1.02413  -1.01711  -1.00939  -0.99711  -0.82839
 Alpha  occ. eigenvalues --   -0.80721  -0.79890  -0.78964  -0.72418  -0.69991
 Alpha  occ. eigenvalues --   -0.67542  -0.65136  -0.63191  -0.62664  -0.62195
 Alpha  occ. eigenvalues --   -0.61097  -0.56790  -0.56422  -0.55315  -0.55047
 Alpha  occ. eigenvalues --   -0.54022  -0.53493  -0.53328  -0.52054  -0.51612
 Alpha  occ. eigenvalues --   -0.50655  -0.50294  -0.49305  -0.49252  -0.47189
 Alpha  occ. eigenvalues --   -0.46549  -0.45570  -0.44235  -0.43923  -0.43450
 Alpha  occ. eigenvalues --   -0.42750  -0.41873  -0.41456  -0.40669  -0.39548
 Alpha  occ. eigenvalues --   -0.39217  -0.38047  -0.37985  -0.36459  -0.35574
 Alpha  occ. eigenvalues --   -0.35106  -0.34983  -0.34354  -0.34178  -0.33854
 Alpha  occ. eigenvalues --   -0.33372  -0.31419  -0.30951  -0.30607  -0.29998
 Alpha  occ. eigenvalues --   -0.29772  -0.28485  -0.28404  -0.27334  -0.26906
 Alpha  occ. eigenvalues --   -0.26666
 Alpha virt. eigenvalues --   -0.02428  -0.02302  -0.01843  -0.00208   0.00139
 Alpha virt. eigenvalues --    0.00830   0.01931   0.02075   0.03107   0.03507
 Alpha virt. eigenvalues --    0.03969   0.04449   0.04580   0.04952   0.05787

 Mulliken atomic charges:
              1
     1  O   -0.525983
     2  C   -0.190699
     3  C    0.155774
     4  O   -0.506922
     5  H    0.361303
     6  C    0.021328
     7  O   -0.553764
     8  H    0.442595
     9  C   -0.016562
    10  O   -0.548129
    11  H    0.355237
    12  C    0.099275
    13  O   -0.421934
    14  C    0.175657
    15  O   -0.327152
    16  C   -0.169439
    17  C    0.117965
    18  O   -0.527944
    19  H    0.424524
    20  C    0.135421
    21  O   -0.505088
    22  H    0.350297
    23  C   -0.101014
    24  O   -0.605011
    25  H    0.387765
    26  C    0.081560
    27  O   -0.327027
    28  C    0.128193
    29  O   -0.552094
    30  H    0.370552
    31  H    0.148085
    32  H    0.135892
    33  H    0.139528
    34  H    0.133560
    35  H    0.131913
    36  H    0.141282
    37  H    0.123786
    38  H    0.361962
    39  H    0.141374
    40  H    0.147659
    41  H    0.124555
    42  H    0.131368
    43  H    0.130078
    44  H    0.145801
    45  H    0.134472
 Sum of Mulliken atomic charges =   0.00000

 Dipole moment (field-independent basis, Debye):
    X=              3.1478    Y=              0.1324    Z=             -1.6086  Tot=              3.5375
 Quadrupole moment (field-independent basis, Debye-Ang):
   XX=           -117.8725   YY=           -140.9416   ZZ=           -137.9463
   XY=             16.9728   XZ=             -1.0917   YZ=              4.1010

  Exact polarizability: 228.868  -1.023 193.234   0.160   1.419 140.100
 Approx polarizability: 266.437  -0.002 248.234   0.313   2.050 228.706

 ******    6 imaginary frequencies (negative Signs) ******

                     1                      2                      3
                     A                      A                      A
 Frequencies --  -314.7709              -309.0568              -249.1378
 Red. masses --     1.1702                 1.8147                 1.2040
 Frc consts  --     0.0683                 0.1021                 0.0440
 IR Inten    --   121.1000                 2.0841               114.8202
 Raman Activ --     0.8216                 0.1074                 0.9779

                     4                      5                      6
                     A                      A                      A
 Frequencies --  -244.4428               -71.8313               -52.6075
 Red. masses --     1.7752                 7.0543                 6.4700
 Frc consts  --     0.0625                 0.0214                 0.0105
 IR Inten    --     5.4450                 1.3826                 0.1976
 Raman Activ --     0.1501                 0.0198                 0.0233

                     7                      8                      9
                     A                      A                      A
 Frequencies --    11.8649                35.0351                68.0094
 Red. masses --     6.7439                 6.4594                 6.9778
 Frc consts  --     0.0006                 0.0047                 0.0190
 IR Inten    --     1.8877                 0.7819                 0.6511
 Raman Activ --     0.0256                 0.0503                 0.1797

                    10                     11                     12
                     A                      A                      A
 Frequencies --    79.5378                94.3372               118.8681
 Red. masses --     6.7810                 6.9332                 5.7764
 Frc consts  --     0.0253                 0.0364                 0.0481
 IR Inten    --     1.5977                 1.5824                 1.1316
 Raman Activ --     0.0872                 0.0293                 0.1030

                    13                     14                     15
                     A                      A                      A
 Frequencies --   149.1540               176.9722               184.1741
 Red. masses --     6.0117                 5.6087                 7.0070
 Frc consts  --     0.0788                 0.1035                 0.1400
 IR Inten    --     4.5425                 1.3426                 0.6920
 Raman Activ --     0.3931                 0.2328                 0.3117

                    16                     17                     18
                     A                      A                      A
 Frequencies --   200.0756               225.0349               272.1022
 Red. masses --     7.0342                 6.0991                 4.3608
 Frc consts  --     0.1659                 0.1820                 0.1902
 IR Inten    --     0.2294                 2.2309                21.3495
 Raman Activ --     2.5845                 0.5927                 0.4707

                    19                     20                     21
                     A                      A                      A
 Frequencies --   281.7752               294.5853               309.1007
 Red. masses --     4.6703                 4.7960                 5.2526
 Frc consts  --     0.2185                 0.2452                 0.2957
 IR Inten    --     0.9691                 1.9618                 1.9198
 Raman Activ --     0.0735                 0.1575                 0.7017

                    22                     23                     24
                     A                      A                      A
 Frequencies --   311.0907               318.4215               331.9459
 Red. masses --     5.0407                 5.5525                 6.3199
 Frc consts  --     0.2874                 0.3317                 0.4103
 IR Inten    --     0.9543                 8.9122                 0.9845
 Raman Activ --     2.5048                 0.2136                 1.3537

                    25                     26                     27
                     A                      A                      A
 Frequencies --   339.3808               360.7967               385.2746
 Red. masses --     6.9050                 4.6585                 6.9785
 Frc consts  --     0.4686                 0.3573                 0.6103
 IR Inten    --     9.0239                 9.4697                 3.9541
 Raman Activ --     5.2273                 0.4309                 1.9000

                    28                     29                     30
                     A                      A                      A
 Frequencies --   410.9640               425.0490               429.3234
 Red. masses --     6.2129                 3.9136                 6.5903
 Frc consts  --     0.6182                 0.4166                 0.7157
 IR Inten    --     8.7667                19.8880                 1.9065
 Raman Activ --     4.4552                 6.2298                 0.5427

                    31                     32                     33
                     A                      A                      A
 Frequencies --   444.2293               478.3987               495.6315
 Red. masses --     5.2060                 3.9726                 4.0174
 Frc consts  --     0.6053                 0.5357                 0.5814
 IR Inten    --     6.5917                 4.1353                15.5801
 Raman Activ --     1.7607                 3.3405                 1.0998

                    34                     35                     36
                     A                      A                      A
 Frequencies --   507.0719               533.6305               576.0278
 Red. masses --     4.3951                 2.9672                 3.7600
 Frc consts  --     0.6658                 0.4978                 0.7351
 IR Inten    --    10.3713                10.2316                 8.7100
 Raman Activ --     2.6215                 3.0293                 1.5368

                    37                     38                     39
                     A                      A                      A
 Frequencies --   592.5254               606.4422               616.5442
 Red. masses --     3.0574                 4.6917                 4.6588
 Frc consts  --     0.6324                 1.0166                 1.0434
 IR Inten    --    39.5560                12.3653                 1.1941
 Raman Activ --     0.4992                 0.3893                 0.4090

                    40                     41                     42
                     A                      A                      A
 Frequencies --   628.9764               683.6145               694.8338
 Red. masses --     5.0691                 5.2421                 1.0581
 Frc consts  --     1.1815                 1.4434                 0.3010
 IR Inten    --    33.5395                10.4327                47.5240
 Raman Activ --     1.4973                 0.7873                 1.6834

                    43                     44                     45
                     A                      A                      A
 Frequencies --   695.8537               697.3773               723.1245
 Red. masses --     1.0669                 1.0919                 1.0527
 Frc consts  --     0.3044                 0.3129                 0.3243
 IR Inten    --   135.2140               129.8331               111.8987
 Raman Activ --     3.1375                 1.3099                 2.0616

                    46                     47                     48
                     A                      A                      A
 Frequencies --   737.8121               792.9747               856.6386
 Red. masses --     1.0631                 1.0919                 1.7787
 Frc consts  --     0.3410                 0.4045                 0.7690
 IR Inten    --    70.0053                69.7117                 2.0779
 Raman Activ --     0.6845                 1.0697                 1.1679

                    49                     50                     51
                     A                      A                      A
 Frequencies --   877.6913               936.6670               959.8588
 Red. masses --     1.8470                 5.3615                 5.1395
 Frc consts  --     0.8383                 2.7714                 2.7899
 IR Inten    --     5.7322                68.6441                35.2737
 Raman Activ --     1.5373                 2.5660                 0.3233

                    52                     53                     54
                     A                      A                      A
 Frequencies --   976.0995               983.7976               989.8632
 Red. masses --     4.5510                 4.9680                 4.1200
 Frc consts  --     2.5547                 2.8330                 2.3785
 IR Inten    --    86.9670                98.0491                11.3352
 Raman Activ --     3.3507                 0.8738                 1.1291

                    55                     56                     57
                     A                      A                      A
 Frequencies --  1012.5969              1015.5962              1029.6217
 Red. masses --     4.8822                 5.1769                 5.6851
 Frc consts  --     2.9494                 3.1460                 3.5509
 IR Inten    --   384.4745                19.5793                71.9681
 Raman Activ --     0.6659                 1.5282                 3.6917

                    58                     59                     60
                     A                      A                      A
 Frequencies --  1052.6518              1061.1921              1071.4785
 Red. masses --     4.2448                 3.2558                 2.5704
 Frc consts  --     2.7712                 2.1602                 1.7387
 IR Inten    --   464.6646                23.1778                17.6159
 Raman Activ --     1.4870                 9.3016                 6.8923

                    61                     62                     63
                     A                      A                      A
 Frequencies --  1084.9685              1086.6031              1088.9817
 Red. masses --     3.8192                 2.6909                 3.9343
 Frc consts  --     2.6488                 1.8720                 2.7489
 IR Inten    --    30.9438                22.0186                36.9198
 Raman Activ --     3.8387                 6.8670                 2.5254

                    64                     65                     66
                     A                      A                      A
 Frequencies --  1100.3698              1103.8965              1111.6094
 Red. masses --     4.6689                 3.3643                 3.8127
 Frc consts  --     3.3307                 2.4155                 2.7758
 IR Inten    --   187.7509               136.0867                93.7851
 Raman Activ --    11.4575                 5.9737                20.6987

                    67                     68                     69
                     A                      A                      A
 Frequencies --  1118.2783              1130.7244              1134.4511
 Red. masses --     2.4996                 2.4502                 2.3928
 Frc consts  --     1.8417                 1.8457                 1.8144
 IR Inten    --     0.4778                51.0677                 1.3482
 Raman Activ --     5.3905                 8.5512                 3.4624

                    70                     71                     72
                     A                      A                      A
 Frequencies --  1139.3521              1147.7849              1160.0469
 Red. masses --     1.8753                 1.8723                 2.5950
 Frc consts  --     1.4343                 1.4533                 2.0575
 IR Inten    --    35.4536                22.9824                42.6468
 Raman Activ --     5.0221                 4.3124                 1.2849

                    73                     74                     75
                     A                      A                      A
 Frequencies --  1161.1880              1171.0275              1205.4447
 Red. masses --     2.7393                 1.9831                 1.4924
 Frc consts  --     2.1762                 1.6023                 1.2777
 IR Inten    --     5.1101                 2.6927                17.9196
 Raman Activ --     4.0018                 0.9778                 3.2766

                    76                     77                     78
                     A                      A                      A
 Frequencies --  1207.2212              1227.6997              1230.5113
 Red. masses --     1.5944                 1.3651                 1.4825
 Frc consts  --     1.3690                 1.2123                 1.3226
 IR Inten    --     6.0958                 1.5064                10.1347
 Raman Activ --     2.5356                 5.2554                 2.6345

                    79                     80                     81
                     A                      A                      A
 Frequencies --  1236.5277              1243.2753              1264.7011
 Red. masses --     1.2990                 1.2707                 1.3422
 Frc consts  --     1.1703                 1.1573                 1.2649
 IR Inten    --    20.8950                22.3734                70.2172
 Raman Activ --     0.1799                 2.0495                 3.7527

                    82                     83                     84
                     A                      A                      A
 Frequencies --  1267.0755              1274.6815              1286.6901
 Red. masses --     1.2236                 1.3510                 1.2790
 Frc consts  --     1.1575                 1.2934                 1.2475
 IR Inten    --    32.8039                20.7679                 8.8733
 Raman Activ --     2.0390                 2.0928                 1.9826

                    85                     86                     87
                     A                      A                      A
 Frequencies --  1295.2680              1297.0728              1304.1470
 Red. masses --     1.2302                 1.2412                 1.2391
 Frc consts  --     1.2160                 1.2303                 1.2417
 IR Inten    --    18.8416                 0.9407                13.0861
 Raman Activ --     5.6361                 4.7374                 3.4007

                    88                     89                     90
                     A                      A                      A
 Frequencies --  1315.8492              1322.9220              1326.0116
 Red. masses --     1.2778                 1.2777                 1.1873
 Frc consts  --     1.3036                 1.3175                 1.2300
 IR Inten    --    28.1310                50.9978                44.3967
 Raman Activ --     6.9292                 7.0275                 4.7993

                    91                     92                     93
                     A                      A                      A
 Frequencies --  1330.3813              1334.8654              1349.2904
 Red. masses --     1.2352                 1.1932                 1.2824
 Frc consts  --     1.2881                 1.2527                 1.3756
 IR Inten    --     0.6293                19.2944                19.1377
 Raman Activ --     4.1913                 8.6074                 2.9274

                    94                     95                     96
                     A                      A                      A
 Frequencies --  1365.9610              1368.6553              1374.1311
 Red. masses --     1.3840                 1.3165                 1.4074
 Frc consts  --     1.5215                 1.4530                 1.5658
 IR Inten    --    20.2319                10.3198                 7.6693
 Raman Activ --     7.1843                 5.6427                 3.6957

                    97                     98                     99
                     A                      A                      A
 Frequencies --  1378.0885              1390.2681              1402.6464
 Red. masses --     1.4971                 1.4827                 1.6399
 Frc consts  --     1.6752                 1.6885                 1.9010
 IR Inten    --    25.1332                18.2425                33.9910
 Raman Activ --     5.1189                 2.3145                 1.1932

                   100                    101                    102
                     A                      A                      A
 Frequencies --  1412.1544              1421.2265              1431.9875
 Red. masses --     1.3798                 1.3829                 1.5302
 Frc consts  --     1.6212                 1.6458                 1.8488
 IR Inten    --     8.0634                 4.8169                46.9560
 Raman Activ --     3.0914                 4.8111                 0.3997

                   103                    104                    105
                     A                      A                      A
 Frequencies --  1460.9130              1481.9931              1485.6860
 Red. masses --     1.4156                 1.2967                 1.0976
 Frc consts  --     1.7801                 1.6779                 1.4274
 IR Inten    --     9.3601                 8.1018                 2.3760
 Raman Activ --     1.8578                 2.7643                 4.2589

                   106                    107                    108
                     A                      A                      A
 Frequencies --  1492.4162              1537.1069              3259.3572
 Red. masses --     1.1525                 1.2383                 1.0828
 Frc consts  --     1.5124                 1.7238                 6.7773
 IR Inten    --     1.9852                69.0818                13.9471
 Raman Activ --     4.0176                 1.2919                20.1332

                   109                    110                    111
                     A                      A                      A
 Frequencies --  3269.2850              3270.4221              3277.9236
 Red. masses --     1.0574                 1.0585                 1.0816
 Frc consts  --     6.6590                 6.6701                 6.8470
 IR Inten    --    28.8220                61.4509                40.4461
 Raman Activ --    72.8504                85.2820               108.9221

                   112                    113                    114
                     A                      A                      A
 Frequencies --  3290.5554              3292.6412              3299.3029
 Red. masses --     1.0847                 1.0830                 1.0857
 Frc consts  --     6.9198                 6.9175                 6.9629
 IR Inten    --     6.3804                12.1351                14.6018
 Raman Activ --    24.1442               118.8576               101.5225

                   115                    116                    117
                     A                      A                      A
 Frequencies --  3300.1712              3303.2165              3306.6111
 Red. masses --     1.0852                 1.0860                 1.0872
 Frc consts  --     6.9637                 6.9817                 7.0034
 IR Inten    --    22.3094                16.6564                 7.8669
 Raman Activ --    38.0977               119.8336                 4.8260

                   118                    119                    120
                     A                      A                      A
 Frequencies --  3314.4735              3315.2262              3321.7043
 Red. masses --     1.0859                 1.0873                 1.1050
 Frc consts  --     7.0285                 7.0410                 7.1833
 IR Inten    --    86.2458                75.0535                69.7721
 Raman Activ --    52.1573                 7.3567                72.9672

                   121                    122                    123
                     A                      A                      A
 Frequencies --  3324.9154              3329.7413              3340.6655
 Red. masses --     1.0848                 1.0909                 1.0701
 Frc consts  --     7.0659                 7.1261                 7.0361
 IR Inten    --   140.3517               164.2350               977.2847
 Raman Activ --    99.1121               158.6726                87.3512

                   124                    125                    126
                     A                      A                      A
 Frequencies --  3380.9569              3390.5775              3391.5927
 Red. masses --     1.0664                 1.0672                 1.0663
 Frc consts  --     7.1819                 7.2281                 7.2266
 IR Inten    --    37.1558                33.4892                42.6242
 Raman Activ --   134.6682               149.9129               152.0880

                   127                    128                    129
                     A                      A                      A
 Frequencies --  3401.8904              3919.1036              3919.2903
 Red. masses --     1.0666                 1.0679                 1.0677
 Frc consts  --     7.2730                 9.6635                 9.6630
 IR Inten    --    66.2982                99.9118                44.1891
 Raman Activ --   152.3443                51.9679               149.0063

 - Thermochemistry -
 -------------------
 Temperature   298.150 Kelvin.  Pressure   1.00000 Atm.
 Atom     1 has atomic number  8 and mass  15.99491

 Molecular mass:   342.11621 amu.
 Principal axes and moments of inertia in atomic units:
                           1         2         3
     Eigenvalues --  4484.57025********************
           X            0.99996   0.00845  -0.00053
           Y           -0.00845   0.99996   0.00266
           Z            0.00055  -0.00266   1.00000
 This molecule is an asymmetric top.
 Rotational symmetry number  1.
 Warning -- assumption of classical behavior for rotation
           may cause significant error
 Rotational temperatures (Kelvin)      0.01931     0.00702     0.00525
 Rotational constants (GHZ):           0.40243     0.14621     0.10943
    6 imaginary frequencies ignored.
 Zero-point vibrational energy     977489.4 (Joules/Mol)
                                  233.62558 (Kcal/Mol)
 Warning -- explicit consideration of  33 degrees of freedom as
           vibrations may cause significant error
 Vibrational temperatures:     17.07    50.41    97.85   114.44   135.73
          (Kelvin)            171.02   214.60   254.62   264.99   287.86
                              323.77   391.49   405.41   423.84   444.73
                              447.59   458.14   477.60   488.29   519.11
                              554.32   591.28   611.55   617.70   639.15
                              688.31   713.10   729.56   767.77   828.77
                              852.51   872.53   887.07   904.96   983.57
                              999.71  1001.18  1003.37  1040.41  1061.55
                             1140.91  1232.51  1262.80  1347.65  1381.02
                             1404.39  1415.46  1424.19  1456.90  1461.21
                             1481.39  1514.53  1526.82  1541.62  1561.03
                             1563.38  1566.80  1583.18  1588.26  1599.36
                             1608.95  1626.86  1632.22  1639.27  1651.40
                             1669.05  1670.69  1684.85  1734.36  1736.92
                             1766.38  1770.43  1779.09  1788.79  1819.62
                             1823.04  1833.98  1851.26  1863.60  1866.20
                             1876.37  1893.21  1903.39  1907.83  1914.12
                             1920.57  1941.33  1965.31  1969.19  1977.07
                             1982.76  2000.28  2018.09  2031.77  2044.83
                             2060.31  2101.93  2132.25  2137.57  2147.25
                             2211.55  4689.48  4703.77  4705.40  4716.20
                             4734.37  4737.37  4746.96  4748.20  4752.59
                             4757.47  4768.78  4769.87  4779.19  4783.81
                             4790.75  4806.47  4864.44  4878.28  4879.74
                             4894.56  5638.71  5638.98

 Zero-point correction=                           0.372306 (Hartree/Particle)
 Thermal correction to Energy=                    0.391544
 Thermal correction to Enthalpy=                  0.392488
 Thermal correction to Gibbs Free Energy=         0.323900
 Sum of electronic and zero-point Energies=          -1297.572683
 Sum of electronic and thermal Energies=             -1297.553445
 Sum of electronic and thermal Enthalpies=           -1297.552501
 Sum of electronic and thermal Free Energies=        -1297.621089

                     E (Thermal)             CV                S
                      KCal/Mol        Cal/Mol-Kelvin    Cal/Mol-Kelvin
 Total                  245.698             77.875            144.355
 Electronic               0.000              0.000              0.000
 Translational            0.889              2.981             43.384
 Rotational               0.889              2.981             35.167
 Vibrational            243.920             71.913             65.804
 Vibration     1          0.593              1.987              7.671
 Vibration     2          0.594              1.982              5.522
 Vibration     3          0.598              1.969              4.210
 Vibration     4          0.600              1.963              3.902
 Vibration     5          0.603              1.953              3.568
 Vibration     6          0.609              1.934              3.119
 Vibration     7          0.618              1.904              2.683
 Vibration     8          0.628              1.871              2.360
 Vibration     9          0.631              1.861              2.286
 Vibration    10          0.638              1.840              2.132
 Vibration    11          0.650              1.803              1.918
 Vibration    12          0.675              1.725              1.583
 Vibration    13          0.681              1.707              1.523
 Vibration    14          0.689              1.684              1.447
 Vibration    15          0.698              1.656              1.367
 Vibration    16          0.700              1.653              1.357
 Vibration    17          0.705              1.638              1.318
 Vibration    18          0.714              1.612              1.251
 Vibration    19          0.719              1.597              1.215
 Vibration    20          0.735              1.553              1.119
 Vibration    21          0.754              1.502              1.018
 Vibration    22          0.775              1.446              0.923
 Vibration    23          0.787              1.416              0.875
 Vibration    24          0.791              1.406              0.861
 Vibration    25          0.804              1.374              0.813
 Vibration    26          0.835              1.298              0.714
 Vibration    27          0.851              1.260              0.669
 Vibration    28          0.862              1.234              0.641
 Vibration    29          0.889              1.176              0.579
 Vibration    30          0.932              1.083              0.493
 Vibration    31          0.950              1.048              0.463
 Vibration    32          0.965              1.018              0.439
 Vibration    33          0.976              0.997              0.422

 Normal termination of Gaussian 09 at Tue Mar  1 02:58:25 2016.
