 Gaussian 09, Revision B.01,
 Gaussian 09:  EM64L-G09RevB.01 12-Aug-2010

 -------------------------------------------------
 # freq=raman b3lyp/6-31+g(2d,p) geom=connectivity
 -------------------------------------------------

 -----------------
 423 9052/9052.com
 -----------------
 Symbolic Z-matrix:
 Charge =  0 Multiplicity = 1

                         Standard orientation:
 ---------------------------------------------------------------------
 Center     Atomic      Atomic             Coordinates (Angstroms)
 Number     Number       Type             X           Y           Z
 ---------------------------------------------------------------------
      1          8           0        5.035461   -0.286690   -0.497558
      2          6           0        3.744180   -0.018180    0.069546
      3          6           0        3.099009    1.268465   -0.421082
      4          8           0        3.943943    2.425740   -0.348359
      5          1           0        4.837198    2.227158   -0.750115
      6          6           0        1.774645    1.583825    0.254997
      7          8           0        1.142116    2.829512   -0.071949
      8          1           0        0.207269    2.901855    0.276705
      9          6           0        2.992650   -2.551800    0.305023
     10          8           0        4.245917   -3.189411    0.022056
     11          1           0        4.183604   -4.157776    0.264658
     12          6           0        2.800834   -1.158901   -0.273316
     13          8           0        1.520388   -0.860232    0.302794
     14          6           0        0.912173    0.379430   -0.086518
     15          8           0       -0.223342    0.366097    0.791048
     16          6           0       -1.437799    0.216199    0.041822
     17          6           0       -1.947477   -1.182075    0.353466
     18          8           0       -0.978960   -2.195959    0.051026
     19          1           0       -0.073550   -1.856112    0.306592
     20          6           0       -3.249282   -1.587292   -0.318018
     21          8           0       -3.808994   -2.805976    0.193919
     22          1           0       -4.673924   -2.839493   -0.306001
     23          6           0       -2.332035    2.645782   -0.130647
     24          8           0       -1.391340    3.388143    0.659037
     25          1           0       -1.365545    4.333105    0.332657
     26          6           0       -2.569542    1.202510    0.281190
     27          8           0       -3.786209    0.796228   -0.361457
     28          6           0       -4.263823   -0.504310    0.013375
     29          8           0       -5.428269   -0.626059   -0.817652
     30          1           0       -6.206744   -0.726625   -0.264965
     31          1           0        5.667567   -0.446176    0.207145
     32          1           0        2.210269   -3.177356   -0.071089
     33          1           0        2.886450   -2.486824    1.367755
     34          1           0        2.702953   -1.228388   -1.336562
     35          1           0        3.843953    0.034814    1.133565
     36          1           0        2.881468    1.117744   -1.457836
     37          1           0        1.940896    1.576521    1.311977
     38          1           0        0.617725    0.373201   -1.115188
     39          1           0       -3.270568    3.158459   -0.095757
     40          1           0       -1.988139    2.648341   -1.143874
     41          1           0       -2.757088    1.206567    1.334618
     42          1           0       -1.187319    0.253047   -0.997794
     43          1           0       -2.118675   -1.218694    1.409046
     44          1           0       -3.114954   -1.656649   -1.377284
     45          1           0       -4.529748   -0.529786    1.049490
 ---------------------------------------------------------------------

 SCF Done:  E(RB3LYP) =  -1297.99470009     A.U. after   13 cycles

 The electronic state is 1-A.
 Alpha  occ. eigenvalues --  -19.19341 -19.18324 -19.18319 -19.18193 -19.17834
 Alpha  occ. eigenvalues --  -19.16878 -19.16234 -19.16013 -19.15112 -19.13838
 Alpha  occ. eigenvalues --  -19.13737 -10.30449 -10.30376 -10.26252 -10.25613
 Alpha  occ. eigenvalues --  -10.25544 -10.25503 -10.25467 -10.24604 -10.24558
 Alpha  occ. eigenvalues --  -10.24449 -10.24051 -10.24051  -1.10550  -1.09296
 Alpha  occ. eigenvalues --   -1.05988  -1.05189  -1.04067  -1.03670  -1.02767
 Alpha  occ. eigenvalues --   -1.02387  -1.01934  -1.00521  -0.99966  -0.82141
 Alpha  occ. eigenvalues --   -0.80653  -0.79518  -0.78602  -0.71876  -0.70251
 Alpha  occ. eigenvalues --   -0.67095  -0.65366  -0.63377  -0.62563  -0.61473
 Alpha  occ. eigenvalues --   -0.60358  -0.56718  -0.56100  -0.55147  -0.54480
 Alpha  occ. eigenvalues --   -0.54117  -0.53718  -0.53095  -0.51465  -0.51283
 Alpha  occ. eigenvalues --   -0.50954  -0.50025  -0.49165  -0.48880  -0.46763
 Alpha  occ. eigenvalues --   -0.46165  -0.45433  -0.44299  -0.43588  -0.43311
 Alpha  occ. eigenvalues --   -0.42574  -0.42021  -0.41013  -0.40140  -0.39359
 Alpha  occ. eigenvalues --   -0.38933  -0.38312  -0.37702  -0.36242  -0.36077
 Alpha  occ. eigenvalues --   -0.35594  -0.35103  -0.34662  -0.34279  -0.33847
 Alpha  occ. eigenvalues --   -0.33034  -0.31719  -0.31359  -0.30185  -0.29632
 Alpha  occ. eigenvalues --   -0.29485  -0.28570  -0.28291  -0.27406  -0.27237
 Alpha  occ. eigenvalues --   -0.26478
 Alpha virt. eigenvalues --   -0.01989  -0.01767  -0.01674  -0.00144   0.00265
 Alpha virt. eigenvalues --    0.01007   0.02021   0.02087   0.03121   0.03442
 Alpha virt. eigenvalues --    0.03793   0.04389   0.04937   0.05228   0.05761

 Mulliken atomic charges:
              1
     1  O   -0.539087
     2  C    0.034866
     3  C    0.251980
     4  O   -0.558439
     5  H    0.342055
     6  C   -0.190377
     7  O   -0.599707
     8  H    0.432040
     9  C   -0.190768
    10  O   -0.546016
    11  H    0.337323
    12  C    0.064386
    13  O   -0.241007
    14  C    0.348356
    15  O   -0.215639
    16  C    0.284147
    17  C    0.128782
    18  O   -0.578646
    19  H    0.385881
    20  C    0.050018
    21  O   -0.524216
    22  H    0.336626
    23  C   -0.256209
    24  O   -0.563589
    25  H    0.361917
    26  C   -0.178055
    27  O   -0.226093
    28  C    0.133304
    29  O   -0.544904
    30  H    0.335498
    31  H    0.339826
    32  H    0.150847
    33  H    0.144172
    34  H    0.111674
    35  H    0.113675
    36  H    0.101792
    37  H    0.122658
    38  H    0.124913
    39  H    0.152283
    40  H    0.156028
    41  H    0.120335
    42  H    0.097111
    43  H    0.118539
    44  H    0.135676
    45  H    0.136040
 Sum of Mulliken atomic charges =   0.00000

 Dipole moment (field-independent basis, Debye):
    X=             -2.0673    Y=              0.3432    Z=              1.0839  Tot=              2.3593
 Quadrupole moment (field-independent basis, Debye-Ang):
   XX=           -118.0707   YY=           -138.6974   ZZ=           -139.4573
   XY=            -14.6552   XZ=              1.2948   YZ=             -2.6164

  Exact polarizability: 232.671   0.516 198.022  -0.175  -1.227 143.412
 Approx polarizability: 273.714  -0.316 258.130  -0.218  -1.621 240.100

 ******    6 imaginary frequencies (negative Signs) ******

                     1                      2                      3
                     A                      A                      A
 Frequencies --  -272.1169              -240.1910              -230.8571
 Red. masses --     1.1594                 1.8214                 1.7453
 Frc consts  --     0.0506                 0.0619                 0.0548
 IR Inten    --    96.5242                 7.1265                 7.6900
 Raman Activ --     0.7060                 0.0980                 0.2192

                     4                      5                      6
                     A                      A                      A
 Frequencies --  -157.5290               -61.7955               -54.5834
 Red. masses --     1.2485                 6.7628                 6.3166
 Frc consts  --     0.0183                 0.0152                 0.0111
 IR Inten    --    96.7191                 0.6370                 0.8319
 Raman Activ --     0.6546                 0.0597                 0.0336

                     7                      8                      9
                     A                      A                      A
 Frequencies --    26.7817                53.8316                65.1039
 Red. masses --     6.7176                 6.6442                 6.7393
 Frc consts  --     0.0028                 0.0113                 0.0168
 IR Inten    --     0.3359                 0.9189                 2.8993
 Raman Activ --     0.0380                 0.0551                 0.0240

                    10                     11                     12
                     A                      A                      A
 Frequencies --    80.0108                98.4733               122.9500
 Red. masses --     5.9757                 7.1052                 5.4229
 Frc consts  --     0.0225                 0.0406                 0.0483
 IR Inten    --     2.6128                 0.6966                 3.7253
 Raman Activ --     0.2203                 0.0580                 0.1053

                    13                     14                     15
                     A                      A                      A
 Frequencies --   160.6775               174.3141               180.2496
 Red. masses --     6.4431                 5.8057                 7.7649
 Frc consts  --     0.0980                 0.1039                 0.1486
 IR Inten    --     3.6343                 5.6127                 1.1865
 Raman Activ --     0.2565                 0.4221                 0.7126

                    16                     17                     18
                     A                      A                      A
 Frequencies --   212.6458               230.5912               265.8624
 Red. masses --     6.6763                 5.9395                 4.8775
 Frc consts  --     0.1779                 0.1861                 0.2031
 IR Inten    --     0.4247                 2.7945                10.2287
 Raman Activ --     1.9788                 0.9481                 0.2537

                    19                     20                     21
                     A                      A                      A
 Frequencies --   272.3888               281.9714               302.3497
 Red. masses --     4.2308                 5.0282                 5.3546
 Frc consts  --     0.1850                 0.2355                 0.2884
 IR Inten    --     9.7755                 1.8904                 5.7164
 Raman Activ --     0.0733                 0.1736                 0.5081

                    22                     23                     24
                     A                      A                      A
 Frequencies --   315.6049               320.1224               331.9890
 Red. masses --     5.5296                 4.3323                 6.1324
 Frc consts  --     0.3245                 0.2616                 0.3982
 IR Inten    --     2.6584                 3.0354                 1.2492
 Raman Activ --     2.4790                 0.4536                 1.7965

                    25                     26                     27
                     A                      A                      A
 Frequencies --   344.8318               352.7998               376.2905
 Red. masses --     6.4847                 4.7290                 8.3305
 Frc consts  --     0.4543                 0.3468                 0.6950
 IR Inten    --     5.9010                 5.1161                 8.9203
 Raman Activ --     4.6749                 0.7534                 3.0161

                    28                     29                     30
                     A                      A                      A
 Frequencies --   397.8138               424.4048               432.3128
 Red. masses --     5.0810                 4.2540                 6.0860
 Frc consts  --     0.4738                 0.4514                 0.6702
 IR Inten    --    11.7095                 3.0679                 0.5963
 Raman Activ --     2.3640                 6.1906                 0.6907

                    31                     32                     33
                     A                      A                      A
 Frequencies --   443.1370               481.5156               489.6746
 Red. masses --     4.4020                 4.6923                 4.3892
 Frc consts  --     0.5093                 0.6410                 0.6201
 IR Inten    --     6.8289                 9.0550                14.2993
 Raman Activ --     1.7443                 5.4218                 0.1261

                    34                     35                     36
                     A                      A                      A
 Frequencies --   501.8375               537.0751               570.1459
 Red. masses --     3.9016                 3.3102                 4.1453
 Frc consts  --     0.5789                 0.5626                 0.7939
 IR Inten    --     7.2010                 6.6943                 6.5513
 Raman Activ --     4.0097                 1.9848                 1.7609

                    37                     38                     39
                     A                      A                      A
 Frequencies --   588.2909               604.6149               631.0539
 Red. masses --     2.9244                 5.6425                 5.3406
 Frc consts  --     0.5963                 1.2153                 1.2531
 IR Inten    --    48.8436                 9.6214                16.1382
 Raman Activ --     0.3063                 0.6261                 0.4618

                    40                     41                     42
                     A                      A                      A
 Frequencies --   643.1144               696.4036               709.2770
 Red. masses --     4.1244                 5.7922                 1.0740
 Frc consts  --     1.0051                 1.6551                 0.3183
 IR Inten    --    27.1118                11.6042               101.1817
 Raman Activ --     0.6268                 1.0282                 2.1252

                    43                     44                     45
                     A                      A                      A
 Frequencies --   729.3903               762.9161               772.6454
 Red. masses --     1.0668                 1.0896                 1.1065
 Frc consts  --     0.3344                 0.3737                 0.3892
 IR Inten    --   107.2103               128.6439               113.3590
 Raman Activ --     1.8970                 1.9566                 1.5684

                    46                     47                     48
                     A                      A                      A
 Frequencies --   814.7168               836.2443               852.2519
 Red. masses --     1.0822                 1.1457                 1.7957
 Frc consts  --     0.4232                 0.4721                 0.7685
 IR Inten    --    92.5724                59.8288                 0.9901
 Raman Activ --     2.1089                 0.3943                 1.0934

                    49                     50                     51
                     A                      A                      A
 Frequencies --   878.4889               930.8787               948.7375
 Red. masses --     1.5642                 5.7602                 5.7571
 Frc consts  --     0.7112                 2.9409                 3.0531
 IR Inten    --    23.9119               149.2927                74.1369
 Raman Activ --     0.7235                 3.3215                 0.7694

                    52                     53                     54
                     A                      A                      A
 Frequencies --   968.4847               981.8171               987.1799
 Red. masses --     5.6010                 5.0642                 4.2234
 Frc consts  --     3.0953                 2.8762                 2.4249
 IR Inten    --    71.3053                34.7455                50.8465
 Raman Activ --     1.5861                 2.2717                 1.7454

                    55                     56                     57
                     A                      A                      A
 Frequencies --  1002.8943              1005.6822              1019.4518
 Red. masses --     5.0728                 6.4204                 6.2185
 Frc consts  --     3.0061                 3.8259                 3.8078
 IR Inten    --   357.2556                27.8775                72.9064
 Raman Activ --     3.0908                 2.3157                 3.8009

                    58                     59                     60
                     A                      A                      A
 Frequencies --  1042.2387              1053.3062              1065.4254
 Red. masses --     6.1391                 4.6299                 4.7003
 Frc consts  --     3.9291                 3.0264                 3.1435
 IR Inten    --   356.1024                53.8378                 8.8670
 Raman Activ --     1.7040                 8.8950                 9.4174

                    61                     62                     63
                     A                      A                      A
 Frequencies --  1072.8806              1081.1068              1089.2279
 Red. masses --     5.5512                 3.5595                 5.4096
 Frc consts  --     3.7648                 2.4512                 3.7814
 IR Inten    --    86.9260                 5.4719               167.8393
 Raman Activ --     1.3387                25.1821                 6.5766

                    64                     65                     66
                     A                      A                      A
 Frequencies --  1092.4174              1100.5878              1106.2704
 Red. masses --     2.3263                 2.7136                 2.6050
 Frc consts  --     1.6357                 1.9366                 1.8784
 IR Inten    --    34.7091                82.3531                97.4895
 Raman Activ --     5.9120                 4.4258                 6.9985

                    67                     68                     69
                     A                      A                      A
 Frequencies --  1115.4100              1122.9099              1135.7677
 Red. masses --     2.6749                 3.3384                 2.9827
 Frc consts  --     1.9607                 2.4802                 2.2669
 IR Inten    --     6.3991                 6.9946                49.9568
 Raman Activ --     0.6280                 1.9015                10.9327

                    70                     71                     72
                     A                      A                      A
 Frequencies --  1145.8331              1151.2954              1156.0072
 Red. masses --     2.6732                 1.7873                 1.8451
 Frc consts  --     2.0678                 1.3958                 1.4527
 IR Inten    --    22.6862                 5.0725                 3.0935
 Raman Activ --     4.0849                 2.9174                 1.9000

                    73                     74                     75
                     A                      A                      A
 Frequencies --  1159.7003              1176.9665              1196.0241
 Red. masses --     1.7733                 1.6616                 2.1230
 Frc consts  --     1.4051                 1.3562                 1.7893
 IR Inten    --    17.3908                23.4134                 3.4681
 Raman Activ --     4.2627                 1.3398                 1.7827

                    76                     77                     78
                     A                      A                      A
 Frequencies --  1207.5644              1210.5067              1229.0745
 Red. masses --     1.4422                 1.3221                 1.2824
 Frc consts  --     1.2391                 1.1415                 1.1414
 IR Inten    --     3.6609                11.2890                 3.7524
 Raman Activ --     2.7296                 0.9677                 2.6638

                    79                     80                     81
                     A                      A                      A
 Frequencies --  1233.3552              1247.1116              1253.3325
 Red. masses --     1.1866                 1.2799                 1.2780
 Frc consts  --     1.0635                 1.1729                 1.1828
 IR Inten    --    17.8009                 2.9149                11.1894
 Raman Activ --     1.7459                 1.2507                 0.7257

                    82                     83                     84
                     A                      A                      A
 Frequencies --  1275.8978              1279.1440              1281.9194
 Red. masses --     1.2414                 1.2673                 1.3265
 Frc consts  --     1.1907                 1.2217                 1.2844
 IR Inten    --     3.5938                20.0507                16.9949
 Raman Activ --     3.3190                 2.3757                 3.0478

                    85                     86                     87
                     A                      A                      A
 Frequencies --  1283.9774              1296.9587              1302.5519
 Red. masses --     1.2861                 1.2342                 1.2455
 Frc consts  --     1.2492                 1.2232                 1.2450
 IR Inten    --    19.7850                14.4190                18.6361
 Raman Activ --     1.9074                 3.5523                 3.4801

                    88                     89                     90
                     A                      A                      A
 Frequencies --  1312.3700              1324.0683              1325.6790
 Red. masses --     1.2718                 1.3382                 1.1316
 Frc consts  --     1.2905                 1.3823                 1.1717
 IR Inten    --    14.2929                39.6059                50.1638
 Raman Activ --     6.6764                 5.1984                 4.0710

                    91                     92                     93
                     A                      A                      A
 Frequencies --  1330.8793              1337.7899              1345.5389
 Red. masses --     1.2336                 1.2151                 1.2633
 Frc consts  --     1.2874                 1.2812                 1.3475
 IR Inten    --    18.1752                36.0600                24.6378
 Raman Activ --     4.4337                 2.7954                 3.7725

                    94                     95                     96
                     A                      A                      A
 Frequencies --  1355.3027              1367.6525              1376.5579
 Red. masses --     1.2616                 1.5233                 1.5362
 Frc consts  --     1.3654                 1.6787                 1.7150
 IR Inten    --    28.8010                 4.2607                 4.7860
 Raman Activ --     2.4694                 6.5212                 5.0125

                    97                     98                     99
                     A                      A                      A
 Frequencies --  1379.2779              1392.0640              1422.0025
 Red. masses --     1.5406                 1.4210                 1.3562
 Frc consts  --     1.7268                 1.6224                 1.6157
 IR Inten    --     7.0049                 5.2474                27.1826
 Raman Activ --     5.3178                 3.9639                 3.2506

                   100                    101                    102
                     A                      A                      A
 Frequencies --  1433.4994              1453.1924              1465.6570
 Red. masses --     1.2483                 1.4488                 1.3622
 Frc consts  --     1.5114                 1.8026                 1.7240
 IR Inten    --     7.4261                38.7299                20.1182
 Raman Activ --    12.9487                 1.1107                 3.1081

                   103                    104                    105
                     A                      A                      A
 Frequencies --  1470.6551              1475.9968              1478.5140
 Red. masses --     1.3192                 1.1243                 1.2787
 Frc consts  --     1.6810                 1.4432                 1.6469
 IR Inten    --    24.4677                 2.0646                17.7605
 Raman Activ --     2.2459                 3.1084                 0.9677

                   106                    107                    108
                     A                      A                      A
 Frequencies --  1481.8863              1499.1934              3224.0445
 Red. masses --     1.0905                 1.3529                 1.0709
 Frc consts  --     1.4109                 1.7916                 6.5583
 IR Inten    --     9.8131                60.1771               916.6535
 Raman Activ --     3.7468                 1.9571               176.5153

                   109                    110                    111
                     A                      A                      A
 Frequencies --  3255.9851              3259.6417              3261.1171
 Red. masses --     1.0804                 1.0570                 1.0729
 Frc consts  --     6.7485                 6.6171                 6.7224
 IR Inten    --    23.6932                43.3729                19.3823
 Raman Activ --    65.8091               123.0502               108.4052

                   112                    113                    114
                     A                      A                      A
 Frequencies --  3263.0896              3266.4277              3275.4585
 Red. masses --     1.0784                 1.0711                 1.0829
 Frc consts  --     6.7654                 6.7334                 6.8454
 IR Inten    --    22.0996                15.5708                25.2910
 Raman Activ --    16.9657                93.2483                15.7260

                   115                    116                    117
                     A                      A                      A
 Frequencies --  3278.9599              3282.6469              3288.6787
 Red. masses --     1.0843                 1.0846                 1.0854
 Frc consts  --     6.8685                 6.8859                 6.9165
 IR Inten    --    18.8865                14.6879                 7.1637
 Raman Activ --   157.3148                22.1891               117.8287

                   118                    119                    120
                     A                      A                      A
 Frequencies --  3291.1800              3297.5056              3302.6098
 Red. masses --     1.0858                 1.0834                 1.0832
 Frc consts  --     6.9294                 6.9409                 6.9607
 IR Inten    --     4.7726               145.7660               177.8226
 Raman Activ --    21.0824                15.6799                31.7957

                   121                    122                    123
                     A                      A                      A
 Frequencies --  3307.2611              3317.2016              3319.8913
 Red. masses --     1.0757                 1.1065                 1.1071
 Frc consts  --     6.9323                 7.1735                 7.1891
 IR Inten    --   348.7643                54.3619                33.0447
 Raman Activ --   115.9719                39.3168                52.8367

                   124                    125                    126
                     A                      A                      A
 Frequencies --  3365.2073              3368.2674              3375.2968
 Red. masses --     1.0672                 1.0647                 1.0665
 Frc consts  --     7.1208                 7.1171                 7.1587
 IR Inten    --    42.0347                37.4605                75.3160
 Raman Activ --   166.9501                99.1004               118.7046

                   127                    128                    129
                     A                      A                      A
 Frequencies --  3377.5164              3891.2814              3891.4702
 Red. masses --     1.0660                 1.0675                 1.0676
 Frc consts  --     7.1649                 9.5233                 9.5255
 IR Inten    --    36.5290               110.2372                49.4598
 Raman Activ --   135.6523                69.6984               136.7884

 - Thermochemistry -
 -------------------
 Temperature   298.150 Kelvin.  Pressure   1.00000 Atm.
 Atom     1 has atomic number  8 and mass  15.99491

 Molecular mass:   342.11621 amu.
 Principal axes and moments of inertia in atomic units:
                           1         2         3
     Eigenvalues --  4552.72877********************
           X            0.99997  -0.00775   0.00006
           Y            0.00775   0.99997  -0.00310
           Z           -0.00004   0.00310   1.00000
 This molecule is an asymmetric top.
 Rotational symmetry number  1.
 Warning -- assumption of classical behavior for rotation
           may cause significant error
 Rotational temperatures (Kelvin)      0.01902     0.00717     0.00536
 Rotational constants (GHZ):           0.39641     0.14937     0.11171
    6 imaginary frequencies ignored.
 Zero-point vibrational energy     975946.9 (Joules/Mol)
                                  233.25690 (Kcal/Mol)
 Warning -- explicit consideration of  32 degrees of freedom as
           vibrations may cause significant error
 Vibrational temperatures:     38.53    77.45    93.67   115.12   141.68
          (Kelvin)            176.90   231.18   250.80   259.34   305.95
                              331.77   382.52   391.91   405.69   435.01
                              454.08   460.58   477.66   496.14   507.60
                              541.40   572.36   610.62   622.00   637.57
                              692.79   704.53   722.03   772.73   820.31
                              846.42   869.90   907.94   925.30  1001.97
                             1020.49  1049.43  1097.66  1111.66  1172.19
                             1203.17  1226.20  1263.95  1339.33  1365.02
                             1393.43  1412.61  1420.33  1442.94  1446.95
                             1466.76  1499.55  1515.47  1532.91  1543.63
                             1555.47  1567.15  1571.74  1583.50  1591.67
                             1604.82  1615.61  1634.11  1648.60  1656.46
                             1663.23  1668.55  1693.39  1720.81  1737.41
                             1741.65  1768.36  1774.52  1794.31  1803.26
                             1835.73  1840.40  1844.39  1847.35  1866.03
                             1874.08  1888.21  1905.04  1907.35  1914.84
                             1924.78  1935.93  1949.98  1967.74  1980.56
                             1984.47  2002.87  2045.94  2062.48  2090.82
                             2108.75  2115.94  2123.63  2127.25  2132.10
                             2157.00  4638.68  4684.63  4689.89  4692.01
                             4694.85  4699.65  4712.65  4717.69  4722.99
                             4731.67  4735.27  4744.37  4751.71  4758.41
                             4772.71  4776.58  4841.78  4846.18  4856.29
                             4859.49  5598.68  5598.95

 Zero-point correction=                           0.371719 (Hartree/Particle)
 Thermal correction to Energy=                    0.390810
 Thermal correction to Enthalpy=                  0.391754
 Thermal correction to Gibbs Free Energy=         0.324491
 Sum of electronic and zero-point Energies=          -1297.622982
 Sum of electronic and thermal Energies=             -1297.603890
 Sum of electronic and thermal Enthalpies=           -1297.602946
 Sum of electronic and thermal Free Energies=        -1297.670209

                     E (Thermal)             CV                S
                      KCal/Mol        Cal/Mol-Kelvin    Cal/Mol-Kelvin
 Total                  245.237             77.515            141.568
 Electronic               0.000              0.000              0.000
 Translational            0.889              2.981             43.384
 Rotational               0.889              2.981             35.140
 Vibrational            243.459             71.553             63.043
 Vibration     1          0.593              1.984              6.055
 Vibration     2          0.596              1.976              4.671
 Vibration     3          0.597              1.971              4.296
 Vibration     4          0.600              1.963              3.891
 Vibration     5          0.604              1.950              3.484
 Vibration     6          0.610              1.930              3.053
 Vibration     7          0.622              1.891              2.542
 Vibration     8          0.627              1.874              2.388
 Vibration     9          0.629              1.867              2.326
 Vibration    10          0.644              1.822              2.021
 Vibration    11          0.652              1.794              1.874
 Vibration    12          0.672              1.736              1.623
 Vibration    13          0.675              1.724              1.581
 Vibration    14          0.681              1.707              1.522
 Vibration    15          0.694              1.669              1.404
 Vibration    16          0.703              1.644              1.333
 Vibration    17          0.706              1.635              1.309
 Vibration    18          0.714              1.612              1.250
 Vibration    19          0.723              1.586              1.190
 Vibration    20          0.729              1.570              1.154
 Vibration    21          0.747              1.521              1.054
 Vibration    22          0.764              1.475              0.971
 Vibration    23          0.786              1.417              0.877
 Vibration    24          0.793              1.400              0.851
 Vibration    25          0.803              1.376              0.817
 Vibration    26          0.838              1.291              0.706
 Vibration    27          0.846              1.273              0.684
 Vibration    28          0.857              1.246              0.654
 Vibration    29          0.892              1.168              0.572
 Vibration    30          0.926              1.096              0.504
 Vibration    31          0.945              1.057              0.470
 Vibration    32          0.963              1.022              0.442

 Normal termination of Gaussian 09 at Sun Mar 27 17:58:44 2016.
