 Gaussian 09, Revision B.01,
 Gaussian 09:  EM64L-G09RevB.01 12-Aug-2010

 ------------------------------------------------
 # freq=raman b3lyp/6-31+g(d,p) geom=connectivity
 ------------------------------------------------

 -------------
 450 10000.com
 -------------
 Symbolic Z-matrix:
 Charge =  0 Multiplicity = 1

                         Standard orientation:
 ---------------------------------------------------------------------
 Center     Atomic      Atomic             Coordinates (Angstroms)
 Number     Number       Type             X           Y           Z
 ---------------------------------------------------------------------
      1          8           0        4.996927   -0.400045   -1.119131
      2          6           0        4.009105   -0.152575   -0.108484
      3          6           0        3.526408    1.240727   -0.473467
      4          8           0        4.466214    2.048288    0.251249
      5          1           0        5.373446    1.661354    0.086809
      6          6           0        2.152096    1.555710    0.095735
      7          8           0        1.632141    2.749009   -0.506938
      8          1           0        2.291335    3.485694   -0.661100
      9          6           0        3.313938   -2.341653    0.591536
     10          8           0        2.360616   -3.335177    0.994734
     11          1           0        2.875871   -4.087558    1.404538
     12          6           0        2.870772   -1.150929   -0.243238
     13          8           0        1.642941   -0.776332    0.398405
     14          6           0        1.143169    0.447620   -0.160189
     15          8           0       -0.095767    0.594617    0.548237
     16          6           0       -1.323314    0.199976   -0.080984
     17          6           0       -1.908354   -1.168754    0.230448
     18          8           0       -0.950410   -2.191897   -0.073849
     19          1           0       -0.069654   -1.719592   -0.055593
     20          6           0       -3.234597   -1.394242   -0.477472
     21          8           0       -3.791883   -2.712806   -0.375273
     22          1           0       -3.031272   -3.220883   -0.779013
     23          6           0       -2.145377    2.587852    0.237226
     24          8           0       -3.200612    3.339117    0.852176
     25          1           0       -3.195998    3.408104    1.850214
     26          6           0       -2.503440    1.110873    0.216849
     27          8           0       -3.775229    0.840547   -0.391244
     28          6           0       -4.309453   -0.432199    0.001544
     29          8           0       -5.592362   -0.581231   -0.624189
     30          1           0        5.821675    0.024090   -0.871140
     31          1           0        3.760643   -1.953160    1.482843
     32          1           0        4.080417   -2.845355    0.040451
     33          1           0        2.711405   -1.431083   -1.263540
     34          1           0        4.438406   -0.173606    0.871393
     35          1           0        3.578232    1.420085   -1.527054
     36          1           0        2.240031    1.708811    1.151068
     37          1           0        0.964916    0.334697   -1.209176
     38          1           0       -6.257922   -0.127992   -0.101500
     39          1           0       -1.241139    2.726199    0.792307
     40          1           0       -2.002390    2.932243   -0.765695
     41          1           0       -2.696258    0.901567    1.248310
     42          1           0       -1.153863    0.236031   -1.136866
     43          1           0       -2.096021   -1.206579    1.283182
     44          1           0       -3.072714   -1.198958   -1.516971
     45          1           0       -4.405458   -0.481273    1.066098
 ---------------------------------------------------------------------

 SCF Done:  E(RB3LYP) =  -1297.90009599     A.U. after   14 cycles

 The electronic state is 1-A.
 Alpha  occ. eigenvalues --  -19.20662 -19.20454 -19.19955 -19.19631 -19.18278
 Alpha  occ. eigenvalues --  -19.17138 -19.16566 -19.16287 -19.15513 -19.15360
 Alpha  occ. eigenvalues --  -19.15028 -10.32567 -10.29244 -10.28094 -10.27501
 Alpha  occ. eigenvalues --  -10.27322 -10.27228 -10.25891 -10.25086 -10.24190
 Alpha  occ. eigenvalues --  -10.24098 -10.23902 -10.22881  -1.11124  -1.09059
 Alpha  occ. eigenvalues --   -1.06951  -1.05931  -1.04865  -1.03744  -1.02765
 Alpha  occ. eigenvalues --   -1.02528  -1.01365  -1.00596  -0.99997  -0.83312
 Alpha  occ. eigenvalues --   -0.82228  -0.79570  -0.77287  -0.72264  -0.69860
 Alpha  occ. eigenvalues --   -0.68654  -0.65216  -0.64020  -0.63205  -0.61410
 Alpha  occ. eigenvalues --   -0.60401  -0.58257  -0.57280  -0.55547  -0.54518
 Alpha  occ. eigenvalues --   -0.53697  -0.53338  -0.53184  -0.52704  -0.51522
 Alpha  occ. eigenvalues --   -0.50373  -0.49673  -0.48489  -0.48011  -0.47386
 Alpha  occ. eigenvalues --   -0.46470  -0.45573  -0.44923  -0.44380  -0.43549
 Alpha  occ. eigenvalues --   -0.43123  -0.42597  -0.40976  -0.40733  -0.40266
 Alpha  occ. eigenvalues --   -0.39876  -0.37961  -0.37027  -0.36787  -0.36609
 Alpha  occ. eigenvalues --   -0.35561  -0.34881  -0.34591  -0.33502  -0.33006
 Alpha  occ. eigenvalues --   -0.32240  -0.31469  -0.31288  -0.30907  -0.30393
 Alpha  occ. eigenvalues --   -0.29466  -0.28870  -0.28624  -0.27540  -0.26694
 Alpha  occ. eigenvalues --   -0.25479
 Alpha virt. eigenvalues --   -0.05197  -0.01906  -0.00951  -0.00503   0.00254
 Alpha virt. eigenvalues --    0.01248   0.01457   0.01868   0.02128   0.03081
 Alpha virt. eigenvalues --    0.03485   0.03891   0.04399   0.04796   0.05215

 Mulliken atomic charges:
              1
     1  O   -0.499369
     2  C   -0.038519
     3  C   -0.037565
     4  O   -0.472015
     5  H    0.306460
     6  C   -0.063442
     7  O   -0.535254
     8  H    0.372624
     9  C   -0.262026
    10  O   -0.535240
    11  H    0.358093
    12  C    0.161791
    13  O   -0.343491
    14  C    0.567119
    15  O   -0.299942
    16  C   -0.155590
    17  C    0.083883
    18  O   -0.560794
    19  H    0.412690
    20  C   -0.082615
    21  O   -0.438932
    22  H    0.357192
    23  C    0.128704
    24  O   -0.529477
    25  H    0.346635
    26  C   -0.305733
    27  O   -0.329658
    28  C    0.256498
    29  O   -0.501130
    30  H    0.336778
    31  H    0.114445
    32  H    0.145172
    33  H    0.156099
    34  H    0.147067
    35  H    0.173228
    36  H    0.160750
    37  H    0.123052
    38  H    0.352163
    39  H    0.156594
    40  H    0.149574
    41  H    0.100538
    42  H    0.126171
    43  H    0.135970
    44  H    0.143747
    45  H    0.117755
 Sum of Mulliken atomic charges =   0.00000

 Dipole moment (field-independent basis, Debye):
    X=              9.8781    Y=              1.1019    Z=              1.6770  Tot=             10.0799
 Quadrupole moment (field-independent basis, Debye-Ang):
   XX=           -118.2106   YY=           -148.6665   ZZ=           -134.4954
   XY=             -6.1864   XZ=            -10.8783   YZ=             -0.0710

  Exact polarizability: 225.755   3.505 189.311  -3.045  -0.233 145.391
 Approx polarizability: 267.385   4.615 242.991  -4.018  -0.710 234.739

 ******    8 imaginary frequencies (negative Signs) ******

                     1                      2                      3
                     A                      A                      A
 Frequencies --  -395.0149              -308.8035              -301.8358
 Red. masses --     1.0981                 1.0774                 1.7123
 Frc consts  --     0.1009                 0.0605                 0.0919
 IR Inten    --   107.3936               124.7279                 3.5221
 Raman Activ --     0.7603                 1.5498                 0.1145

                     4                      5                      6
                     A                      A                      A
 Frequencies --  -135.3603              -104.3291               -74.7812
 Red. masses --     1.7965                 6.4070                 6.3215
 Frc consts  --     0.0194                 0.0411                 0.0208
 IR Inten    --     6.1082                 2.0428                 1.2585
 Raman Activ --     0.2422                 0.0242                 0.1181

                     7                      8                      9
                     A                      A                      A
 Frequencies --   -54.6060               -37.2794                31.8019
 Red. masses --     6.7028                 6.8522                 6.5258
 Frc consts  --     0.0118                 0.0056                 0.0039
 IR Inten    --     1.1373                 0.2334                 0.9786
 Raman Activ --     0.0396                 0.0405                 0.1130

                    10                     11                     12
                     A                      A                      A
 Frequencies --    43.2118                92.2655               116.4563
 Red. masses --     6.5772                 6.9012                 6.6287
 Frc consts  --     0.0072                 0.0346                 0.0530
 IR Inten    --     0.2077                 1.0634                 2.1408
 Raman Activ --     0.1737                 0.1373                 0.6120

                    13                     14                     15
                     A                      A                      A
 Frequencies --   134.7669               153.7401               169.5897
 Red. masses --     5.5678                 6.6991                 6.8085
 Frc consts  --     0.0596                 0.0933                 0.1154
 IR Inten    --     1.1551                 1.1547                 4.4847
 Raman Activ --     0.2241                 0.3657                 1.5246

                    16                     17                     18
                     A                      A                      A
 Frequencies --   197.2944               204.5236               263.7267
 Red. masses --     5.4936                 7.2892                 5.5304
 Frc consts  --     0.1260                 0.1796                 0.2266
 IR Inten    --     1.7183                 1.6344                 5.8384
 Raman Activ --     0.4266                 1.1848                 0.4182

                    19                     20                     21
                     A                      A                      A
 Frequencies --   264.0448               272.5624               285.2388
 Red. masses --     5.2983                 4.6278                 6.2153
 Frc consts  --     0.2176                 0.2026                 0.2979
 IR Inten    --     7.1036                 0.5251                 1.1586
 Raman Activ --     0.3509                 0.2641                 0.5893

                    22                     23                     24
                     A                      A                      A
 Frequencies --   296.7593               315.9371               331.0805
 Red. masses --     5.0670                 6.4604                 6.5323
 Frc consts  --     0.2629                 0.3799                 0.4219
 IR Inten    --    13.0649                 4.6685                 1.4972
 Raman Activ --     0.2965                 1.7429                 3.4571

                    25                     26                     27
                     A                      A                      A
 Frequencies --   351.9392               366.0825               393.2396
 Red. masses --     6.9734                 5.7676                 4.6107
 Frc consts  --     0.5089                 0.4554                 0.4201
 IR Inten    --     6.5855                12.5620                11.9221
 Raman Activ --     1.4360                 1.7224                 3.3992

                    28                     29                     30
                     A                      A                      A
 Frequencies --   411.6237               432.1667               446.0221
 Red. masses --     6.5808                 6.0082                 3.5011
 Frc consts  --     0.6569                 0.6612                 0.4104
 IR Inten    --     2.7661                 2.5324                17.3233
 Raman Activ --     4.6740                 0.6396                 3.5958

                    31                     32                     33
                     A                      A                      A
 Frequencies --   452.4164               479.1968               507.8633
 Red. masses --     5.3535                 3.8521                 4.7129
 Frc consts  --     0.6456                 0.5212                 0.7162
 IR Inten    --     1.7051                 3.5584                 5.3409
 Raman Activ --     2.1447                 0.8458                 0.6921

                    34                     35                     36
                     A                      A                      A
 Frequencies --   530.0731               561.2302               572.3752
 Red. masses --     4.0769                 4.3440                 4.1688
 Frc consts  --     0.6749                 0.8062                 0.8047
 IR Inten    --    27.6979                 9.9818                 3.9415
 Raman Activ --     6.9119                 0.5468                 2.8183

                    37                     38                     39
                     A                      A                      A
 Frequencies --   590.8785               600.2030               615.9166
 Red. masses --     2.1336                 2.2064                 2.1596
 Frc consts  --     0.4389                 0.4683                 0.4827
 IR Inten    --    88.5568                40.3499                35.3866
 Raman Activ --     1.4815                 0.5127                 0.0802

                    40                     41                     42
                     A                      A                      A
 Frequencies --   633.5171               654.0247               667.5828
 Red. masses --     3.1549                 2.1441                 1.7439
 Frc consts  --     0.7460                 0.5404                 0.4579
 IR Inten    --    28.1711                 1.5641                82.9333
 Raman Activ --     0.3495                 1.5779                 0.5952

                    43                     44                     45
                     A                      A                      A
 Frequencies --   668.5666               674.3692               697.5153
 Red. masses --     1.1590                 1.6157                 1.0954
 Frc consts  --     0.3052                 0.4329                 0.3140
 IR Inten    --   144.0678                16.2824               103.3410
 Raman Activ --     1.1620                 2.8456                 1.6842

                    46                     47                     48
                     A                      A                      A
 Frequencies --   726.2641               741.6484               831.7932
 Red. masses --     1.1055                 1.1455                 2.4966
 Frc consts  --     0.3436                 0.3712                 1.0177
 IR Inten    --    32.0634               139.1244                 5.6585
 Raman Activ --     0.2189                 1.6261                 2.1898

                    49                     50                     51
                     A                      A                      A
 Frequencies --   863.1918               944.7196               964.9580
 Red. masses --     2.4324                 5.3168                 6.3594
 Frc consts  --     1.0678                 2.7958                 3.4888
 IR Inten    --     4.4445                65.0597               251.6145
 Raman Activ --     4.8203                 2.2318                 2.3558

                    52                     53                     54
                     A                      A                      A
 Frequencies --   986.8133               992.8306               997.0705
 Red. masses --     4.7163                 3.7679                 6.4141
 Frc consts  --     2.7060                 2.1882                 3.7569
 IR Inten    --    33.6819                15.7245               232.6929
 Raman Activ --     2.2469                 1.1796                 3.5303

                    55                     56                     57
                     A                      A                      A
 Frequencies --  1012.4368              1024.5789              1029.0251
 Red. masses --     3.2831                 6.2329                 2.9996
 Frc consts  --     1.9828                 3.8550                 1.8714
 IR Inten    --   195.2136               301.5191                43.2631
 Raman Activ --     1.0769                 4.2573                 2.5430

                    58                     59                     60
                     A                      A                      A
 Frequencies --  1037.1088              1039.8030              1053.2672
 Red. masses --     2.5348                 3.7208                 3.6193
 Frc consts  --     1.6063                 2.3702                 2.3656
 IR Inten    --   163.9367               178.8709                24.4852
 Raman Activ --     1.2930                 4.9290                13.9485

                    61                     62                     63
                     A                      A                      A
 Frequencies --  1062.7773              1066.1175              1076.0958
 Red. masses --     3.4890                 6.0756                 3.1416
 Frc consts  --     2.3218                 4.0687                 2.1434
 IR Inten    --    16.1449                79.4013                76.1566
 Raman Activ --     4.2276                 1.2388                 5.7314

                    64                     65                     66
                     A                      A                      A
 Frequencies --  1090.1273              1099.8585              1108.2718
 Red. masses --     2.7532                 3.6409                 2.4123
 Frc consts  --     1.9277                 2.5950                 1.7458
 IR Inten    --    37.7248                49.1540                16.5154
 Raman Activ --     5.2428                 2.6910                 5.3575

                    67                     68                     69
                     A                      A                      A
 Frequencies --  1122.9533              1126.3479              1133.1589
 Red. masses --     2.3468                 2.5621                 2.8536
 Frc consts  --     1.7436                 1.9151                 2.1588
 IR Inten    --    40.5579                 9.3652                36.3211
 Raman Activ --     3.7266                13.6013                 2.3542

                    70                     71                     72
                     A                      A                      A
 Frequencies --  1134.2171              1148.7772              1167.8241
 Red. masses --     1.7005                 2.5804                 3.6042
 Frc consts  --     1.2889                 2.0063                 2.8961
 IR Inten    --    27.5307                27.8414                60.1811
 Raman Activ --     2.2547                 3.8918                 4.1054

                    73                     74                     75
                     A                      A                      A
 Frequencies --  1175.0834              1183.6193              1187.2996
 Red. masses --     1.4654                 2.4547                 1.9726
 Frc consts  --     1.1922                 2.0262                 1.6383
 IR Inten    --    23.8486                16.7499                 8.9258
 Raman Activ --     0.9177                 2.5895                 2.0927

                    76                     77                     78
                     A                      A                      A
 Frequencies --  1189.6332              1213.1423              1227.6581
 Red. masses --     1.7480                 1.4402                 1.4090
 Frc consts  --     1.4575                 1.2488                 1.2512
 IR Inten    --     4.8326                11.3034                 8.4002
 Raman Activ --     5.0487                 0.6416                 2.0818

                    79                     80                     81
                     A                      A                      A
 Frequencies --  1239.6882              1244.2593              1250.5672
 Red. masses --     1.1864                 1.3961                 1.2752
 Frc consts  --     1.0742                 1.2734                 1.1750
 IR Inten    --    11.4463                10.9536                14.5478
 Raman Activ --     3.4679                 1.7801                 2.2273

                    82                     83                     84
                     A                      A                      A
 Frequencies --  1267.3872              1274.7054              1278.9578
 Red. masses --     1.2923                 1.2841                 1.3646
 Frc consts  --     1.2230                 1.2293                 1.3151
 IR Inten    --    14.1746                30.5642                17.9881
 Raman Activ --     2.7227                 3.0121                 1.7753

                    85                     86                     87
                     A                      A                      A
 Frequencies --  1287.0769              1290.3972              1305.5824
 Red. masses --     1.4544                 1.2598                 1.2027
 Frc consts  --     1.4196                 1.2360                 1.2079
 IR Inten    --     7.4819                22.5041                52.4259
 Raman Activ --     3.0378                 4.3189                 6.4688

                    88                     89                     90
                     A                      A                      A
 Frequencies --  1315.2852              1319.6634              1327.1009
 Red. masses --     1.3549                 1.3987                 1.2667
 Frc consts  --     1.3811                 1.4352                 1.3144
 IR Inten    --    18.5217                26.3372                 4.2491
 Raman Activ --     1.1451                 9.2468                 7.4080

                    91                     92                     93
                     A                      A                      A
 Frequencies --  1336.2437              1341.8157              1358.4391
 Red. masses --     1.2795                 1.3922                 1.2038
 Frc consts  --     1.3461                 1.4769                 1.3089
 IR Inten    --    11.3637                 5.2583                82.0187
 Raman Activ --     1.7939                 2.1244                 4.3641

                    94                     95                     96
                     A                      A                      A
 Frequencies --  1363.9553              1370.2783              1375.0052
 Red. masses --     1.1887                 1.1402                 1.2475
 Frc consts  --     1.3029                 1.2614                 1.3897
 IR Inten    --    28.6754                27.1759                10.4750
 Raman Activ --     6.9446                 4.6659                 2.2584

                    97                     98                     99
                     A                      A                      A
 Frequencies --  1387.1769              1391.6826              1403.5048
 Red. masses --     1.4178                 1.4068                 1.4397
 Frc consts  --     1.6074                 1.6053                 1.6709
 IR Inten    --    14.8977                12.7919                 3.3058
 Raman Activ --     7.0646                 5.2966                 1.4906

                   100                    101                    102
                     A                      A                      A
 Frequencies --  1409.0196              1421.3407              1453.9336
 Red. masses --     1.4110                 1.6212                 1.3693
 Frc consts  --     1.6505                 1.9297                 1.7054
 IR Inten    --     3.1385                 9.9109                67.5884
 Raman Activ --     3.5273                 8.1802                 2.9787

                   103                    104                    105
                     A                      A                      A
 Frequencies --  1457.3056              1469.6706              1472.9890
 Red. masses --     1.0944                 1.0746                 1.3402
 Frc consts  --     1.3694                 1.3675                 1.7133
 IR Inten    --     1.9136                 1.8870                 2.6220
 Raman Activ --     4.7253                 5.8885                 0.6661

                   106                    107                    108
                     A                      A                      A
 Frequencies --  1490.8438              1509.9497              3244.9786
 Red. masses --     1.3274                 1.3338                 1.0807
 Frc consts  --     1.7383                 1.7917                 6.7048
 IR Inten    --    35.0577                76.5743                19.9756
 Raman Activ --     1.5697                 1.4745                41.2112

                   109                    110                    111
                     A                      A                      A
 Frequencies --  3262.4115              3277.5300              3284.3518
 Red. masses --     1.0588                 1.0812                 1.0813
 Frc consts  --     6.6395                 6.8430                 6.8722
 IR Inten    --    48.5902                 8.4479                 6.5283
 Raman Activ --    77.1538                77.3519               105.7996

                   112                    113                    114
                     A                      A                      A
 Frequencies --  3287.2071              3291.1683              3299.6341
 Red. masses --     1.0597                 1.0845                 1.0852
 Frc consts  --     6.7464                 6.9210                 6.9611
 IR Inten    --    18.6158                 3.6565                 1.5130
 Raman Activ --    42.7660                58.7395                68.1600

                   115                    116                    117
                     A                      A                      A
 Frequencies --  3304.2866              3304.6025              3308.3096
 Red. masses --     1.0917                 1.0881                 1.0887
 Frc consts  --     7.0227                 7.0009                 7.0204
 IR Inten    --    30.3690                94.0736                 8.3848
 Raman Activ --    45.7987                20.4729                82.5727

                   118                    119                    120
                     A                      A                      A
 Frequencies --  3311.2494              3319.5039              3326.1016
 Red. masses --     1.0861                 1.0912                 1.0910
 Frc consts  --     7.0165                 7.0843                 7.1114
 IR Inten    --     7.7612                 9.9288                62.4780
 Raman Activ --    74.4244                20.5146                25.2498

                   121                    122                    123
                     A                      A                      A
 Frequencies --  3352.8949              3362.8937              3372.0523
 Red. masses --     1.1032                 1.0675                 1.0658
 Frc consts  --     7.3071                 7.1128                 7.1405
 IR Inten    --    27.0117               392.6848                 6.2128
 Raman Activ --    61.3669               192.7128               118.8976

                   124                    125                    126
                     A                      A                      A
 Frequencies --  3383.7482              3388.7809              3393.5175
 Red. masses --     1.0751                 1.0679                 1.0672
 Frc consts  --     7.2527                 7.2253                 7.2407
 IR Inten    --    24.8549                55.1852                40.3820
 Raman Activ --    73.3604               127.9030               176.2741

                   127                    128                    129
                     A                      A                      A
 Frequencies --  3397.9063              3906.9442              3919.4981
 Red. masses --     1.0647                 1.0671                 1.0672
 Frc consts  --     7.2424                 9.5965                 9.6598
 IR Inten    --    27.0713                30.8246                69.7941
 Raman Activ --    61.2542               110.1312               132.4984

 - Thermochemistry -
 -------------------
 Temperature   298.150 Kelvin.  Pressure   1.00000 Atm.
 Atom     1 has atomic number  8 and mass  15.99491

 Molecular mass:   342.11621 amu.
 Principal axes and moments of inertia in atomic units:
                           1         2         3
     Eigenvalues --  4461.05384********************
           X            0.99998  -0.00546  -0.00207
           Y            0.00546   0.99999  -0.00039
           Z            0.00208   0.00037   1.00000
 This molecule is an asymmetric top.
 Rotational symmetry number  1.
 Warning -- assumption of classical behavior for rotation
           may cause significant error
 Rotational temperatures (Kelvin)      0.01942     0.00676     0.00525
 Rotational constants (GHZ):           0.40455     0.14084     0.10945
    8 imaginary frequencies ignored.
 Zero-point vibrational energy     974667.4 (Joules/Mol)
                                  232.95111 (Kcal/Mol)
 Warning -- explicit consideration of  31 degrees of freedom as
           vibrations may cause significant error
 Vibrational temperatures:     45.76    62.17   132.75   167.55   193.90
          (Kelvin)            221.20   244.00   283.86   294.26   379.44
                              379.90   392.16   410.39   426.97   454.56
                              476.35   506.36   526.71   565.78   592.23
                              621.79   641.73   650.93   689.46   730.70
                              762.66   807.48   823.52   850.14   863.56
                              886.17   911.49   940.99   960.50   961.92
                              970.27  1003.57  1044.93  1067.07  1196.76
                             1241.94  1359.24  1388.36  1419.80  1428.46
                             1434.56  1456.67  1474.14  1480.54  1492.17
                             1496.04  1515.41  1529.10  1533.90  1548.26
                             1568.45  1582.45  1594.55  1615.68  1620.56
                             1630.36  1631.88  1652.83  1680.24  1690.68
                             1702.96  1708.26  1711.61  1745.44  1766.32
                             1783.63  1790.21  1799.29  1823.49  1834.01
                             1840.13  1851.81  1856.59  1878.44  1892.40
                             1898.70  1909.40  1922.55  1930.57  1954.49
                             1962.42  1971.52  1978.32  1995.84  2002.32
                             2019.33  2027.26  2044.99  2091.88  2096.74
                             2114.53  2119.30  2144.99  2172.48  4668.79
                             4693.88  4715.63  4725.44  4729.55  4735.25
                             4747.43  4754.13  4754.58  4759.91  4764.14
                             4776.02  4785.51  4824.06  4838.45  4851.63
                             4868.45  4875.69  4882.51  4888.82  5621.21
                             5639.28

 Zero-point correction=                           0.371231 (Hartree/Particle)
 Thermal correction to Energy=                    0.389084
 Thermal correction to Enthalpy=                  0.390028
 Thermal correction to Gibbs Free Energy=         0.325762
 Sum of electronic and zero-point Energies=          -1297.528865
 Sum of electronic and thermal Energies=             -1297.511012
 Sum of electronic and thermal Enthalpies=           -1297.510068
 Sum of electronic and thermal Free Energies=        -1297.574334

                     E (Thermal)             CV                S
                      KCal/Mol        Cal/Mol-Kelvin    Cal/Mol-Kelvin
 Total                  244.154             74.470            135.259
 Electronic               0.000              0.000              0.000
 Translational            0.889              2.981             43.384
 Rotational               0.889              2.981             35.198
 Vibrational            242.376             68.508             56.676
 Vibration     1          0.594              1.983              5.714
 Vibration     2          0.595              1.980              5.106
 Vibration     3          0.602              1.955              3.611
 Vibration     4          0.608              1.936              3.158
 Vibration     5          0.613              1.919              2.877
 Vibration     6          0.619              1.899              2.625
 Vibration     7          0.625              1.880              2.440
 Vibration     8          0.637              1.844              2.158
 Vibration     9          0.640              1.833              2.092
 Vibration    10          0.670              1.739              1.637
 Vibration    11          0.671              1.739              1.635
 Vibration    12          0.676              1.724              1.580
 Vibration    13          0.683              1.701              1.502
 Vibration    14          0.690              1.680              1.435
 Vibration    15          0.703              1.643              1.331
 Vibration    16          0.713              1.613              1.255
 Vibration    17          0.728              1.571              1.158
 Vibration    18          0.739              1.542              1.096
 Vibration    19          0.760              1.485              0.988
 Vibration    20          0.776              1.445              0.921
 Vibration    21          0.793              1.400              0.852
 Vibration    22          0.805              1.370              0.808
 Vibration    23          0.811              1.356              0.789
 Vibration    24          0.836              1.296              0.712
 Vibration    25          0.863              1.233              0.639
 Vibration    26          0.885              1.183              0.587
 Vibration    27          0.917              1.115              0.521
 Vibration    28          0.929              1.091              0.500
 Vibration    29          0.948              1.051              0.466
 Vibration    30          0.958              1.031              0.449
 Vibration    31          0.976              0.998              0.423

 Normal termination of Gaussian 09 at Thu Jan 21 17:53:24 2016.
