 Gaussian 09, Revision B.01,
 Gaussian 09:  EM64L-G09RevB.01 12-Aug-2010

 -------------------------------
 ## freq=raman b3lyp/6-31+g(d,p)
 -------------------------------

 -----------------------------
 450K 8000ps Cellobiose Unit 1
 -----------------------------
 Symbolic Z-matrix:
 Charge =  0 Multiplicity = 1

                         Standard orientation:
 ---------------------------------------------------------------------
 Center     Atomic      Atomic             Coordinates (Angstroms)
 Number     Number       Type             X           Y           Z
 ---------------------------------------------------------------------
      1          8           0        5.175690   -0.315295   -0.654820
      2          6           0        3.918218   -0.051515   -0.015313
      3          6           0        3.353098    1.287564   -0.457788
      4          8           0        4.255626    2.319934   -0.033115
      5          1           0        5.153652    1.909137   -0.188422
      6          6           0        2.059428    1.558859    0.293178
      7          8           0        1.478281    2.868967    0.232954
      8          1           0        2.015321    3.482578   -0.346456
      9          6           0        3.504271   -2.383486    0.455189
     10          8           0        2.621000   -3.501983    0.285687
     11          1           0        3.084422   -4.272491    0.723407
     12          6           0        2.864948   -1.139377   -0.141506
     13          8           0        1.536098   -0.801260    0.281938
     14          6           0        1.030388    0.497704   -0.059829
     15          8           0       -0.194835    0.543135    0.686113
     16          6           0       -1.361343    0.307548   -0.115300
     17          6           0       -1.731023   -1.146468    0.128918
     18          8           0       -0.749299   -2.101256   -0.297673
     19          1           0        0.116892   -1.743463    0.052966
     20          6           0       -3.105173   -1.570655   -0.364248
     21          8           0       -3.283695   -2.974815   -0.124733
     22          1           0       -2.523456   -3.366961   -0.643613
     23          6           0       -2.319955    2.632868   -0.257659
     24          8           0       -3.353630    3.601902   -0.034447
     25          1           0       -3.467089    3.816601    0.936474
     26          6           0       -2.505741    1.224437    0.283688
     27          8           0       -3.752324    0.756421   -0.250694
     28          6           0       -4.098677   -0.564324    0.192437
     29          8           0       -5.466087   -0.827973   -0.153953
     30          1           0        5.880239    0.115490   -0.165294
     31          1           0       -6.045206   -0.402021    0.482275
 ---------------------------------------------------------------------

 SCF Done:  E(RB3LYP) =  -1288.87498257     A.U. after   29 cycles

 The electronic state is 1-A.
 Alpha  occ. eigenvalues --  -19.24442 -19.24272 -19.23022 -19.22368 -19.22119
 Alpha  occ. eigenvalues --  -19.21899 -19.21872 -19.21704 -19.21552 -19.21503
 Alpha  occ. eigenvalues --  -19.21372 -10.35425 -10.33123 -10.31674 -10.31643
 Alpha  occ. eigenvalues --  -10.31342 -10.31261 -10.30103 -10.29477 -10.29451
 Alpha  occ. eigenvalues --  -10.29349 -10.29300 -10.27502  -1.12446  -1.11546
 Alpha  occ. eigenvalues --   -1.09463  -1.07663  -1.07102  -1.06547  -1.06075
 Alpha  occ. eigenvalues --   -1.05569  -1.05388  -1.05158  -1.04870  -0.81592
 Alpha  occ. eigenvalues --   -0.80947  -0.79311  -0.77442  -0.69962  -0.68506
 Alpha  occ. eigenvalues --   -0.67750  -0.64264  -0.62397  -0.61773  -0.58738
 Alpha  occ. eigenvalues --   -0.57495  -0.56681  -0.56363  -0.55335  -0.53064
 Alpha  occ. eigenvalues --   -0.51828  -0.50950  -0.50502  -0.49517  -0.48173
 Alpha  occ. eigenvalues --   -0.47668  -0.47330  -0.46582  -0.45558  -0.44640
 Alpha  occ. eigenvalues --   -0.44581  -0.43650  -0.43207  -0.42319  -0.41657
 Alpha  occ. eigenvalues --   -0.41121  -0.40079  -0.39028  -0.38827  -0.38485
 Alpha  occ. eigenvalues --   -0.37965  -0.37683  -0.36577  -0.35744  -0.34791
 Alpha  occ. eigenvalues --   -0.33725  -0.32188  -0.30029  -0.29331  -0.28022
 Alpha  occ. eigenvalues --   -0.27516  -0.23796  -0.22334  -0.17770
 Alpha virt. eigenvalues --   -0.15552  -0.12836  -0.12022  -0.08953  -0.07977
 Alpha virt. eigenvalues --   -0.07107  -0.05131  -0.03214  -0.00942  -0.00378
 Alpha virt. eigenvalues --    0.00243   0.00585   0.01094   0.03808   0.04345

 Mulliken atomic charges:
              1
     1  O   -0.445311
     2  C    0.353796
     3  C    0.168445
     4  O   -0.422045
     5  H    0.305489
     6  C   -0.392640
     7  O   -0.392861
     8  H    0.367664
     9  C   -0.356681
    10  O   -0.456533
    11  H    0.392412
    12  C    0.164579
    13  O   -0.302714
    14  C    0.580944
    15  O   -0.267859
    16  C    0.459669
    17  C    0.448986
    18  O   -0.499428
    19  H    0.450631
    20  C   -0.112103
    21  O   -0.395188
    22  H    0.382594
    23  C   -0.211244
    24  O   -0.382275
    25  H    0.366498
    26  C   -0.131591
    27  O   -0.210881
    28  C    0.285791
    29  O   -0.460189
    30  H    0.347115
    31  H    0.364930
 Sum of Mulliken atomic charges =   0.00000

 Dipole moment (field-independent basis, Debye):
    X=              1.9899    Y=              0.6073    Z=              2.7054  Tot=              3.4129
 Quadrupole moment (field-independent basis, Debye-Ang):
   XX=           -104.2285   YY=           -127.3032   ZZ=           -133.8742
   XY=              0.5698   XZ=            -10.5545   YZ=              3.8066

  Exact polarizability: 703.212 -65.647 357.183 -14.454  -5.645 123.756
 Approx polarizability:4530.504********1080.895-275.128  30.556 263.636

 ******    4 imaginary frequencies (negative Signs) ******

                     1                      2                      3
                     A                      A                      A
 Frequencies --  -471.9263              -423.7279              -227.0775
 Red. masses --     1.1700                 1.1541                 3.2847
 Frc consts  --     0.1535                 0.1221                 0.0998
 IR Inten    --    96.7419                54.3881               398.9930
 Raman Activ --    49.0689               135.1480              2264.4997

                     4                      5                      6
                     A                      A                      A
 Frequencies --  -128.4749                85.5543                91.0455
 Red. masses --     7.6726                 7.0105                 9.4165
 Frc consts  --     0.0746                 0.0302                 0.0460
 IR Inten    --   314.7392                26.3505                 0.2561
 Raman Activ --   592.5074                16.9099                 5.3862

                     7                      8                      9
                     A                      A                      A
 Frequencies --   102.9208               121.2858               129.8345
 Red. masses --     9.8983                 7.4671                 8.6080
 Frc consts  --     0.0618                 0.0647                 0.0855
 IR Inten    --    13.6265                 1.2984                 2.1681
 Raman Activ --    87.9796                38.1734                30.4739

                    10                     11                     12
                     A                      A                      A
 Frequencies --   134.6497               160.0435               165.8636
 Red. masses --     8.1306                 9.1068                 8.0600
 Frc consts  --     0.0869                 0.1374                 0.1306
 IR Inten    --     6.7174                 0.5196                30.5482
 Raman Activ --    89.0647                 2.4100                36.5440

                    13                     14                     15
                     A                      A                      A
 Frequencies --   190.9229               202.2506               208.5914
 Red. masses --     8.6461                 9.5587                 6.8285
 Frc consts  --     0.1857                 0.2304                 0.1751
 IR Inten    --    39.9682                 2.9236                14.7790
 Raman Activ --    53.9736                12.3354                22.2858

                    16                     17                     18
                     A                      A                      A
 Frequencies --   229.6597               252.8613               280.9552
 Red. masses --     8.7306                 8.6491                 8.1540
 Frc consts  --     0.2713                 0.3258                 0.3792
 IR Inten    --    48.6726               130.0848                68.0041
 Raman Activ --    83.8802                92.3106               300.8513

                    19                     20                     21
                     A                      A                      A
 Frequencies --   290.6567               303.1732               314.1299
 Red. masses --     7.5802                 8.0349                 9.2566
 Frc consts  --     0.3773                 0.4351                 0.5382
 IR Inten    --    43.7302                16.3819                94.9498
 Raman Activ --    28.6350                68.3363                52.7264

                    22                     23                     24
                     A                      A                      A
 Frequencies --   327.8935               335.6494               337.1450
 Red. masses --     6.7585                 8.5373                 7.4277
 Frc consts  --     0.4281                 0.5667                 0.4974
 IR Inten    --     8.8606                26.4155                 8.5698
 Raman Activ --    94.6646                73.9088                21.5948

                    25                     26                     27
                     A                      A                      A
 Frequencies --   355.3532               372.4740               390.0750
 Red. masses --     6.5536                 8.2881                 6.6953
 Frc consts  --     0.4876                 0.6775                 0.6002
 IR Inten    --    28.1296                 2.6316                20.9598
 Raman Activ --    26.6222                54.2997                35.7771

                    28                     29                     30
                     A                      A                      A
 Frequencies --   405.3823               420.4873               438.4964
 Red. masses --     4.0595                 9.8920                10.5141
 Frc consts  --     0.3930                 1.0305                 1.1911
 IR Inten    --    38.8018                31.6348                39.5602
 Raman Activ --   100.4828                27.3802                38.1060

                    31                     32                     33
                     A                      A                      A
 Frequencies --   443.3323               462.5411               473.9294
 Red. masses --     9.7411                11.0787                 7.6050
 Frc consts  --     1.1280                 1.3965                 1.0064
 IR Inten    --    31.0648                34.4135               102.2823
 Raman Activ --    47.2163               278.5716                71.1720

                    34                     35                     36
                     A                      A                      A
 Frequencies --   501.2755               541.3735               551.8101
 Red. masses --     5.6491                 5.1452                 6.9493
 Frc consts  --     0.8363                 0.8885                 1.2467
 IR Inten    --    86.5554                56.1695                33.1418
 Raman Activ --    48.4499               219.1632               149.0550

                    37                     38                     39
                     A                      A                      A
 Frequencies --   571.4770               586.4615               614.5829
 Red. masses --     4.3249                 5.5723                 5.9768
 Frc consts  --     0.8322                 1.1292                 1.3301
 IR Inten    --   187.6833                22.9496                30.5302
 Raman Activ --    48.9467                 1.1011               159.4481

                    40                     41                     42
                     A                      A                      A
 Frequencies --   635.1864               648.5494               662.0498
 Red. masses --     6.0124                 1.7568                 2.0576
 Frc consts  --     1.4292                 0.4354                 0.5314
 IR Inten    --    78.0913                94.9572                63.1013
 Raman Activ --    53.6940                51.0822                61.0650

                    43                     44                     45
                     A                      A                      A
 Frequencies --   685.9195               693.6071               709.1348
 Red. masses --     6.9485                 2.1458                 4.0590
 Frc consts  --     1.9261                 0.6082                 1.2026
 IR Inten    --   123.5369                98.9817               185.6103
 Raman Activ --    49.0535                43.1752               107.6813

                    46                     47                     48
                     A                      A                      A
 Frequencies --   719.6143               736.9151               745.7842
 Red. masses --     1.3055                 5.4780                 6.2102
 Frc consts  --     0.3983                 1.7527                 2.0351
 IR Inten    --   114.1456               148.1148               149.8425
 Raman Activ --   239.3963               282.9991               143.9539

                    49                     50                     51
                     A                      A                      A
 Frequencies --   770.8062               805.5446               817.1424
 Red. masses --     2.5416                 3.4997                 4.9495
 Frc consts  --     0.8897                 1.3380                 1.9472
 IR Inten    --   429.3451                55.6477               295.6268
 Raman Activ --   170.6126                69.3665               481.9050

                    52                     53                     54
                     A                      A                      A
 Frequencies --   844.7227               853.3194               867.9853
 Red. masses --     4.8421                 7.5215                 9.7092
 Frc consts  --     2.0357                 3.2269                 4.3098
 IR Inten    --   227.0913                95.1184               250.4512
 Raman Activ --   193.5054               118.9866                78.1039

                    55                     56                     57
                     A                      A                      A
 Frequencies --   883.8798               887.1941               907.1673
 Red. masses --     5.5206                 6.3083                 1.2403
 Frc consts  --     2.5411                 2.9255                 0.6014
 IR Inten    --  1357.5831               114.1687               103.1466
 Raman Activ --    76.4146               120.4350                26.3903

                    58                     59                     60
                     A                      A                      A
 Frequencies --   919.3657               945.4797               960.9163
 Red. masses --     6.6541                 7.3571                 4.9244
 Frc consts  --     3.3137                 3.8749                 2.6790
 IR Inten    --   635.5683               288.5946               262.9478
 Raman Activ --   139.5182               265.7231               355.7558

                    61                     62                     63
                     A                      A                      A
 Frequencies --   984.8134               989.5548              1021.8263
 Red. masses --     6.6931                11.0256                 8.1764
 Frc consts  --     3.8246                 6.3611                 5.0300
 IR Inten    --   281.3532                25.7908                 7.9029
 Raman Activ --   672.7738               285.9462               335.1722

                    64                     65                     66
                     A                      A                      A
 Frequencies --  1024.0787              1051.4379              1062.1785
 Red. masses --     5.1394                 4.0685                 4.9810
 Frc consts  --     3.1756                 2.6500                 3.3110
 IR Inten    --   648.6014               577.6707               326.1867
 Raman Activ --   298.8248                 9.0201               356.8158

                    67                     68                     69
                     A                      A                      A
 Frequencies --  1086.5632              1089.8810              1097.7038
 Red. masses --     7.9989                 7.9103                 5.8624
 Frc consts  --     5.5640                 5.5361                 4.1619
 IR Inten    --    19.8696               319.9586               113.6563
 Raman Activ --    19.9819               278.5513                41.1333

                    70                     71                     72
                     A                      A                      A
 Frequencies --  1105.1104              1129.7832              1163.6571
 Red. masses --     4.8250                 6.1110                 1.2438
 Frc consts  --     3.4718                 4.5957                 0.9923
 IR Inten    --    13.6474                99.3790                32.2238
 Raman Activ --    74.4788                24.4949                42.8355

                    73                     74                     75
                     A                      A                      A
 Frequencies --  1213.9103              1215.6306              1348.3022
 Red. masses --     1.7716                 1.9110                 1.3384
 Frc consts  --     1.5381                 1.6638                 1.4335
 IR Inten    --    21.2489                41.9755                71.2950
 Raman Activ --    38.9687               309.9101                68.0929

                    76                     77                     78
                     A                      A                      A
 Frequencies --  1352.2009              1412.7252              1418.5232
 Red. masses --     1.1823                 1.2209                 1.2388
 Frc consts  --     1.2736                 1.4356                 1.4687
 IR Inten    --    75.7144               151.3288                68.2916
 Raman Activ --    96.5410                61.5457               110.6838

                    79                     80                     81
                     A                      A                      A
 Frequencies --  1463.2806              3240.4716              3368.1508
 Red. masses --     1.2089                 1.0701                 1.0664
 Frc consts  --     1.5252                 6.6202                 7.1275
 IR Inten    --    32.2114               164.4500               209.7382
 Raman Activ --    30.2041                39.7743              1089.1876

                    82                     83                     84
                     A                      A                      A
 Frequencies --  3390.0104              3396.7989              3399.1432
 Red. masses --     1.0646                 1.0668                 1.0661
 Frc consts  --     7.2087                 7.2523                 7.2576
 IR Inten    --    93.1101               139.7849               117.5765
 Raman Activ --   434.4264               233.1817               170.6071

                    85                     86                     87
                     A                      A                      A
 Frequencies --  3400.2928              3904.1063              3922.6600
 Red. masses --     1.0662                 1.0669                 1.0669
 Frc consts  --     7.2629                 9.5816                 9.6722
 IR Inten    --   291.1965               138.0153               293.8883
 Raman Activ --   380.5877               439.6884               575.6434

 - Thermochemistry -
 -------------------
 Temperature   298.150 Kelvin.  Pressure   1.00000 Atm.
 Atom     1 has atomic number  8 and mass  15.99491

 Molecular mass:   328.00666 amu.
 Principal axes and moments of inertia in atomic units:
                           1         2         3
     Eigenvalues --  4481.21126********************
           X            1.00000   0.00091  -0.00152
           Y           -0.00091   1.00000   0.00065
           Z            0.00153  -0.00065   1.00000
 This molecule is an asymmetric top.
 Rotational symmetry number  1.
 Warning -- assumption of classical behavior for rotation
           may cause significant error
 Rotational temperatures (Kelvin)      0.01933     0.00741     0.00544
 Rotational constants (GHZ):           0.40274     0.15436     0.11327
    4 imaginary frequencies ignored.
 Zero-point vibrational energy     468620.4 (Joules/Mol)
                                  112.00297 (Kcal/Mol)
 Warning -- explicit consideration of  35 degrees of freedom as
           vibrations may cause significant error
 Vibrational temperatures:    123.09   130.99   148.08   174.50   186.80
          (Kelvin)            193.73   230.27   238.64   274.70   290.99
                              300.12   330.43   363.81   404.23   418.19
                              436.20   451.96   471.77   482.92   485.08
                              511.27   535.91   561.23   583.25   604.99
                              630.90   637.86   665.49   681.88   721.22
                              778.91   793.93   822.23   843.79   884.25
                              913.89   933.12   952.54   986.88   997.94
                             1020.29  1035.36  1060.26  1073.02  1109.02
                             1159.00  1175.68  1215.37  1227.73  1248.84
                             1271.70  1276.47  1305.21  1322.76  1360.33
                             1382.54  1416.93  1423.75  1470.18  1473.42
                             1512.78  1528.24  1563.32  1568.09  1579.35
                             1590.01  1625.50  1674.24  1746.54  1749.02
                             1939.90  1945.51  2032.59  2040.94  2105.33
                             4662.31  4846.01  4877.46  4887.23  4890.60
                             4892.26  5617.13  5643.83

 Zero-point correction=                           0.178488 (Hartree/Particle)
 Thermal correction to Energy=                    0.198312
 Thermal correction to Enthalpy=                  0.199256
 Thermal correction to Gibbs Free Energy=         0.132894
 Sum of electronic and zero-point Energies=          -1288.696494
 Sum of electronic and thermal Energies=             -1288.676671
 Sum of electronic and thermal Enthalpies=           -1288.675726
 Sum of electronic and thermal Free Energies=        -1288.742088

                     E (Thermal)             CV                S
                      KCal/Mol        Cal/Mol-Kelvin    Cal/Mol-Kelvin
 Total                  124.443             80.351            139.670
 Electronic               0.000              0.000              0.000
 Translational            0.889              2.981             43.259
 Rotational               0.889              2.981             35.078
 Vibrational            122.665             74.389             61.333
 Vibration     1          0.601              1.959              3.759
 Vibration     2          0.602              1.956              3.637
 Vibration     3          0.605              1.947              3.398
 Vibration     4          0.609              1.931              3.080
 Vibration     5          0.612              1.923              2.949
 Vibration     6          0.613              1.919              2.879
 Vibration     7          0.622              1.891              2.549
 Vibration     8          0.624              1.884              2.482
 Vibration     9          0.634              1.852              2.219
 Vibration    10          0.639              1.837              2.113
 Vibration    11          0.642              1.828              2.056
 Vibration    12          0.652              1.796              1.882
 Vibration    13          0.664              1.758              1.711
 Vibration    14          0.681              1.709              1.528
 Vibration    15          0.687              1.691              1.470
 Vibration    16          0.695              1.668              1.399
 Vibration    17          0.702              1.647              1.340
 Vibration    18          0.711              1.620              1.270
 Vibration    19          0.717              1.604              1.233
 Vibration    20          0.718              1.601              1.226
 Vibration    21          0.731              1.564              1.142
 Vibration    22          0.744              1.529              1.070
 Vibration    23          0.758              1.491              1.000
 Vibration    24          0.770              1.459              0.943
 Vibration    25          0.783              1.426              0.890
 Vibration    26          0.799              1.386              0.831
 Vibration    27          0.803              1.376              0.816
 Vibration    28          0.820              1.333              0.759
 Vibration    29          0.831              1.308              0.727
 Vibration    30          0.857              1.247              0.655
 Vibration    31          0.896              1.159              0.562
 Vibration    32          0.907              1.136              0.540
 Vibration    33          0.928              1.093              0.501
 Vibration    34          0.944              1.061              0.474
 Vibration    35          0.974              1.001              0.425

 Normal termination of Gaussian 09 at Sun Oct 18 04:41:33 2015.
