 Gaussian 09, Revision B.01,
 Gaussian 09:  EM64L-G09RevB.01 12-Aug-2010

 --------------------------------------------------
 # freq=raman b3lyp/6-31+g(2df,p) geom=connectivity
 --------------------------------------------------

 ------------
 350 7000.com
 ------------
 Symbolic Z-matrix:
 Charge =  0 Multiplicity = 1

                         Standard orientation:
 ---------------------------------------------------------------------
 Center     Atomic      Atomic             Coordinates (Angstroms)
 Number     Number       Type             X           Y           Z
 ---------------------------------------------------------------------
      1          8           0        5.052509   -0.391726   -0.217295
      2          6           0        3.724465   -0.117007    0.248105
      3          6           0        3.170942    1.205888   -0.256891
      4          8           0        4.187320    2.216168   -0.200059
      5          1           0        5.081620    1.769225   -0.176483
      6          6           0        1.799357    1.702261    0.170319
      7          8           0        1.392588    2.772168   -0.695556
      8          1           0        0.513237    3.011261   -0.285052
      9          6           0        2.958140   -2.614589    0.282271
     10          8           0        4.058160   -3.295883   -0.337967
     11          1           0        3.888544   -4.278350   -0.255527
     12          6           0        2.729033   -1.183908   -0.176895
     13          8           0        1.484154   -0.794361    0.421977
     14          6           0        1.002837    0.441178   -0.125020
     15          8           0       -0.298057    0.531642    0.472434
     16          6           0       -1.479750    0.132048   -0.236139
     17          6           0       -2.016405   -1.180861    0.309513
     18          8           0       -1.097624   -2.279437    0.214534
     19          1           0       -0.299724   -1.860285    0.647001
     20          6           0       -3.376032   -1.484129   -0.298553
     21          8           0       -4.019833   -2.558752    0.401106
     22          1           0       -4.721266   -2.989045   -0.167273
     23          6           0       -2.205849    2.636760    0.136253
     24          8           0       -1.093342    3.249961    0.801999
     25          1           0       -1.228126    4.231123    0.942763
     26          6           0       -2.541825    1.154721    0.137361
     27          8           0       -3.838614    1.017420   -0.461899
     28          6           0       -4.289198   -0.289531   -0.076522
     29          8           0       -5.528589   -0.621722   -0.719699
     30          1           0       -6.178155   -0.865504   -0.056198
     31          1           0       -4.485644   -0.245288    0.974360
     32          1           0       -3.287649   -1.706954   -1.341356
     33          1           0       -2.184030   -1.023743    1.354556
     34          1           0       -1.320153    0.091898   -1.293408
     35          1           0       -2.719602    0.942331    1.170892
     36          1           0       -3.077099    3.131957    0.511224
     37          1           0       -2.115753    2.912971   -0.893548
     38          1           0        5.614191   -0.611725    0.529508
     39          1           0        2.066875   -3.174186    0.088886
     40          1           0        3.125268   -2.603456    1.339080
     41          1           0        2.628665   -1.167664   -1.242054
     42          1           0        3.745695   -0.085048    1.317417
     43          1           0        3.045749    1.031871   -1.305196
     44          1           0        1.768289    1.971546    1.205414
     45          1           0        0.895404    0.336254   -1.184429
 ---------------------------------------------------------------------

 SCF Done:  E(RB3LYP) =  -1297.99751830     A.U. after   13 cycles

 The electronic state is 1-A.
 Alpha  occ. eigenvalues --  -19.18652 -19.18380 -19.18377 -19.17580 -19.17541
 Alpha  occ. eigenvalues --  -19.17397 -19.16686 -19.16285 -19.15374 -19.14949
 Alpha  occ. eigenvalues --  -19.14128 -10.30296 -10.30107 -10.25999 -10.25966
 Alpha  occ. eigenvalues --  -10.25428 -10.25290 -10.25252 -10.25120 -10.24933
 Alpha  occ. eigenvalues --  -10.24351 -10.24131 -10.23828  -1.09893  -1.08949
 Alpha  occ. eigenvalues --   -1.05572  -1.04829  -1.04129  -1.03881  -1.02881
 Alpha  occ. eigenvalues --   -1.02535  -1.02361  -1.01287  -1.00313  -0.82839
 Alpha  occ. eigenvalues --   -0.80418  -0.79268  -0.78396  -0.72051  -0.70399
 Alpha  occ. eigenvalues --   -0.67002  -0.64193  -0.62899  -0.62256  -0.61695
 Alpha  occ. eigenvalues --   -0.60717  -0.56148  -0.55496  -0.55063  -0.54617
 Alpha  occ. eigenvalues --   -0.54026  -0.53337  -0.52798  -0.52081  -0.51241
 Alpha  occ. eigenvalues --   -0.50228  -0.49792  -0.49395  -0.48862  -0.46775
 Alpha  occ. eigenvalues --   -0.45959  -0.44957  -0.44307  -0.43595  -0.43333
 Alpha  occ. eigenvalues --   -0.43065  -0.42507  -0.41236  -0.40675  -0.39523
 Alpha  occ. eigenvalues --   -0.38800  -0.37531  -0.37026  -0.36490  -0.35871
 Alpha  occ. eigenvalues --   -0.35416  -0.35275  -0.34680  -0.34178  -0.33677
 Alpha  occ. eigenvalues --   -0.32431  -0.31894  -0.31330  -0.30412  -0.30028
 Alpha  occ. eigenvalues --   -0.29762  -0.28999  -0.28674  -0.28144  -0.26917
 Alpha  occ. eigenvalues --   -0.26395
 Alpha virt. eigenvalues --   -0.02157  -0.01909  -0.01526  -0.00332   0.00143
 Alpha virt. eigenvalues --    0.00866   0.01648   0.02381   0.03002   0.03330
 Alpha virt. eigenvalues --    0.03729   0.04218   0.05001   0.05078   0.05517

 Mulliken atomic charges:
              1
     1  O   -0.443505
     2  C   -0.117813
     3  C    0.115392
     4  O   -0.500530
     5  H    0.356336
     6  C   -0.138660
     7  O   -0.433184
     8  H    0.396617
     9  C   -0.356320
    10  O   -0.438976
    11  H    0.343448
    12  C   -0.058640
    13  O   -0.032755
    14  C    0.026925
    15  O   -0.043819
    16  C    0.156732
    17  C   -0.107610
    18  O   -0.435606
    19  H    0.368537
    20  C    0.023431
    21  O   -0.451147
    22  H    0.352813
    23  C   -0.620959
    24  O   -0.499796
    25  H    0.375932
    26  C    0.160325
    27  O   -0.107803
    28  C    0.008491
    29  O   -0.504832
    30  H    0.356654
    31  H    0.131435
    32  H    0.141513
    33  H    0.131548
    34  H    0.126678
    35  H    0.117022
    36  H    0.152546
    37  H    0.158154
    38  H    0.355357
    39  H    0.157385
    40  H    0.145327
    41  H    0.121454
    42  H    0.122481
    43  H    0.112098
    44  H    0.146398
    45  H    0.130927
 Sum of Mulliken atomic charges =   0.00000

 Dipole moment (field-independent basis, Debye):
    X=             -2.1413    Y=             -1.0254    Z=              2.8045  Tot=              3.6745
 Quadrupole moment (field-independent basis, Debye-Ang):
   XX=           -128.4666   YY=           -132.3956   ZZ=           -139.6523
   XY=            -12.6362   XZ=              5.6774   YZ=              6.4876

  Exact polarizability: 230.307   1.762 198.578   1.508   0.373 143.998
 Approx polarizability: 271.184   1.855 259.560   1.193  -0.012 241.069

 ******    6 imaginary frequencies (negative Signs) ******

                     1                      2                      3
                     A                      A                      A
 Frequencies --  -335.0122              -250.6320              -214.2519
 Red. masses --     1.6620                 1.8008                 1.2245
 Frc consts  --     0.1099                 0.0666                 0.0331
 IR Inten    --     4.6933                 7.9423               135.0921
 Raman Activ --     0.0754                 0.1247                 0.9154

                     4                      5                      6
                     A                      A                      A
 Frequencies --  -143.1592               -65.4826               -59.2147
 Red. masses --     1.3093                 6.6293                 6.2465
 Frc consts  --     0.0158                 0.0167                 0.0129
 IR Inten    --    82.0710                 1.3605                 0.3291
 Raman Activ --     0.6817                 0.0370                 0.0296

                     7                      8                      9
                     A                      A                      A
 Frequencies --    41.6518                68.0110                82.3259
 Red. masses --     6.9571                 6.1359                 4.4429
 Frc consts  --     0.0071                 0.0167                 0.0177
 IR Inten    --     0.1270                 4.7516                15.1832
 Raman Activ --     0.0899                 0.1465                 0.3012

                    10                     11                     12
                     A                      A                      A
 Frequencies --    99.1152               112.4561               140.1802
 Red. masses --     6.4400                 6.2170                 6.2585
 Frc consts  --     0.0373                 0.0463                 0.0725
 IR Inten    --     1.1876                 1.7981                 3.2131
 Raman Activ --     0.2198                 0.0842                 0.2679

                    13                     14                     15
                     A                      A                      A
 Frequencies --   140.7618               173.1015               178.8878
 Red. masses --     5.4846                 6.8091                 7.2862
 Frc consts  --     0.0640                 0.1202                 0.1374
 IR Inten    --     1.2929                 0.3643                 1.0298
 Raman Activ --     0.0623                 0.4831                 1.4965

                    16                     17                     18
                     A                      A                      A
 Frequencies --   200.4089               229.1178               260.6770
 Red. masses --     5.3835                 6.3118                 4.5991
 Frc consts  --     0.1274                 0.1952                 0.1841
 IR Inten    --     2.6467                 1.6180                 9.5754
 Raman Activ --     0.0665                 1.0435                 0.6125

                    19                     20                     21
                     A                      A                      A
 Frequencies --   286.9669               300.5447               305.3664
 Red. masses --     5.8347                 4.4320                 5.6283
 Frc consts  --     0.2831                 0.2359                 0.3092
 IR Inten    --     2.5793                 5.6280                 2.1078
 Raman Activ --     0.3780                 0.5018                 1.3229

                    22                     23                     24
                     A                      A                      A
 Frequencies --   313.7638               322.3374               333.2301
 Red. masses --     5.0636                 5.8856                 5.1612
 Frc consts  --     0.2937                 0.3603                 0.3377
 IR Inten    --     0.4506                 1.0682                 6.4429
 Raman Activ --     0.9166                 2.0261                 0.5303

                    25                     26                     27
                     A                      A                      A
 Frequencies --   336.5843               348.5712               366.9060
 Red. masses --     5.6143                 5.5697                 5.9981
 Frc consts  --     0.3747                 0.3987                 0.4757
 IR Inten    --     3.3424                 6.0710                 0.5542
 Raman Activ --     4.4206                 1.2624                 1.4257

                    28                     29                     30
                     A                      A                      A
 Frequencies --   393.9594               415.6416               422.7692
 Red. masses --     4.4447                 5.7337                 5.1956
 Frc consts  --     0.4064                 0.5836                 0.5471
 IR Inten    --    14.0391                 4.9978                 2.1344
 Raman Activ --     2.2705                 2.9497                 4.9831

                    31                     32                     33
                     A                      A                      A
 Frequencies --   441.1769               477.9156               489.6644
 Red. masses --     5.6594                 4.2059                 4.3840
 Frc consts  --     0.6490                 0.5660                 0.6193
 IR Inten    --     0.9678                 5.4175                16.4040
 Raman Activ --     3.1892                 5.5906                 0.1530

                    34                     35                     36
                     A                      A                      A
 Frequencies --   512.5815               529.7626               561.0922
 Red. masses --     4.1994                 3.3688                 3.6350
 Frc consts  --     0.6501                 0.5570                 0.6743
 IR Inten    --     6.9999                11.4691                 9.2100
 Raman Activ --     2.5910                 2.9188                 0.8116

                    37                     38                     39
                     A                      A                      A
 Frequencies --   574.9011               588.7660               602.3911
 Red. masses --     3.6031                 5.0748                 4.7795
 Frc consts  --     0.7016                 1.0365                 1.0218
 IR Inten    --    20.0659                14.2072                23.9357
 Raman Activ --     0.4345                 1.1596                 0.4439

                    40                     41                     42
                     A                      A                      A
 Frequencies --   609.2631               686.1628               702.0165
 Red. masses --     3.8922                 5.4322                 1.0683
 Frc consts  --     0.8513                 1.5069                 0.3102
 IR Inten    --    29.1265                12.9425               109.4336
 Raman Activ --     0.7214                 0.5577                 1.7231

                    43                     44                     45
                     A                      A                      A
 Frequencies --   719.6682               732.5139               742.4023
 Red. masses --     1.0701                 1.0788                 1.0641
 Frc consts  --     0.3265                 0.3411                 0.3456
 IR Inten    --    92.3002                71.6878                92.2106
 Raman Activ --     1.5779                 1.5202                 1.4011

                    46                     47                     48
                     A                      A                      A
 Frequencies --   796.6878               845.3719               848.1041
 Red. masses --     1.1115                 1.6371                 1.7277
 Frc consts  --     0.4156                 0.6893                 0.7322
 IR Inten    --   133.0679                15.2546                 4.0075
 Raman Activ --     3.8604                 1.1300                 0.3863

                    49                     50                     51
                     A                      A                      A
 Frequencies --   870.3693               924.4761               967.7392
 Red. masses --     1.2618                 5.0616                 3.9310
 Frc consts  --     0.5632                 2.5488                 2.1690
 IR Inten    --    45.4551                42.7121                75.9343
 Raman Activ --     0.6647                 1.7927                 1.6722

                    52                     53                     54
                     A                      A                      A
 Frequencies --   975.7383               984.7496               990.6445
 Red. masses --     6.3474                 5.9252                 5.1215
 Frc consts  --     3.5605                 3.3854                 2.9613
 IR Inten    --    11.9492               124.3636                92.9401
 Raman Activ --     1.8834                 0.7204                 0.6836

                    55                     56                     57
                     A                      A                      A
 Frequencies --  1004.5550              1011.2986              1016.3098
 Red. masses --     5.3190                 5.2850                 5.8444
 Frc consts  --     3.1625                 3.1846                 3.5566
 IR Inten    --   154.9982               345.0951               241.1504
 Raman Activ --     0.7942                 6.0681                 3.0534

                    58                     59                     60
                     A                      A                      A
 Frequencies --  1037.8777              1044.4832              1057.2206
 Red. masses --     7.6405                 5.3781                 5.9873
 Frc consts  --     4.8491                 3.4568                 3.9428
 IR Inten    --   327.4633                83.5883               107.7279
 Raman Activ --     1.9648                 2.4994                 2.7480

                    61                     62                     63
                     A                      A                      A
 Frequencies --  1067.4768              1076.9692              1085.8761
 Red. masses --     2.8827                 4.2338                 3.5350
 Frc consts  --     1.9354                 2.8932                 2.4559
 IR Inten    --    35.2443                17.9612                14.2668
 Raman Activ --    16.4523                 7.4871                 7.2806

                    64                     65                     66
                     A                      A                      A
 Frequencies --  1088.9702              1098.0554              1112.8182
 Red. masses --     3.3577                 2.6739                 2.5435
 Frc consts  --     2.3460                 1.8996                 1.8558
 IR Inten    --    37.6215                40.2011                56.2429
 Raman Activ --     9.9649                 5.5145                 8.4897

                    67                     68                     69
                     A                      A                      A
 Frequencies --  1124.4305              1131.1868              1134.2681
 Red. masses --     2.2148                 2.6474                 3.2950
 Frc consts  --     1.6498                 1.9959                 2.4977
 IR Inten    --    62.5288                 0.4739                10.3649
 Raman Activ --     3.0796                 7.7980                 9.1286

                    70                     71                     72
                     A                      A                      A
 Frequencies --  1147.4141              1149.9417              1157.6085
 Red. masses --     1.8681                 1.8378                 2.2929
 Frc consts  --     1.4491                 1.4319                 1.8103
 IR Inten    --    12.3985                 1.6416                21.9200
 Raman Activ --     1.6092                 3.2760                 0.3111

                    73                     74                     75
                     A                      A                      A
 Frequencies --  1162.7662              1173.6309              1200.7552
 Red. masses --     2.2318                 1.9724                 1.6162
 Frc consts  --     1.7779                 1.6007                 1.3730
 IR Inten    --     1.4851                13.0633                 8.5757
 Raman Activ --     2.5823                 3.1250                 3.2473

                    76                     77                     78
                     A                      A                      A
 Frequencies --  1204.7109              1219.5626              1226.8492
 Red. masses --     1.7337                 1.3809                 1.3885
 Frc consts  --     1.4825                 1.2101                 1.2313
 IR Inten    --    28.1466                 9.7464                19.7620
 Raman Activ --     2.8583                 2.9643                 1.8043

                    79                     80                     81
                     A                      A                      A
 Frequencies --  1242.3328              1247.8592              1264.5499
 Red. masses --     1.2341                 1.6045                 1.2363
 Frc consts  --     1.1222                 1.4720                 1.1648
 IR Inten    --     6.2391                18.5452                24.5453
 Raman Activ --     0.8492                 2.9710                 3.0432

                    82                     83                     84
                     A                      A                      A
 Frequencies --  1276.3954              1279.9539              1282.6297
 Red. masses --     1.2591                 1.3724                 1.2792
 Frc consts  --     1.2086                 1.3247                 1.2399
 IR Inten    --     8.0237                15.9350                25.6026
 Raman Activ --     3.7687                 2.0828                 1.3179

                    85                     86                     87
                     A                      A                      A
 Frequencies --  1297.1056              1307.3604              1314.1654
 Red. masses --     1.4037                 1.1853                 1.2398
 Frc consts  --     1.3915                 1.1936                 1.2615
 IR Inten    --    41.6481                24.0846                 6.8576
 Raman Activ --     3.3076                 4.3397                 2.3862

                    88                     89                     90
                     A                      A                      A
 Frequencies --  1331.7124              1335.3966              1338.4490
 Red. masses --     1.2961                 1.2329                 1.2226
 Frc consts  --     1.3543                 1.2954                 1.2904
 IR Inten    --    38.6244                26.2188                13.6452
 Raman Activ --     7.2405                 4.1834                 6.0798

                    91                     92                     93
                     A                      A                      A
 Frequencies --  1346.1669              1359.7145              1369.9860
 Red. masses --     1.2528                 1.3525                 1.4168
 Frc consts  --     1.3376                 1.4732                 1.5667
 IR Inten    --    22.9724                13.3840                 6.7131
 Raman Activ --     3.6268                 4.1589                 9.3742

                    94                     95                     96
                     A                      A                      A
 Frequencies --  1370.7810              1374.3662              1387.8314
 Red. masses --     1.4276                 1.2819                 1.1213
 Frc consts  --     1.5805                 1.4266                 1.2724
 IR Inten    --     6.1198                25.6934                15.6244
 Raman Activ --     4.1906                 2.9815                 1.2257

                    97                     98                     99
                     A                      A                      A
 Frequencies --  1388.5418              1398.1459              1415.4867
 Red. masses --     1.4158                 1.2297                 1.3488
 Frc consts  --     1.6083                 1.4163                 1.5923
 IR Inten    --     5.7635                 7.1950                27.6084
 Raman Activ --     6.1526                 1.1160                 2.7075

                   100                    101                    102
                     A                      A                      A
 Frequencies --  1426.2082              1445.3162              1451.2554
 Red. masses --     1.2263                 1.4394                 1.3725
 Frc consts  --     1.4697                 1.7716                 1.7032
 IR Inten    --     4.7505                51.9623                13.3086
 Raman Activ --     3.8801                 1.6950                 0.6338

                   103                    104                    105
                     A                      A                      A
 Frequencies --  1462.7629              1464.2390              1466.7643
 Red. masses --     1.1361                 1.1017                 1.3106
 Frc consts  --     1.4323                 1.3917                 1.6612
 IR Inten    --     8.0878                 3.8647                15.1645
 Raman Activ --     5.0766                 3.4312                 0.4707

                   106                    107                    108
                     A                      A                      A
 Frequencies --  1510.4972              1529.4563              3237.1255
 Red. masses --     1.2382                 1.2679                 1.0793
 Frc consts  --     1.6645                 1.7475                 6.6635
 IR Inten    --    30.9067                42.5273                 3.9628
 Raman Activ --     0.8768                 1.4956                41.5752

                   109                    110                    111
                     A                      A                      A
 Frequencies --  3245.6111              3254.0288              3254.6050
 Red. masses --     1.0795                 1.0607                 1.0571
 Frc consts  --     6.7000                 6.6172                 6.5973
 IR Inten    --    16.4563                70.3163                28.7894
 Raman Activ --    48.2306                59.2404               107.2873

                   112                    113                    114
                     A                      A                      A
 Frequencies --  3265.5127              3272.1953              3272.3461
 Red. masses --     1.0832                 1.0827                 1.0823
 Frc consts  --     6.8057                 6.8301                 6.8281
 IR Inten    --     4.2314                 3.8446                23.4211
 Raman Activ --     1.6246                13.0226               230.2338

                   115                    116                    117
                     A                      A                      A
 Frequencies --  3283.0249              3287.3927              3290.7582
 Red. masses --     1.0854                 1.0856                 1.0854
 Frc consts  --     6.8927                 6.9123                 6.9252
 IR Inten    --     1.6769                38.2042                 5.9175
 Raman Activ --    37.5148                53.1603                14.4269

                   118                    119                    120
                     A                      A                      A
 Frequencies --  3296.0546              3301.1665              3304.8752
 Red. masses --     1.0690                 1.0892                 1.0981
 Frc consts  --     6.8427                 6.9932                 7.0662
 IR Inten    --   359.7798                25.3558                14.9139
 Raman Activ --   180.9272                53.8080                63.5184

                   121                    122                    123
                     A                      A                      A
 Frequencies --  3305.6725              3312.7590              3337.6299
 Red. masses --     1.0877                 1.1050                 1.0653
 Frc consts  --     7.0029                 7.1450                 6.9921
 IR Inten    --   128.8883                48.1820               252.1380
 Raman Activ --     7.3812                28.7842               116.8745

                   124                    125                    126
                     A                      A                      A
 Frequencies --  3343.3515              3353.9426              3355.6136
 Red. masses --     1.0654                 1.0683                 1.0679
 Frc consts  --     7.0166                 7.0802                 7.0848
 IR Inten    --    50.5465                40.4434                75.0741
 Raman Activ --    93.2953               153.4415               147.8588

                   127                    128                    129
                     A                      A                      A
 Frequencies --  3361.3024              3875.6599              3877.3462
 Red. masses --     1.0671                 1.0677                 1.0674
 Frc consts  --     7.1034                 9.4489                 9.4549
 IR Inten    --    47.8033                89.5900                81.8319
 Raman Activ --   161.1335                80.2004                94.4339

 - Thermochemistry -
 -------------------
 Temperature   298.150 Kelvin.  Pressure   1.00000 Atm.
 Atom     1 has atomic number  8 and mass  15.99491

 Molecular mass:   342.11621 amu.
 Principal axes and moments of inertia in atomic units:
                           1         2         3
     Eigenvalues --  4457.06177********************
           X            0.99998  -0.00691  -0.00007
           Y            0.00691   0.99997   0.00159
           Z            0.00006  -0.00159   1.00000
 This molecule is an asymmetric top.
 Rotational symmetry number  1.
 Warning -- assumption of classical behavior for rotation
           may cause significant error
 Rotational temperatures (Kelvin)      0.01943     0.00702     0.00531
 Rotational constants (GHZ):           0.40492     0.14624     0.11072
    6 imaginary frequencies ignored.
 Zero-point vibrational energy     975889.2 (Joules/Mol)
                                  233.24312 (Kcal/Mol)
 Warning -- explicit consideration of  34 degrees of freedom as
           vibrations may cause significant error
 Vibrational temperatures:     59.93    97.85   118.45   142.60   161.80
          (Kelvin)            201.69   202.52   249.05   257.38   288.34
                              329.65   375.06   412.88   432.42   439.35
                              451.44   463.77   479.44   484.27   501.52
                              527.90   566.82   598.01   608.27   634.75
                              687.61   704.52   737.49   762.21   807.29
                              827.15   847.10   866.71   876.59   987.23
                             1010.04  1035.44  1053.92  1068.15  1146.25
                             1216.30  1220.23  1252.27  1330.11  1392.36
                             1403.87  1416.83  1425.31  1445.33  1455.03
                             1462.24  1493.27  1502.78  1521.10  1535.86
                             1549.52  1562.33  1566.78  1579.85  1601.10
                             1617.80  1627.52  1631.96  1650.87  1654.51
                             1665.54  1672.96  1688.59  1727.62  1733.31
                             1754.68  1765.16  1787.44  1795.39  1819.40
                             1836.45  1841.57  1845.42  1866.24  1881.00
                             1890.79  1916.03  1921.34  1925.73  1936.83
                             1956.32  1971.10  1972.25  1977.40  1996.78
                             1997.80  2011.62  2036.57  2051.99  2079.49
                             2088.03  2104.59  2106.71  2110.34  2173.27
                             2200.54  4657.50  4669.70  4681.82  4682.64
                             4698.34  4707.95  4708.17  4723.53  4729.82
                             4734.66  4742.28  4749.64  4754.97  4756.12
                             4766.32  4802.10  4810.33  4825.57  4827.97
                             4836.16  5576.20  5578.63

 Zero-point correction=                           0.371697 (Hartree/Particle)
 Thermal correction to Energy=                    0.390742
 Thermal correction to Enthalpy=                  0.391686
 Thermal correction to Gibbs Free Energy=         0.325412
 Sum of electronic and zero-point Energies=          -1297.625822
 Sum of electronic and thermal Energies=             -1297.606776
 Sum of electronic and thermal Enthalpies=           -1297.605832
 Sum of electronic and thermal Free Energies=        -1297.672106

                     E (Thermal)             CV                S
                      KCal/Mol        Cal/Mol-Kelvin    Cal/Mol-Kelvin
 Total                  245.194             77.830            139.486
 Electronic               0.000              0.000              0.000
 Translational            0.889              2.981             43.384
 Rotational               0.889              2.981             35.149
 Vibrational            243.417             71.868             60.953
 Vibration     1          0.594              1.981              5.179
 Vibration     2          0.598              1.969              4.210
 Vibration     3          0.600              1.961              3.835
 Vibration     4          0.604              1.950              3.472
 Vibration     5          0.607              1.939              3.226
 Vibration     6          0.615              1.913              2.801
 Vibration     7          0.615              1.913              2.793
 Vibration     8          0.627              1.876              2.402
 Vibration     9          0.629              1.868              2.340
 Vibration    10          0.638              1.839              2.129
 Vibration    11          0.652              1.797              1.886
 Vibration    12          0.669              1.745              1.657
 Vibration    13          0.684              1.698              1.492
 Vibration    14          0.693              1.673              1.414
 Vibration    15          0.696              1.664              1.387
 Vibration    16          0.702              1.647              1.342
 Vibration    17          0.707              1.631              1.298
 Vibration    18          0.715              1.609              1.244
 Vibration    19          0.717              1.602              1.228
 Vibration    20          0.726              1.578              1.173
 Vibration    21          0.740              1.540              1.093
 Vibration    22          0.761              1.483              0.985
 Vibration    23          0.779              1.436              0.907
 Vibration    24          0.785              1.421              0.883
 Vibration    25          0.801              1.380              0.823
 Vibration    26          0.834              1.299              0.716
 Vibration    27          0.846              1.273              0.684
 Vibration    28          0.868              1.222              0.627
 Vibration    29          0.885              1.184              0.588
 Vibration    30          0.917              1.115              0.522
 Vibration    31          0.931              1.086              0.495
 Vibration    32          0.946              1.056              0.469
 Vibration    33          0.961              1.027              0.446
 Vibration    34          0.968              1.012              0.434

 Normal termination of Gaussian 09 at Fri Feb 12 12:18:58 2016.
