 Gaussian 09, Revision B.01,
 Gaussian 09:  EM64L-G09RevB.01 12-Aug-2010

 -------------------------------------------------
 # freq=raman b3lyp/6-31+g(2d,p) geom=connectivity
 -------------------------------------------------

 -----------------
 493 9963/9963.com
 -----------------
 Symbolic Z-matrix:
 Charge =  0 Multiplicity = 1

                         Standard orientation:
 ---------------------------------------------------------------------
 Center     Atomic      Atomic             Coordinates (Angstroms)
 Number     Number       Type             X           Y           Z
 ---------------------------------------------------------------------
      1          8           0       -5.147071   -0.470792    0.232931
      2          6           0       -3.828479   -0.132238   -0.219950
      3          6           0       -3.281207    1.203099    0.257044
      4          8           0       -4.160992    2.247502   -0.184785
      5          1           0       -5.082734    1.907225   -0.368215
      6          6           0       -1.865124    1.576479   -0.152899
      7          8           0       -1.472646    2.786195    0.512781
      8          1           0       -0.522749    3.067708    0.375931
      9          6           0       -2.914045   -2.539977   -0.151828
     10          8           0       -4.092915   -3.355127   -0.079446
     11          1           0       -3.885888   -4.310907   -0.287559
     12          6           0       -2.772816   -1.095719    0.299884
     13          8           0       -1.428644   -0.763054   -0.077931
     14          6           0       -0.881783    0.509444    0.297000
     15          8           0        0.317618    0.529192   -0.491164
     16          6           0        1.575570    0.213099    0.122344
     17          6           0        1.985965   -1.205298   -0.239053
     18          8           0        1.039926   -2.107145    0.351451
     19          1           0        0.168556   -1.688613    0.096325
     20          6           0        3.400561   -1.485761    0.243356
     21          8           0        3.858109   -2.727919   -0.309396
     22          1           0        4.795928   -2.934799   -0.029349
     23          6           0        2.375471    2.670526    0.054535
     24          8           0        1.147263    3.231933   -0.431836
     25          1           0        1.109915    4.165610   -0.075196
     26          6           0        2.590765    1.228824   -0.374489
     27          8           0        3.874013    0.905502    0.180995
     28          6           0        4.347800   -0.389458   -0.216192
     29          8           0        5.580700   -0.633923    0.475309
     30          1           0        6.281843   -0.782386   -0.163406
     31          1           0        4.492958   -0.432688   -1.275418
     32          1           0        3.410294   -1.543502    1.311752
     33          1           0        1.953804   -1.315867   -1.302838
     34          1           0        1.482491    0.295403    1.185106
     35          1           0        2.644915    1.181656   -1.442076
     36          1           0        3.189908    3.261404   -0.309410
     37          1           0        2.371606    2.712739    1.123695
     38          1           0       -2.159389   -3.080901    0.379957
     39          1           0       -2.624509   -2.546930   -1.181886
     40          1           0       -2.823869   -1.082533    1.368584
     41          1           0       -5.711869   -0.640434   -0.524581
     42          1           0       -3.816402   -0.148985   -1.289751
     43          1           0       -3.308345    1.191873    1.326641
     44          1           0       -1.809725    1.705033   -1.213703
     45          1           0       -0.675711    0.562850    1.345609
 ---------------------------------------------------------------------

 SCF Done:  E(RB3LYP) =  -1297.98923210     A.U. after   14 cycles

 The electronic state is 1-A.
 Alpha  occ. eigenvalues --  -19.18810 -19.18191 -19.18136 -19.17701 -19.17684
 Alpha  occ. eigenvalues --  -19.17626 -19.15832 -19.15706 -19.14657 -19.14011
 Alpha  occ. eigenvalues --  -19.13905 -10.30610 -10.30463 -10.26009 -10.25607
 Alpha  occ. eigenvalues --  -10.25548 -10.25421 -10.25376 -10.24739 -10.24462
 Alpha  occ. eigenvalues --  -10.24392 -10.24060 -10.23511  -1.09968  -1.08962
 Alpha  occ. eigenvalues --   -1.05644  -1.05373  -1.03950  -1.03548  -1.02495
 Alpha  occ. eigenvalues --   -1.02122  -1.01905  -1.00779  -1.00146  -0.82245
 Alpha  occ. eigenvalues --   -0.80391  -0.79294  -0.78255  -0.71797  -0.70041
 Alpha  occ. eigenvalues --   -0.67659  -0.64951  -0.63066  -0.62430  -0.61323
 Alpha  occ. eigenvalues --   -0.60295  -0.56413  -0.55884  -0.55484  -0.54522
 Alpha  occ. eigenvalues --   -0.53903  -0.53718  -0.52889  -0.51735  -0.51111
 Alpha  occ. eigenvalues --   -0.50800  -0.50092  -0.49282  -0.49155  -0.46343
 Alpha  occ. eigenvalues --   -0.46102  -0.45284  -0.44054  -0.43687  -0.43180
 Alpha  occ. eigenvalues --   -0.42690  -0.41873  -0.41525  -0.40403  -0.39634
 Alpha  occ. eigenvalues --   -0.38373  -0.38051  -0.37540  -0.36108  -0.35388
 Alpha  occ. eigenvalues --   -0.34971  -0.34706  -0.34443  -0.34266  -0.33453
 Alpha  occ. eigenvalues --   -0.32911  -0.31513  -0.30999  -0.30268  -0.29683
 Alpha  occ. eigenvalues --   -0.29335  -0.28419  -0.28116  -0.27632  -0.26674
 Alpha  occ. eigenvalues --   -0.26184
 Alpha virt. eigenvalues --   -0.02257  -0.02034  -0.01896  -0.00395   0.00342
 Alpha virt. eigenvalues --    0.01139   0.02110   0.02393   0.02974   0.03270
 Alpha virt. eigenvalues --    0.03893   0.04234   0.04678   0.05328   0.05978

 Mulliken atomic charges:
              1
     1  O   -0.513616
     2  C   -0.288081
     3  C    0.279920
     4  O   -0.574268
     5  H    0.334308
     6  C    0.176850
     7  O   -0.563709
     8  H    0.369589
     9  C   -0.261174
    10  O   -0.559229
    11  H    0.341394
    12  C    0.296310
    13  O   -0.204810
    14  C   -0.022752
    15  O   -0.194176
    16  C    0.211110
    17  C    0.155650
    18  O   -0.567768
    19  H    0.390635
    20  C    0.073808
    21  O   -0.549931
    22  H    0.336607
    23  C   -0.195147
    24  O   -0.526501
    25  H    0.345900
    26  C   -0.150659
    27  O   -0.262348
    28  C    0.140707
    29  O   -0.552097
    30  H    0.336189
    31  H    0.132923
    32  H    0.136554
    33  H    0.127762
    34  H    0.117178
    35  H    0.123430
    36  H    0.151639
    37  H    0.152979
    38  H    0.146381
    39  H    0.139935
    40  H    0.110563
    41  H    0.342686
    42  H    0.122558
    43  H    0.122721
    44  H    0.135196
    45  H    0.134783
 Sum of Mulliken atomic charges =   0.00000

 Dipole moment (field-independent basis, Debye):
    X=              2.7741    Y=              0.3787    Z=             -2.3227  Tot=              3.6378
 Quadrupole moment (field-independent basis, Debye-Ang):
   XX=           -121.6925   YY=           -137.7578   ZZ=           -137.2887
   XY=             11.9647   XZ=              2.5193   YZ=              3.4255

  Exact polarizability: 235.699  -1.203 196.876   1.391   1.373 143.571
 Approx polarizability: 276.354  -0.283 255.199   2.781   2.489 239.107

 ******    7 imaginary frequencies (negative Signs) ******

                     1                      2                      3
                     A                      A                      A
 Frequencies --  -336.8735              -258.7895              -214.0364
 Red. masses --     1.6842                 1.1777                 1.9139
 Frc consts  --     0.1126                 0.0465                 0.0517
 IR Inten    --     5.1313               101.1049                 3.6958
 Raman Activ --     0.0459                 0.7759                 0.1319

                     4                      5                      6
                     A                      A                      A
 Frequencies --  -169.8997               -67.0296               -52.6706
 Red. masses --     1.2161                 7.0828                 6.3966
 Frc consts  --     0.0207                 0.0187                 0.0105
 IR Inten    --   110.2984                 1.6360                 0.2577
 Raman Activ --     0.9556                 0.0171                 0.0298

                     7                      8                      9
                     A                      A                      A
 Frequencies --   -31.4354                28.7182                65.1909
 Red. masses --     6.9538                 6.8876                 6.0876
 Frc consts  --     0.0040                 0.0033                 0.0152
 IR Inten    --     0.9213                 0.8419                 1.6914
 Raman Activ --     0.0493                 0.0547                 0.2201

                    10                     11                     12
                     A                      A                      A
 Frequencies --    72.8408                83.4217               124.3989
 Red. masses --     6.7066                 6.8023                 5.5222
 Frc consts  --     0.0210                 0.0279                 0.0503
 IR Inten    --     2.0258                 0.7344                 0.5377
 Raman Activ --     0.1950                 0.0745                 0.0847

                    13                     14                     15
                     A                      A                      A
 Frequencies --   148.7484               168.0465               177.9114
 Red. masses --     6.0380                 6.3861                 7.5001
 Frc consts  --     0.0787                 0.1063                 0.1399
 IR Inten    --     5.0392                 3.4667                 1.9918
 Raman Activ --     0.3167                 0.1402                 1.2049

                    16                     17                     18
                     A                      A                      A
 Frequencies --   192.3547               229.3966               260.6576
 Red. masses --     7.0975                 5.9346                 4.3474
 Frc consts  --     0.1547                 0.1840                 0.1740
 IR Inten    --     0.5397                 0.4650                20.4322
 Raman Activ --     1.6283                 0.3457                 0.2009

                    19                     20                     21
                     A                      A                      A
 Frequencies --   277.4619               286.9595               303.0371
 Red. masses --     4.2144                 5.3510                 4.9738
 Frc consts  --     0.1912                 0.2596                 0.2691
 IR Inten    --     1.9315                 0.5541                 3.1344
 Raman Activ --     0.1893                 0.1876                 0.1799

                    22                     23                     24
                     A                      A                      A
 Frequencies --   310.5043               319.6123               322.9182
 Red. masses --     6.2148                 6.0162                 5.6695
 Frc consts  --     0.3530                 0.3621                 0.3483
 IR Inten    --     4.1140                 4.8170                 3.9846
 Raman Activ --     0.5758                 1.2537                 3.5179

                    25                     26                     27
                     A                      A                      A
 Frequencies --   336.8860               359.0754               375.4263
 Red. masses --     6.5267                 4.4796                 6.9926
 Frc consts  --     0.4364                 0.3403                 0.5807
 IR Inten    --     7.7752                 9.0257                 1.3017
 Raman Activ --     4.8107                 0.1403                 2.2956

                    28                     29                     30
                     A                      A                      A
 Frequencies --   400.0357               406.4326               433.4444
 Red. masses --     4.0134                 5.8053                 5.1515
 Frc consts  --     0.3784                 0.5650                 0.5702
 IR Inten    --    18.2193                 1.8472                 3.6737
 Raman Activ --     1.4590                 6.1220                 2.4356

                    31                     32                     33
                     A                      A                      A
 Frequencies --   436.7121               478.8106               493.5233
 Red. masses --     5.6966                 4.4528                 4.2383
 Frc consts  --     0.6401                 0.6015                 0.6082
 IR Inten    --     0.7888                 6.0510                11.6292
 Raman Activ --     2.8059                 0.1501                 4.2192

                    34                     35                     36
                     A                      A                      A
 Frequencies --   517.6342               525.4158               567.5881
 Red. masses --     3.4241                 3.2835                 3.5226
 Frc consts  --     0.5406                 0.5341                 0.6686
 IR Inten    --     8.8668                 8.0108                18.3111
 Raman Activ --     2.4226                 3.4915                 1.0988

                    37                     38                     39
                     A                      A                      A
 Frequencies --   586.9128               604.5898               614.2663
 Red. masses --     2.8173                 5.5318                 6.1492
 Frc consts  --     0.5718                 1.1914                 1.3670
 IR Inten    --    26.2668                 9.9693                32.8325
 Raman Activ --     0.1853                 0.5830                 1.7266

                    40                     41                     42
                     A                      A                      A
 Frequencies --   631.2184               658.0935               677.2342
 Red. masses --     3.5596                 1.0557                 1.2809
 Frc consts  --     0.8356                 0.2694                 0.3461
 IR Inten    --    10.5694               108.1846                67.9556
 Raman Activ --     1.0624                 1.9403                 1.7015

                    43                     44                     45
                     A                      A                      A
 Frequencies --   687.5909               743.8008               772.3973
 Red. masses --     3.4257                 1.0606                 1.0689
 Frc consts  --     0.9543                 0.3457                 0.3757
 IR Inten    --    20.2966                92.6224               115.3920
 Raman Activ --     0.3016                 1.9458                 0.7158

                    46                     47                     48
                     A                      A                      A
 Frequencies --   782.9664               845.1798               862.1185
 Red. masses --     1.0759                 1.7976                 1.0916
 Frc consts  --     0.3886                 0.7566                 0.4780
 IR Inten    --    73.6110                 2.6662                65.9192
 Raman Activ --     1.1003                 1.3850                 1.2999

                    49                     50                     51
                     A                      A                      A
 Frequencies --   874.9957               897.3195               954.9762
 Red. masses --     1.6569                 6.2145                 5.0479
 Frc consts  --     0.7474                 2.9482                 2.7124
 IR Inten    --    21.9350                81.3746               142.3778
 Raman Activ --     1.5829                 2.0085                 1.5432

                    52                     53                     54
                     A                      A                      A
 Frequencies --   970.6138               976.6973               982.1567
 Red. masses --     4.5405                 6.5773                 6.2011
 Frc consts  --     2.5203                 3.6967                 3.5243
 IR Inten    --    55.8591                92.4937                28.2737
 Raman Activ --     3.3199                 3.0623                 1.3541

                    55                     56                     57
                     A                      A                      A
 Frequencies --   998.9039              1008.1460              1021.9697
 Red. masses --     6.0754                 6.4483                 5.6680
 Frc consts  --     3.5717                 3.8614                 3.4879
 IR Inten    --   423.8215                22.7241               119.4898
 Raman Activ --     1.8221                 1.3687                 2.8830

                    58                     59                     60
                     A                      A                      A
 Frequencies --  1038.0987              1053.0109              1054.0927
 Red. masses --     5.5350                 3.7760                 5.1520
 Frc consts  --     3.5144                 2.4669                 3.3727
 IR Inten    --   306.2607               137.6038                48.4166
 Raman Activ --     2.3204                 7.7048                 3.8929

                    61                     62                     63
                     A                      A                      A
 Frequencies --  1066.6785              1068.7701              1079.6644
 Red. masses --     5.9305                 3.7504                 4.8798
 Frc consts  --     3.9756                 2.5241                 3.3514
 IR Inten    --    77.6193                24.8150               105.6979
 Raman Activ --     4.0129                30.2062                 2.0069

                    64                     65                     66
                     A                      A                      A
 Frequencies --  1093.4302              1098.1753              1102.8228
 Red. masses --     3.0530                 2.5725                 2.2300
 Frc consts  --     2.1506                 1.8279                 1.5979
 IR Inten    --    52.6436                25.5660                42.9668
 Raman Activ --     5.5538                 3.7531                 4.2901

                    67                     68                     69
                     A                      A                      A
 Frequencies --  1108.4125              1118.0075              1121.8432
 Red. masses --     2.5795                 3.3673                 2.1715
 Frc consts  --     1.8672                 2.4799                 1.6102
 IR Inten    --    35.5758                16.8494                61.7289
 Raman Activ --     6.0851                 1.2370                 7.8634

                    70                     71                     72
                     A                      A                      A
 Frequencies --  1135.5205              1143.7657              1148.2521
 Red. masses --     1.8902                 3.4893                 1.6656
 Frc consts  --     1.4360                 2.6894                 1.2939
 IR Inten    --     2.6626                20.8425                 7.8102
 Raman Activ --     3.0754                 7.1562                 5.4337

                    73                     74                     75
                     A                      A                      A
 Frequencies --  1157.5733              1164.8084              1186.4274
 Red. masses --     1.6924                 1.8876                 1.6015
 Frc consts  --     1.3361                 1.5090                 1.3282
 IR Inten    --    18.4254                 2.1475                14.1336
 Raman Activ --     2.6659                 1.4393                 1.3577

                    76                     77                     78
                     A                      A                      A
 Frequencies --  1197.4482              1211.5711              1218.8529
 Red. masses --     1.3549                 1.3443                 1.1895
 Frc consts  --     1.1446                 1.1626                 1.0412
 IR Inten    --     8.4986                 0.2197                 5.2296
 Raman Activ --     3.0280                 0.3548                 0.4856

                    79                     80                     81
                     A                      A                      A
 Frequencies --  1229.6527              1234.9760              1237.3977
 Red. masses --     1.2684                 1.2179                 1.2548
 Frc consts  --     1.1300                 1.0944                 1.1320
 IR Inten    --     2.1815                16.6033                15.0658
 Raman Activ --     1.5067                 1.7960                 1.2852

                    82                     83                     84
                     A                      A                      A
 Frequencies --  1260.9597              1265.1521              1278.5817
 Red. masses --     1.2233                 1.2307                 1.3141
 Frc consts  --     1.1460                 1.1607                 1.2657
 IR Inten    --    27.4583                 5.3990                15.0764
 Raman Activ --     3.0681                 4.9620                 0.8660

                    85                     86                     87
                     A                      A                      A
 Frequencies --  1283.4767              1291.7609              1301.2990
 Red. masses --     1.3218                 1.2839                 1.3376
 Frc consts  --     1.2829                 1.2622                 1.3345
 IR Inten    --    22.0008                53.5787                 3.7144
 Raman Activ --     0.4516                 2.6436                 8.2394

                    88                     89                     90
                     A                      A                      A
 Frequencies --  1303.4965              1315.6014              1319.5437
 Red. masses --     1.2972                 1.3314                 1.1442
 Frc consts  --     1.2986                 1.3577                 1.1738
 IR Inten    --    32.9202                45.9759                26.2923
 Raman Activ --     6.8273                 5.3677                 7.8411

                    91                     92                     93
                     A                      A                      A
 Frequencies --  1325.3119              1332.4208              1337.0418
 Red. masses --     1.2951                 1.2710                 1.2396
 Frc consts  --     1.3403                 1.3295                 1.3056
 IR Inten    --    35.1920                24.6944                31.2493
 Raman Activ --     3.1273                 1.2358                 3.7754

                    94                     95                     96
                     A                      A                      A
 Frequencies --  1345.8591              1355.8425              1370.7934
 Red. masses --     1.1339                 1.4788                 1.4050
 Frc consts  --     1.2101                 1.6017                 1.5555
 IR Inten    --    18.8205                 3.8979                 2.2726
 Raman Activ --     2.4925                 8.5764                 2.8710

                    97                     98                     99
                     A                      A                      A
 Frequencies --  1380.1491              1382.0950              1400.7336
 Red. masses --     1.3644                 1.6501                 1.5431
 Frc consts  --     1.5313                 1.8571                 1.7838
 IR Inten    --     1.0381                 8.4205                23.7558
 Raman Activ --     6.9667                 6.6174                 3.4701

                   100                    101                    102
                     A                      A                      A
 Frequencies --  1407.2070              1411.3945              1427.7212
 Red. masses --     1.4885                 1.5835                 1.5814
 Frc consts  --     1.7366                 1.8585                 1.8993
 IR Inten    --    26.3145                28.0508                49.1703
 Raman Activ --     1.9018                 0.8956                 1.8743

                   103                    104                    105
                     A                      A                      A
 Frequencies --  1461.9610              1474.6881              1477.5110
 Red. masses --     1.2452                 1.1607                 1.0734
 Frc consts  --     1.5681                 1.4872                 1.3806
 IR Inten    --    12.2243                 1.4924                 3.9824
 Raman Activ --     3.2915                 2.1018                 5.2951

                   106                    107                    108
                     A                      A                      A
 Frequencies --  1483.5146              1536.0470              3252.4538
 Red. masses --     1.3885                 1.2395                 1.0586
 Frc consts  --     1.8005                 1.7230                 6.5979
 IR Inten    --    28.2478                51.6094                32.3539
 Raman Activ --     0.7288                 1.9035                80.4188

                   109                    110                    111
                     A                      A                      A
 Frequencies --  3261.6437              3266.4702              3272.9982
 Red. masses --     1.0566                 1.0828                 1.0814
 Frc consts  --     6.6229                 6.8070                 6.8254
 IR Inten    --    64.4950                35.2936                 3.9278
 Raman Activ --    69.9938                17.6791               155.9123

                   112                    113                    114
                     A                      A                      A
 Frequencies --  3278.0280              3278.6176              3286.0033
 Red. masses --     1.0831                 1.0821                 1.0852
 Frc consts  --     6.8574                 6.8534                 6.9038
 IR Inten    --    22.0581                20.6716                21.2715
 Raman Activ --     9.5462               118.0612               146.4875

                   115                    116                    117
                     A                      A                      A
 Frequencies --  3288.2738              3292.2058              3294.1679
 Red. masses --     1.0875                 1.0837                 1.0819
 Frc consts  --     6.9282                 6.9206                 6.9171
 IR Inten    --    21.0552                19.1774                95.3314
 Raman Activ --    34.4386                44.9662                66.8923

                   118                    119                    120
                     A                      A                      A
 Frequencies --  3297.1667              3302.4644              3304.8684
 Red. masses --     1.0771                 1.0963                 1.0872
 Frc consts  --     6.8991                 7.0445                 6.9960
 IR Inten    --    73.0896                81.5693                79.9608
 Raman Activ --   245.1982                13.7516                19.8726

                   121                    122                    123
                     A                      A                      A
 Frequencies --  3308.4156              3310.0148              3322.6886
 Red. masses --     1.0834                 1.0741                 1.1083
 Frc consts  --     6.9870                 6.9332                 7.2090
 IR Inten    --   346.5973               487.6877                40.4196
 Raman Activ --    39.1503               108.4261                52.8113

                   124                    125                    126
                     A                      A                      A
 Frequencies --  3363.9252              3364.3976              3367.5272
 Red. masses --     1.0654                 1.0659                 1.0668
 Frc consts  --     7.1032                 7.1086                 7.1275
 IR Inten    --    86.4737                16.4213                28.0511
 Raman Activ --    79.3559               180.6373               105.4072

                   127                    128                    129
                     A                      A                      A
 Frequencies --  3369.6311              3889.9471              3891.5903
 Red. masses --     1.0677                 1.0675                 1.0678
 Frc consts  --     7.1427                 9.5169                 9.5275
 IR Inten    --    63.1117                78.2838                84.9221
 Raman Activ --   165.4425               108.7022                93.4288

 - Thermochemistry -
 -------------------
 Temperature   298.150 Kelvin.  Pressure   1.00000 Atm.
 Atom     1 has atomic number  8 and mass  15.99491

 Molecular mass:   342.11621 amu.
 Principal axes and moments of inertia in atomic units:
                           1         2         3
     Eigenvalues --  4386.08411********************
           X            0.99998   0.00640   0.00019
           Y           -0.00640   0.99997   0.00308
           Z           -0.00017  -0.00308   1.00000
 This molecule is an asymmetric top.
 Rotational symmetry number  1.
 Warning -- assumption of classical behavior for rotation
           may cause significant error
 Rotational temperatures (Kelvin)      0.01975     0.00695     0.00525
 Rotational constants (GHZ):           0.41147     0.14474     0.10935
    7 imaginary frequencies ignored.
 Zero-point vibrational energy     972074.9 (Joules/Mol)
                                  232.33147 (Kcal/Mol)
 Warning -- explicit consideration of  32 degrees of freedom as
           vibrations may cause significant error
 Vibrational temperatures:     41.32    93.80   104.80   120.03   178.98
          (Kelvin)            214.02   241.78   255.97   276.76   330.05
                              375.03   399.21   412.87   436.00   446.75
                              459.85   464.61   484.70   516.63   540.15
                              575.56   584.77   623.63   628.33   688.90
                              710.07   744.76   755.96   816.63   844.44
                              869.87   883.79   908.18   946.85   974.39
                              989.29  1070.16  1111.31  1126.51  1216.02
                             1240.39  1258.92  1291.04  1374.00  1396.50
                             1405.25  1413.10  1437.20  1450.50  1470.38
                             1493.59  1515.05  1516.60  1534.71  1537.72
                             1553.39  1573.20  1580.03  1586.71  1594.76
                             1608.56  1614.08  1633.76  1645.62  1652.08
                             1665.49  1675.90  1707.00  1722.86  1743.18
                             1753.66  1769.19  1776.85  1780.34  1814.24
                             1820.27  1839.59  1846.63  1858.55  1872.28
                             1875.44  1892.85  1898.53  1906.83  1917.05
                             1923.70  1936.39  1950.75  1972.26  1985.72
                             1988.52  2015.34  2024.65  2030.68  2054.17
                             2103.43  2121.74  2125.81  2134.44  2210.03
                             4679.55  4692.77  4699.72  4709.11  4716.35
                             4717.19  4727.82  4731.09  4736.74  4739.57
                             4743.88  4751.50  4754.96  4760.07  4762.37
                             4780.60  4839.93  4840.61  4845.11  4848.14
                             5596.76  5599.12

 Zero-point correction=                           0.370244 (Hartree/Particle)
 Thermal correction to Energy=                    0.388745
 Thermal correction to Enthalpy=                  0.389689
 Thermal correction to Gibbs Free Energy=         0.324074
 Sum of electronic and zero-point Energies=          -1297.618988
 Sum of electronic and thermal Energies=             -1297.600487
 Sum of electronic and thermal Enthalpies=           -1297.599543
 Sum of electronic and thermal Free Energies=        -1297.665158

                     E (Thermal)             CV                S
                      KCal/Mol        Cal/Mol-Kelvin    Cal/Mol-Kelvin
 Total                  243.941             76.279            138.099
 Electronic               0.000              0.000              0.000
 Translational            0.889              2.981             43.384
 Rotational               0.889              2.981             35.155
 Vibrational            242.164             70.317             59.560
 Vibration     1          0.593              1.984              5.916
 Vibration     2          0.597              1.971              4.294
 Vibration     3          0.599              1.967              4.075
 Vibration     4          0.600              1.961              3.809
 Vibration     5          0.610              1.929              3.031
 Vibration     6          0.618              1.904              2.688
 Vibration     7          0.625              1.882              2.457
 Vibration     8          0.628              1.870              2.350
 Vibration     9          0.634              1.850              2.205
 Vibration    10          0.652              1.796              1.884
 Vibration    11          0.669              1.745              1.657
 Vibration    12          0.678              1.715              1.549
 Vibration    13          0.684              1.698              1.492
 Vibration    14          0.694              1.668              1.400
 Vibration    15          0.699              1.654              1.360
 Vibration    16          0.706              1.636              1.312
 Vibration    17          0.708              1.630              1.295
 Vibration    18          0.718              1.602              1.227
 Vibration    19          0.734              1.557              1.126
 Vibration    20          0.746              1.522              1.058
 Vibration    21          0.766              1.470              0.963
 Vibration    22          0.771              1.456              0.939
 Vibration    23          0.794              1.397              0.847
 Vibration    24          0.797              1.390              0.837
 Vibration    25          0.835              1.297              0.713
 Vibration    26          0.849              1.264              0.675
 Vibration    27          0.873              1.211              0.615
 Vibration    28          0.880              1.194              0.598
 Vibration    29          0.924              1.101              0.509
 Vibration    30          0.944              1.060              0.473
 Vibration    31          0.963              1.022              0.442
 Vibration    32          0.974              1.002              0.426

 Normal termination of Gaussian 09 at Fri Apr  1 09:29:28 2016.
