 Gaussian 09, Revision B.01,
 Gaussian 09:  EM64L-G09RevB.01 12-Aug-2010

 ------------------------------------------------
 # freq=raman b3lyp/6-31+g(d,p) geom=connectivity
 ------------------------------------------------

 ------------
 400 6000.com
 ------------
 Symbolic Z-matrix:
 Charge =  0 Multiplicity = 1

                         Standard orientation:
 ---------------------------------------------------------------------
 Center     Atomic      Atomic             Coordinates (Angstroms)
 Number     Number       Type             X           Y           Z
 ---------------------------------------------------------------------
      1          8           0       -5.019640   -0.346674    0.502573
      2          6           0       -3.740964   -0.018164   -0.058877
      3          6           0       -3.150619    1.299820    0.416302
      4          8           0       -4.160321    2.262168    0.080387
      5          1           0       -5.054319    1.869152    0.298671
      6          6           0       -1.810010    1.609708   -0.228108
      7          8           0       -1.074413    2.808290    0.059180
      8          1           0       -0.148026    2.841994   -0.316034
      9          6           0       -3.115160   -2.477827   -0.308053
     10          8           0       -4.411266   -3.003046    0.012373
     11          1           0       -4.424187   -3.984806   -0.176982
     12          6           0       -2.734837   -1.115367    0.248276
     13          8           0       -1.437841   -0.806367   -0.284196
     14          6           0       -0.878081    0.456524    0.105384
     15          8           0        0.412215    0.617002   -0.501452
     16          6           0        1.524388    0.237947    0.322509
     17          6           0        1.919269   -1.144655   -0.170169
     18          8           0        0.845419   -2.093979   -0.237147
     19          1           0       -0.030796   -1.651946   -0.427877
     20          6           0        3.288895   -1.573344    0.331643
     21          8           0        3.595474   -2.852315   -0.243940
     22          1           0        4.560339   -3.039770   -0.059542
     23          6           0        2.445174    2.539576    0.159287
     24          8           0        1.470439    3.277420   -0.591244
     25          1           0        1.658606    4.252420   -0.474724
     26          6           0        2.635968    1.092696   -0.263163
     27          8           0        3.857018    0.681446    0.368690
     28          6           0        4.324157   -0.571512   -0.152580
     29          8           0        5.515849   -0.723777    0.632997
     30          1           0        6.282688   -0.718431    0.055477
     31          1           0        4.487034   -0.571169   -1.210111
     32          1           0        3.295133   -1.632069    1.400012
     33          1           0        2.113396   -0.967587   -1.207407
     34          1           0        1.377063    0.332869    1.378059
     35          1           0        2.691290    0.995777   -1.327328
     36          1           0        3.386109    3.041086    0.069681
     37          1           0        2.154035    2.551851    1.188844
     38          1           0       -5.666865   -0.428562   -0.201695
     39          1           0       -2.386604   -3.182355    0.035089
     40          1           0       -3.042384   -2.423843   -1.374209
     41          1           0       -2.649003   -1.200434    1.311430
     42          1           0       -3.854453    0.037256   -1.121397
     43          1           0       -3.031783    1.269984    1.479264
     44          1           0       -1.967763    1.592928   -1.286282
     45          1           0       -0.742047    0.441886    1.166600
 ---------------------------------------------------------------------

 SCF Done:  E(RB3LYP) =  -1297.91994352     A.U. after   13 cycles

 The electronic state is 1-A.
 Alpha  occ. eigenvalues --  -19.19852 -19.19644 -19.19395 -19.19166 -19.18329
 Alpha  occ. eigenvalues --  -19.18280 -19.17087 -19.16452 -19.15675 -19.13742
 Alpha  occ. eigenvalues --  -19.13118 -10.31363 -10.31029 -10.26286 -10.26082
 Alpha  occ. eigenvalues --  -10.25918 -10.25830 -10.25327 -10.25237 -10.25012
 Alpha  occ. eigenvalues --  -10.24935 -10.24473 -10.23826  -1.10485  -1.09636
 Alpha  occ. eigenvalues --   -1.06113  -1.05553  -1.04740  -1.03215  -1.02727
 Alpha  occ. eigenvalues --   -1.02529  -1.01772  -0.99914  -0.99095  -0.82621
 Alpha  occ. eigenvalues --   -0.80870  -0.79368  -0.78731  -0.71755  -0.70180
 Alpha  occ. eigenvalues --   -0.67547  -0.64566  -0.63395  -0.62946  -0.61501
 Alpha  occ. eigenvalues --   -0.60872  -0.57225  -0.56461  -0.55129  -0.54617
 Alpha  occ. eigenvalues --   -0.54390  -0.53782  -0.53094  -0.51661  -0.51062
 Alpha  occ. eigenvalues --   -0.50381  -0.49995  -0.49629  -0.48751  -0.47051
 Alpha  occ. eigenvalues --   -0.45934  -0.45603  -0.44839  -0.44177  -0.43247
 Alpha  occ. eigenvalues --   -0.42674  -0.41743  -0.41118  -0.40702  -0.39356
 Alpha  occ. eigenvalues --   -0.38992  -0.38123  -0.37844  -0.36533  -0.35987
 Alpha  occ. eigenvalues --   -0.35505  -0.35302  -0.34256  -0.33220  -0.32930
 Alpha  occ. eigenvalues --   -0.32714  -0.31487  -0.30782  -0.30137  -0.29920
 Alpha  occ. eigenvalues --   -0.29524  -0.28799  -0.27206  -0.27172  -0.26460
 Alpha  occ. eigenvalues --   -0.25509
 Alpha virt. eigenvalues --   -0.02163  -0.02011  -0.01775  -0.00214   0.00181
 Alpha virt. eigenvalues --    0.00795   0.01858   0.02122   0.03208   0.03447
 Alpha virt. eigenvalues --    0.04038   0.04409   0.04870   0.05403   0.05716

 Mulliken atomic charges:
              1
     1  O   -0.538337
     2  C   -0.305129
     3  C    0.282269
     4  O   -0.502849
     5  H    0.354369
     6  C   -0.107792
     7  O   -0.560882
     8  H    0.468108
     9  C   -0.058485
    10  O   -0.567944
    11  H    0.369399
    12  C    0.162484
    13  O   -0.437391
    14  C    0.280865
    15  O   -0.371309
    16  C    0.125275
    17  C   -0.162282
    18  O   -0.574923
    19  H    0.456532
    20  C    0.260941
    21  O   -0.490789
    22  H    0.342913
    23  C   -0.056452
    24  O   -0.598098
    25  H    0.383021
    26  C   -0.105053
    27  O   -0.320391
    28  C    0.162920
    29  O   -0.535807
    30  H    0.353967
    31  H    0.143118
    32  H    0.146663
    33  H    0.105839
    34  H    0.141855
    35  H    0.149899
    36  H    0.140947
    37  H    0.145149
    38  H    0.382892
    39  H    0.145322
    40  H    0.138018
    41  H    0.138570
    42  H    0.142083
    43  H    0.129854
    44  H    0.134832
    45  H    0.105808
 Sum of Mulliken atomic charges =   0.00000

 Dipole moment (field-independent basis, Debye):
    X=              2.6831    Y=              0.0059    Z=             -1.6820  Tot=              3.1668
 Quadrupole moment (field-independent basis, Debye-Ang):
   XX=           -112.0205   YY=           -141.1941   ZZ=           -138.6489
   XY=             18.8905   XZ=             -0.9324   YZ=              1.1415

  Exact polarizability: 231.176   1.052 189.833   0.932   1.040 140.320
 Approx polarizability: 269.433   3.679 244.193   2.036   1.061 230.635

 ******    6 imaginary frequencies (negative Signs) ******

                     1                      2                      3
                     A                      A                      A
 Frequencies --  -302.4362              -271.4891              -265.0281
 Red. masses --     1.3108                 1.1439                 1.5379
 Frc consts  --     0.0706                 0.0497                 0.0636
 IR Inten    --    98.0255               102.1585                36.2111
 Raman Activ --     0.7585                 1.2169                 0.3910

                     4                      5                      6
                     A                      A                      A
 Frequencies --  -227.1992               -95.2120               -42.2978
 Red. masses --     1.8846                 7.2882                 6.6081
 Frc consts  --     0.0573                 0.0389                 0.0070
 IR Inten    --     5.7020                 3.0609                 0.3923
 Raman Activ --     0.0966                 0.0434                 0.0537

                     7                      8                      9
                     A                      A                      A
 Frequencies --    10.0548                38.5447                44.1402
 Red. masses --     6.4566                 7.0486                 6.3591
 Frc consts  --     0.0004                 0.0062                 0.0073
 IR Inten    --     3.0494                 0.4504                 0.5597
 Raman Activ --     0.0126                 0.0580                 0.0368

                    10                     11                     12
                     A                      A                      A
 Frequencies --    66.2357                83.0883               140.6077
 Red. masses --     6.8950                 6.4870                 5.6883
 Frc consts  --     0.0178                 0.0264                 0.0663
 IR Inten    --     3.6263                 0.7533                 0.6642
 Raman Activ --     0.0289                 0.2617                 0.0347

                    13                     14                     15
                     A                      A                      A
 Frequencies --   170.9500               184.7755               201.3719
 Red. masses --     6.2554                 6.5991                 5.8525
 Frc consts  --     0.1077                 0.1327                 0.1398
 IR Inten    --     6.0733                 4.6468                 1.0366
 Raman Activ --     0.5374                 0.5623                 0.1486

                    16                     17                     18
                     A                      A                      A
 Frequencies --   217.0323               241.0747               255.2082
 Red. masses --     6.8594                 5.7682                 4.4940
 Frc consts  --     0.1904                 0.1975                 0.1725
 IR Inten    --     0.1720                 3.1617                18.7372
 Raman Activ --     2.7042                 0.6231                 0.1600

                    19                     20                     21
                     A                      A                      A
 Frequencies --   272.6413               295.9546               315.1443
 Red. masses --     5.1639                 4.9722                 5.4980
 Frc consts  --     0.2262                 0.2566                 0.3217
 IR Inten    --     4.7960                 1.7842                 2.7058
 Raman Activ --     0.4518                 0.2124                 0.4847

                    22                     23                     24
                     A                      A                      A
 Frequencies --   320.6819               326.3333               339.8820
 Red. masses --     5.4947                 5.2021                 5.6443
 Frc consts  --     0.3329                 0.3264                 0.3842
 IR Inten    --     3.6525                 2.3382                 9.4310
 Raman Activ --     2.2688                 3.2015                 2.7563

                    25                     26                     27
                     A                      A                      A
 Frequencies --   347.4523               369.9764               395.2349
 Red. masses --     6.1836                 4.7465                 5.3958
 Frc consts  --     0.4398                 0.3828                 0.4966
 IR Inten    --     5.9133                 7.3427                 2.2058
 Raman Activ --     1.4558                 0.5159                 2.0053

                    28                     29                     30
                     A                      A                      A
 Frequencies --   405.7778               426.8491               441.6042
 Red. masses --     7.5567                 5.6984                 4.6668
 Frc consts  --     0.7331                 0.6117                 0.5362
 IR Inten    --     9.5942                10.5713                12.1825
 Raman Activ --     3.1738                 4.6312                 4.3486

                    31                     32                     33
                     A                      A                      A
 Frequencies --   450.8916               488.8878               504.3930
 Red. masses --     5.2705                 3.8353                 4.3891
 Frc consts  --     0.6313                 0.5401                 0.6579
 IR Inten    --     4.5867                 6.3026                15.5340
 Raman Activ --     1.6203                 1.4754                 0.6086

                    34                     35                     36
                     A                      A                      A
 Frequencies --   525.3827               541.1471               572.2487
 Red. masses --     3.5983                 3.4149                 3.6463
 Frc consts  --     0.5852                 0.5892                 0.7035
 IR Inten    --     2.0338                20.7770                17.7990
 Raman Activ --     6.3520                 1.4385                 1.2750

                    37                     38                     39
                     A                      A                      A
 Frequencies --   588.8055               618.3503               637.1815
 Red. masses --     4.9076                 3.7656                 3.5669
 Frc consts  --     1.0025                 0.8483                 0.8532
 IR Inten    --    10.8838                19.9634                 7.8685
 Raman Activ --     0.9578                 0.3252                 1.7194

                    40                     41                     42
                     A                      A                      A
 Frequencies --   641.5504               681.1153               692.9661
 Red. masses --     6.1176                 1.0726                 1.3612
 Frc consts  --     1.4835                 0.2932                 0.3851
 IR Inten    --    37.5184               110.0079               108.1656
 Raman Activ --     1.3108                 2.0380                 1.1212

                    43                     44                     45
                     A                      A                      A
 Frequencies --   702.9812               726.9581               744.3503
 Red. masses --     2.7646                 1.0922                 1.0742
 Frc consts  --     0.8050                 0.3401                 0.3507
 IR Inten    --    18.6661               136.1032               112.2904
 Raman Activ --     1.0695                 2.0424                 2.0403

                    46                     47                     48
                     A                      A                      A
 Frequencies --   766.1094               815.3202               854.5388
 Red. masses --     1.0537                 1.0751                 1.7767
 Frc consts  --     0.3644                 0.4211                 0.7644
 IR Inten    --    91.0424                77.5318                 2.7014
 Raman Activ --     1.6078                 0.3780                 1.4262

                    49                     50                     51
                     A                      A                      A
 Frequencies --   883.6581               938.2525               951.2876
 Red. masses --     1.6313                 5.6472                 5.4010
 Frc consts  --     0.7505                 2.9290                 2.8797
 IR Inten    --     6.7900               191.5117                25.0384
 Raman Activ --     0.7699                 3.5870                 0.2695

                    52                     53                     54
                     A                      A                      A
 Frequencies --   975.2176               994.1594               995.1592
 Red. masses --     4.2000                 4.4435                 4.4417
 Frc consts  --     2.3535                 2.5875                 2.5917
 IR Inten    --    77.7252                22.0064                52.6049
 Raman Activ --     0.6214                 4.2011                 1.5699

                    55                     56                     57
                     A                      A                      A
 Frequencies --  1015.5677              1023.4326              1038.6949
 Red. masses --     4.7149                 7.8648                 5.0611
 Frc consts  --     2.8651                 4.8535                 3.2171
 IR Inten    --    57.7757               171.4548                45.5006
 Raman Activ --     2.7357                 1.2137                 2.6503

                    58                     59                     60
                     A                      A                      A
 Frequencies --  1047.6692              1054.1208              1067.1641
 Red. masses --     3.5046                 2.3497                 2.9991
 Frc consts  --     2.2664                 1.5383                 2.0124
 IR Inten    --   529.5225                42.9110                69.6939
 Raman Activ --     1.9840                 5.8352                 5.0457

                    61                     62                     63
                     A                      A                      A
 Frequencies --  1072.0646              1081.8179              1086.7570
 Red. masses --     3.5644                 4.0664                 3.9642
 Frc consts  --     2.4137                 2.8040                 2.7585
 IR Inten    --    46.9913                 9.3359                30.0114
 Raman Activ --    12.0944                 4.2694                 6.7842

                    64                     65                     66
                     A                      A                      A
 Frequencies --  1091.4933              1094.5880              1103.2773
 Red. masses --     4.5804                 2.4128                 2.6809
 Frc consts  --     3.2151                 1.7032                 1.9226
 IR Inten    --   132.0283                 4.1332               105.1112
 Raman Activ --     1.6365                 3.2577                16.3414

                    67                     68                     69
                     A                      A                      A
 Frequencies --  1109.9245              1117.7138              1133.5578
 Red. masses --     1.9188                 3.2424                 2.3849
 Frc consts  --     1.3927                 2.3866                 1.8055
 IR Inten    --     5.5551               121.6416                60.9399
 Raman Activ --     9.4297                 7.2877                 8.3609

                    70                     71                     72
                     A                      A                      A
 Frequencies --  1147.9909              1149.1698              1159.6515
 Red. masses --     2.4617                 2.2967                 2.2652
 Frc consts  --     1.9114                 1.7870                 1.7948
 IR Inten    --    48.3358                49.6050                 2.5550
 Raman Activ --     1.5698                 3.8777                 2.5890

                    73                     74                     75
                     A                      A                      A
 Frequencies --  1167.1845              1173.1594              1179.4149
 Red. masses --     1.8517                 1.9644                 1.7063
 Frc consts  --     1.4863                 1.5930                 1.3984
 IR Inten    --     1.2217                20.1559                31.0014
 Raman Activ --     4.9015                 2.1325                 1.9179

                    76                     77                     78
                     A                      A                      A
 Frequencies --  1200.6074              1208.2547              1210.9117
 Red. masses --     1.5391                 1.5310                 1.3067
 Frc consts  --     1.3071                 1.3168                 1.1289
 IR Inten    --    16.3186                22.1713                22.5279
 Raman Activ --     3.2826                 1.7383                 1.1476

                    79                     80                     81
                     A                      A                      A
 Frequencies --  1230.5643              1246.8597              1255.3105
 Red. masses --     1.3592                 1.4207                 1.2255
 Frc consts  --     1.2127                 1.3013                 1.1378
 IR Inten    --     4.6893                44.1299                 3.4831
 Raman Activ --     4.5147                 5.7425                 2.2477

                    82                     83                     84
                     A                      A                      A
 Frequencies --  1261.8509              1267.5043              1282.4166
 Red. masses --     1.2838                 1.3159                 1.4089
 Frc consts  --     1.2044                 1.2456                 1.3652
 IR Inten    --    31.3492                 4.0455                17.6272
 Raman Activ --     1.1973                 2.1602                 3.7333

                    85                     86                     87
                     A                      A                      A
 Frequencies --  1286.0464              1295.4521              1297.5774
 Red. masses --     1.2277                 1.3071                 1.2806
 Frc consts  --     1.1963                 1.2924                 1.2704
 IR Inten    --    33.8191                10.1388                10.7141
 Raman Activ --     0.5894                 4.4535                 4.6645

                    88                     89                     90
                     A                      A                      A
 Frequencies --  1307.9749              1316.8872              1327.0985
 Red. masses --     1.1755                 1.3305                 1.1766
 Frc consts  --     1.1848                 1.3594                 1.2209
 IR Inten    --    28.5200                41.8591                42.2209
 Raman Activ --    13.1945                 6.4819                 5.5795

                    91                     92                     93
                     A                      A                      A
 Frequencies --  1340.1565              1346.8817              1350.4900
 Red. masses --     1.2851                 1.2772                 1.1810
 Frc consts  --     1.3599                 1.3651                 1.2691
 IR Inten    --    17.7900                30.4628                42.5732
 Raman Activ --     0.8550                 9.0987                 2.6315

                    94                     95                     96
                     A                      A                      A
 Frequencies --  1357.9543              1363.6445              1375.8780
 Red. masses --     1.5800                 1.6839                 1.4633
 Frc consts  --     1.7166                 1.8449                 1.6321
 IR Inten    --     5.5706                 9.8039                 4.2228
 Raman Activ --     4.1009                 6.6669                 8.0258

                    97                     98                     99
                     A                      A                      A
 Frequencies --  1389.0660              1404.8330              1413.1243
 Red. masses --     1.3131                 1.4552                 1.4745
 Frc consts  --     1.4928                 1.6921                 1.7348
 IR Inten    --     6.6073                 3.1126                40.1452
 Raman Activ --     3.4553                 6.0989                 1.5080

                   100                    101                    102
                     A                      A                      A
 Frequencies --  1426.2032              1433.0869              1447.9671
 Red. masses --     1.4607                 1.5293                 1.1173
 Frc consts  --     1.7506                 1.8505                 1.3802
 IR Inten    --    44.0787                40.2687                31.8772
 Raman Activ --     1.5778                 2.1890                 1.6102

                   103                    104                    105
                     A                      A                      A
 Frequencies --  1456.0378              1462.1483              1485.4945
 Red. masses --     1.4101                 1.3916                 1.0978
 Frc consts  --     1.7613                 1.7529                 1.4273
 IR Inten    --     3.5155                11.3598                 0.8690
 Raman Activ --     1.4790                 2.0969                 4.7581

                   106                    107                    108
                     A                      A                      A
 Frequencies --  1487.0720              1495.2728              3244.0789
 Red. masses --     1.0957                 1.2927                 1.0796
 Frc consts  --     1.4276                 1.7029                 6.6944
 IR Inten    --     7.7134                38.3491                47.2196
 Raman Activ --     4.3099                 2.2075               119.4080

                   109                    110                    111
                     A                      A                      A
 Frequencies --  3257.8767              3268.2074              3275.1364
 Red. masses --     1.0705                 1.0577                 1.0626
 Frc consts  --     6.6945                 6.6564                 6.7153
 IR Inten    --   635.3950                25.5819               105.4994
 Raman Activ --    96.2614                76.5385               217.4636

                   112                    113                    114
                     A                      A                      A
 Frequencies --  3279.2792              3285.0850              3286.2550
 Red. masses --     1.0762                 1.0804                 1.0819
 Frc consts  --     6.8185                 6.8695                 6.8840
 IR Inten    --   477.1189               303.5673                 8.7164
 Raman Activ --    87.0630                34.1771                68.2182

                   115                    116                    117
                     A                      A                      A
 Frequencies --  3294.3080              3296.2834              3306.4734
 Red. masses --     1.0789                 1.0860                 1.0860
 Frc consts  --     6.8984                 6.9522                 6.9951
 IR Inten    --   589.9072                 9.3030                 9.5500
 Raman Activ --   146.2914                 9.7265                84.8811

                   118                    119                    120
                     A                      A                      A
 Frequencies --  3309.9469              3311.0060              3322.2643
 Red. masses --     1.0883                 1.0870                 1.0883
 Frc consts  --     7.0247                 7.0207                 7.0773
 IR Inten    --    77.9404                 3.4491                21.7468
 Raman Activ --     9.4136                46.6925                71.1760

                   121                    122                    123
                     A                      A                      A
 Frequencies --  3325.2865              3326.8639              3334.7308
 Red. masses --     1.1048                 1.0930                 1.1025
 Frc consts  --     7.1975                 7.1276                 7.2236
 IR Inten    --    55.8419                35.2422                51.8769
 Raman Activ --    34.1133                33.9237                35.5615

                   124                    125                    126
                     A                      A                      A
 Frequencies --  3368.1539              3384.4995              3389.3825
 Red. masses --     1.0655                 1.0660                 1.0677
 Frc consts  --     7.1221                 7.1942                 7.2264
 IR Inten    --    42.5067                22.3950                41.2669
 Raman Activ --    98.1056               145.3572               183.4890

                   127                    128                    129
                     A                      A                      A
 Frequencies --  3399.3061              3920.4640              3920.6806
 Red. masses --     1.0672                 1.0679                 1.0675
 Frc consts  --     7.2656                 9.6703                 9.6684
 IR Inten    --    57.2147               109.9554                38.5718
 Raman Activ --   157.4180                52.1052               171.8322

 - Thermochemistry -
 -------------------
 Temperature   298.150 Kelvin.  Pressure   1.00000 Atm.
 Atom     1 has atomic number  8 and mass  15.99491

 Molecular mass:   342.11621 amu.
 Principal axes and moments of inertia in atomic units:
                           1         2         3
     Eigenvalues --  4284.11609********************
           X            0.99997   0.00816  -0.00009
           Y           -0.00815   0.99996   0.00290
           Z            0.00011  -0.00290   1.00000
 This molecule is an asymmetric top.
 Rotational symmetry number  1.
 Warning -- assumption of classical behavior for rotation
           may cause significant error
 Rotational temperatures (Kelvin)      0.02022     0.00702     0.00534
 Rotational constants (GHZ):           0.42126     0.14628     0.11123
    6 imaginary frequencies ignored.
 Zero-point vibrational energy     977660.9 (Joules/Mol)
                                  233.66656 (Kcal/Mol)
 Warning -- explicit consideration of  32 degrees of freedom as
           vibrations may cause significant error
 Vibrational temperatures:     14.47    55.46    63.51    95.30   119.55
          (Kelvin)            202.30   245.96   265.85   289.73   312.26
                              346.85   367.19   392.27   425.81   453.42
                              461.39   469.52   489.01   499.91   532.31
                              568.65   583.82   614.14   635.37   648.73
                              703.40   725.71   755.91   778.59   823.34
                              847.16   889.67   916.76   923.05   979.97
                              997.02  1011.43  1045.93  1070.95  1102.26
                             1173.06  1229.49  1271.39  1349.93  1368.69
                             1403.12  1430.37  1431.81  1461.17  1472.49
                             1494.45  1507.36  1516.64  1535.41  1542.46
                             1556.49  1563.60  1570.41  1574.87  1587.37
                             1596.93  1608.14  1630.93  1651.70  1653.40
                             1668.48  1679.32  1687.91  1696.91  1727.40
                             1738.41  1742.23  1770.51  1793.95  1806.11
                             1815.52  1823.65  1845.11  1850.33  1863.86
                             1866.92  1881.88  1894.70  1909.40  1928.18
                             1937.86  1943.05  1953.79  1961.98  1979.58
                             1998.55  2021.24  2033.17  2051.99  2061.89
                             2083.30  2094.91  2103.70  2137.29  2139.56
                             2151.36  4667.50  4687.35  4702.22  4712.18
                             4718.15  4726.50  4728.18  4739.77  4742.61
                             4757.27  4762.27  4763.79  4779.99  4784.34
                             4786.61  4797.93  4846.02  4869.53  4876.56
                             4890.84  5640.67  5640.98

 Zero-point correction=                           0.372371 (Hartree/Particle)
 Thermal correction to Energy=                    0.391414
 Thermal correction to Enthalpy=                  0.392358
 Thermal correction to Gibbs Free Energy=         0.323754
 Sum of electronic and zero-point Energies=          -1297.547572
 Sum of electronic and thermal Energies=             -1297.528530
 Sum of electronic and thermal Enthalpies=           -1297.527586
 Sum of electronic and thermal Free Energies=        -1297.596189

                     E (Thermal)             CV                S
                      KCal/Mol        Cal/Mol-Kelvin    Cal/Mol-Kelvin
 Total                  245.616             77.385            144.388
 Electronic               0.000              0.000              0.000
 Translational            0.889              2.981             43.384
 Rotational               0.889              2.981             35.105
 Vibrational            243.838             71.424             65.899
 Vibration     1          0.593              1.987              8.000
 Vibration     2          0.594              1.981              5.333
 Vibration     3          0.595              1.980              5.064
 Vibration     4          0.598              1.970              4.262
 Vibration     5          0.600              1.961              3.817
 Vibration     6          0.615              1.913              2.796
 Vibration     7          0.626              1.878              2.425
 Vibration     8          0.631              1.861              2.280
 Vibration     9          0.638              1.838              2.121
 Vibration    10          0.646              1.815              1.984
 Vibration    11          0.658              1.777              1.795
 Vibration    12          0.666              1.754              1.694
 Vibration    13          0.676              1.724              1.579
 Vibration    14          0.690              1.681              1.440
 Vibration    15          0.703              1.645              1.335
 Vibration    16          0.706              1.634              1.307
 Vibration    17          0.710              1.623              1.278
 Vibration    18          0.720              1.596              1.213
 Vibration    19          0.725              1.580              1.178
 Vibration    20          0.742              1.534              1.080
 Vibration    21          0.762              1.480              0.980
 Vibration    22          0.771              1.458              0.942
 Vibration    23          0.789              1.412              0.869
 Vibration    24          0.801              1.379              0.822
 Vibration    25          0.810              1.359              0.793
 Vibration    26          0.845              1.275              0.686
 Vibration    27          0.860              1.240              0.647
 Vibration    28          0.880              1.194              0.598
 Vibration    29          0.896              1.159              0.563
 Vibration    30          0.928              1.091              0.500
 Vibration    31          0.946              1.056              0.469
 Vibration    32          0.978              0.993              0.419

 Normal termination of Gaussian 09 at Thu Jan 21 18:05:45 2016.
