 Gaussian 09, Revision B.01,
 Gaussian 09:  EM64L-G09RevB.01 12-Aug-2010

 ------------------------------------------------
 # freq=raman b3lyp/6-31+g(d,p) geom=connectivity
 ------------------------------------------------

 ------------
 500 5000.com
 ------------
 Symbolic Z-matrix:
 Charge =  0 Multiplicity = 1

                         Standard orientation:
 ---------------------------------------------------------------------
 Center     Atomic      Atomic             Coordinates (Angstroms)
 Number     Number       Type             X           Y           Z
 ---------------------------------------------------------------------
      1          8           0        4.947459   -0.704293   -0.565975
      2          6           0        3.767310   -0.216785    0.088103
      3          6           0        3.323165    1.136543   -0.442031
      4          8           0        4.384888    2.073059   -0.207831
      5          1           0        5.230989    1.581209   -0.414508
      6          6           0        2.098693    1.614193    0.321318
      7          8           0        1.791881    2.976664   -0.009091
      8          1           0        2.586088    3.411644   -0.433237
      9          6           0        3.028946   -2.585571    0.313279
     10          8           0        1.834833   -3.378128    0.377568
     11          1           0        2.236610   -4.084379    0.960333
     12          6           0        2.698631   -1.229314   -0.288317
     13          8           0        1.550244   -0.736773    0.418028
     14          6           0        1.069576    0.546113   -0.008283
     15          8           0       -0.150411    0.747998    0.721116
     16          6           0       -1.245183    0.195238   -0.023817
     17          6           0       -1.776570   -1.213505    0.178271
     18          8           0       -0.866030   -2.058507   -0.540161
     19          1           0        0.063539   -2.042427   -0.169818
     20          6           0       -3.180286   -1.542483   -0.303476
     21          8           0       -3.592021   -2.761864    0.330575
     22          1           0       -3.073167   -3.512165   -0.079929
     23          6           0       -2.166296    2.658342   -0.066891
     24          8           0       -2.922958    3.760814    0.453690
     25          1           0       -2.369514    4.487367    0.046273
     26          6           0       -2.320591    1.203442    0.345489
     27          8           0       -3.492489    0.832974   -0.395156
     28          6           0       -4.122021   -0.391230    0.009915
     29          8           0       -5.366883   -0.661559   -0.651476
     30          1           0       -6.088793   -0.567164   -0.025747
     31          1           0       -4.291364   -0.359759    1.065960
     32          1           0       -3.157336   -1.692937   -1.362597
     33          1           0       -1.712944   -1.452128    1.219382
     34          1           0       -1.023652    0.311374   -1.064171
     35          1           0       -2.524509    1.145586    1.394283
     36          1           0       -2.313501    2.678209   -1.126531
     37          1           0       -1.138898    2.902763    0.105193
     38          1           0        5.666528   -0.755837    0.067967
     39          1           0        3.423340   -2.452841    1.299045
     40          1           0        3.754107   -3.080750   -0.298145
     41          1           0        2.535401   -1.277050   -1.344715
     42          1           0        3.904282   -0.185848    1.148849
     43          1           0        3.107730    1.073433   -1.488217
     44          1           0        0.872784    0.534881   -1.059971
     45          1           0        2.311944    1.563842    1.368643
 ---------------------------------------------------------------------

 SCF Done:  E(RB3LYP) =  -1297.92433939     A.U. after   13 cycles

 The electronic state is 1-A.
 Alpha  occ. eigenvalues --  -19.20807 -19.19557 -19.19342 -19.18889 -19.18812
 Alpha  occ. eigenvalues --  -19.17943 -19.16389 -19.15681 -19.15522 -19.15328
 Alpha  occ. eigenvalues --  -19.14359 -10.31434 -10.28934 -10.27803 -10.27165
 Alpha  occ. eigenvalues --  -10.27058 -10.26495 -10.26102 -10.24527 -10.24008
 Alpha  occ. eigenvalues --  -10.23762 -10.23719 -10.21846  -1.10554  -1.08309
 Alpha  occ. eigenvalues --   -1.06272  -1.05836  -1.05396  -1.03935  -1.02926
 Alpha  occ. eigenvalues --   -1.02246  -1.01584  -1.00738  -0.99920  -0.82671
 Alpha  occ. eigenvalues --   -0.81934  -0.78137  -0.77469  -0.72118  -0.69102
 Alpha  occ. eigenvalues --   -0.67315  -0.64385  -0.64201  -0.63648  -0.60757
 Alpha  occ. eigenvalues --   -0.59504  -0.57751  -0.55909  -0.55612  -0.54552
 Alpha  occ. eigenvalues --   -0.54019  -0.53244  -0.52651  -0.52230  -0.51493
 Alpha  occ. eigenvalues --   -0.50344  -0.49672  -0.48163  -0.47347  -0.46687
 Alpha  occ. eigenvalues --   -0.46320  -0.45613  -0.45011  -0.43907  -0.43504
 Alpha  occ. eigenvalues --   -0.42830  -0.41558  -0.40787  -0.40389  -0.39669
 Alpha  occ. eigenvalues --   -0.39478  -0.38650  -0.37917  -0.36876  -0.36343
 Alpha  occ. eigenvalues --   -0.36092  -0.34568  -0.34116  -0.33255  -0.32762
 Alpha  occ. eigenvalues --   -0.32520  -0.32328  -0.31103  -0.30762  -0.30173
 Alpha  occ. eigenvalues --   -0.29576  -0.28754  -0.28262  -0.27056  -0.26356
 Alpha  occ. eigenvalues --   -0.25408
 Alpha virt. eigenvalues --   -0.04151  -0.02642  -0.00968   0.00060   0.00717
 Alpha virt. eigenvalues --    0.00982   0.01654   0.01975   0.02769   0.03262
 Alpha virt. eigenvalues --    0.03735   0.04257   0.05110   0.05512   0.05649

 Mulliken atomic charges:
              1
     1  O   -0.553249
     2  C   -0.223627
     3  C   -0.009066
     4  O   -0.517065
     5  H    0.357203
     6  C   -0.348282
     7  O   -0.483640
     8  H    0.369276
     9  C   -0.145801
    10  O   -0.517646
    11  H    0.354334
    12  C    0.135801
    13  O   -0.421731
    14  C    0.760462
    15  O   -0.248529
    16  C   -0.138430
    17  C   -0.084398
    18  O   -0.564038
    19  H    0.428350
    20  C    0.025548
    21  O   -0.493765
    22  H    0.364712
    23  C   -0.189166
    24  O   -0.476330
    25  H    0.337043
    26  C    0.206662
    27  O   -0.300836
    28  C    0.211168
    29  O   -0.512921
    30  H    0.351903
    31  H    0.112283
    32  H    0.156650
    33  H    0.152623
    34  H    0.123676
    35  H    0.136213
    36  H    0.138086
    37  H    0.146967
    38  H    0.366672
    39  H    0.124270
    40  H    0.160935
    41  H    0.153169
    42  H    0.152175
    43  H    0.146981
    44  H    0.106205
    45  H    0.149155
 Sum of Mulliken atomic charges =   0.00000

 Dipole moment (field-independent basis, Debye):
    X=              9.3243    Y=             -2.2510    Z=              1.0641  Tot=              9.6510
 Quadrupole moment (field-independent basis, Debye-Ang):
   XX=           -122.5394   YY=           -138.2301   ZZ=           -139.3061
   XY=             -6.8847   XZ=             -0.0601   YZ=            -11.3048

  Exact polarizability: 218.397   1.885 197.423  -1.612  -0.824 141.097
 Approx polarizability: 257.775   1.210 253.091  -2.780   0.996 231.959

 ******    7 imaginary frequencies (negative Signs) ******

                     1                      2                      3
                     A                      A                      A
 Frequencies --  -317.4481              -306.6529              -224.9410
 Red. masses --     1.6026                 1.1741                 1.9911
 Frc consts  --     0.0952                 0.0650                 0.0594
 IR Inten    --    14.4941                92.4909                 2.5899
 Raman Activ --     0.2978                 0.9243                 0.1544

                     4                      5                      6
                     A                      A                      A
 Frequencies --  -187.5761               -81.7409               -65.4536
 Red. masses --     1.3013                 6.3148                 6.3296
 Frc consts  --     0.0270                 0.0249                 0.0160
 IR Inten    --   119.4723                 0.6623                 0.1668
 Raman Activ --     0.9196                 0.0303                 0.0519

                     7                      8                      9
                     A                      A                      A
 Frequencies --   -36.1518                33.2646                60.6016
 Red. masses --     6.0863                 6.6986                 6.3294
 Frc consts  --     0.0047                 0.0044                 0.0137
 IR Inten    --     0.8037                 1.1437                 0.9064
 Raman Activ --     0.0247                 0.0399                 0.0576

                    10                     11                     12
                     A                      A                      A
 Frequencies --    69.0408                91.0828               107.4042
 Red. masses --     5.8862                 6.3552                 5.5356
 Frc consts  --     0.0165                 0.0311                 0.0376
 IR Inten    --     3.2401                 0.5003                 4.1395
 Raman Activ --     0.1040                 0.0638                 0.2264

                    13                     14                     15
                     A                      A                      A
 Frequencies --   127.2907               156.9709               176.8484
 Red. masses --     5.8660                 5.7504                 5.6887
 Frc consts  --     0.0560                 0.0835                 0.1048
 IR Inten    --     0.8955                 2.0176                 1.5602
 Raman Activ --     0.1052                 0.9013                 0.4746

                    16                     17                     18
                     A                      A                      A
 Frequencies --   185.5998               210.3941               268.8563
 Red. masses --     5.8792                 6.3771                 4.1758
 Frc consts  --     0.1193                 0.1663                 0.1778
 IR Inten    --     3.8648                 3.4291                 7.8237
 Raman Activ --     0.4139                 1.7178                 0.1947

                    19                     20                     21
                     A                      A                      A
 Frequencies --   281.9737               284.3280               290.6034
 Red. masses --     5.8392                 3.8273                 6.3451
 Frc consts  --     0.2735                 0.1823                 0.3157
 IR Inten    --     4.4338                11.5160                 0.9873
 Raman Activ --     0.2923                 0.2392                 0.3195

                    22                     23                     24
                     A                      A                      A
 Frequencies --   299.7005               308.6104               318.0155
 Red. masses --     5.1993                 6.1868                 5.9743
 Frc consts  --     0.2752                 0.3472                 0.3560
 IR Inten    --     0.8467                 1.8805                 3.4439
 Raman Activ --     1.1536                 1.8557                 1.9638

                    25                     26                     27
                     A                      A                      A
 Frequencies --   351.0216               372.2925               388.6690
 Red. masses --     6.2158                 4.6348                 5.8520
 Frc consts  --     0.4512                 0.3785                 0.5209
 IR Inten    --     2.7405                 2.3316                 4.0418
 Raman Activ --     3.3878                 3.5900                 0.9822

                    28                     29                     30
                     A                      A                      A
 Frequencies --   411.4772               426.4266               443.3666
 Red. masses --     6.0021                 4.2043                 5.2857
 Frc consts  --     0.5988                 0.4504                 0.6122
 IR Inten    --     4.7126                 9.0053                 0.3096
 Raman Activ --     5.7589                 1.0106                 0.7998

                    31                     32                     33
                     A                      A                      A
 Frequencies --   454.6483               479.5132               489.8783
 Red. masses --     4.7969                 4.5158                 4.4571
 Frc consts  --     0.5842                 0.6118                 0.6302
 IR Inten    --     8.5679                 5.3852                 8.9028
 Raman Activ --     5.9311                 1.3870                 1.0803

                    34                     35                     36
                     A                      A                      A
 Frequencies --   537.5354               558.0694               579.5346
 Red. masses --     3.6669                 3.0733                 5.9385
 Frc consts  --     0.6243                 0.5639                 1.1751
 IR Inten    --    29.4788                 6.5064                 8.4161
 Raman Activ --     5.4912                 1.6067                 2.2487

                    37                     38                     39
                     A                      A                      A
 Frequencies --   590.1317               599.7424               639.5215
 Red. masses --     3.2534                 2.9928                 3.1966
 Frc consts  --     0.6675                 0.6342                 0.7703
 IR Inten    --    22.8069                15.7699                25.5527
 Raman Activ --     0.5608                 0.3262                 0.1802

                    40                     41                     42
                     A                      A                      A
 Frequencies --   652.7220               657.9942               666.2987
 Red. masses --     3.1127                 1.4167                 2.0472
 Frc consts  --     0.7813                 0.3614                 0.5355
 IR Inten    --    36.9654                78.9341                 7.5481
 Raman Activ --     0.6543                 1.2514                 1.0308

                    43                     44                     45
                     A                      A                      A
 Frequencies --   698.9092               702.6828               704.4301
 Red. masses --     1.1509                 1.2477                 1.1345
 Frc consts  --     0.3312                 0.3630                 0.3317
 IR Inten    --    54.9229                87.9922               188.0305
 Raman Activ --     0.9269                 2.2203                 1.6652

                    46                     47                     48
                     A                      A                      A
 Frequencies --   758.9369               766.6458               864.2640
 Red. masses --     1.0704                 1.0909                 2.4571
 Frc consts  --     0.3633                 0.3778                 1.0814
 IR Inten    --    89.9477               127.1983                14.3029
 Raman Activ --     1.3794                 3.1531                 1.5772

                    49                     50                     51
                     A                      A                      A
 Frequencies --   873.5593               959.0540               983.9474
 Red. masses --     2.2482                 5.7690                 4.9569
 Frc consts  --     1.0108                 3.1263                 2.8275
 IR Inten    --     7.4532               212.0674                87.6618
 Raman Activ --     5.5008                 1.4192                 0.8423

                    52                     53                     54
                     A                      A                      A
 Frequencies --   990.8226               996.8426               999.4755
 Red. masses --     4.9491                 5.1102                 5.4392
 Frc consts  --     2.8626                 2.9918                 3.2013
 IR Inten    --    51.8244               114.6837                65.0023
 Raman Activ --     2.7291                 1.5496                 4.3058

                    55                     56                     57
                     A                      A                      A
 Frequencies --  1001.5491              1013.1877              1032.1260
 Red. masses --     3.6575                 3.8206                 5.8739
 Frc consts  --     2.1616                 2.3108                 3.6867
 IR Inten    --    68.5277               105.6836               374.4690
 Raman Activ --     0.7918                 1.0647                 1.5487

                    58                     59                     60
                     A                      A                      A
 Frequencies --  1051.6589              1057.7770              1071.0813
 Red. masses --     2.3505                 2.4893                 4.3640
 Frc consts  --     1.5317                 1.6410                 2.9497
 IR Inten    --   104.8065                15.1341                83.3519
 Raman Activ --     0.7737                 6.8408                 6.7400

                    61                     62                     63
                     A                      A                      A
 Frequencies --  1080.3061              1083.1082              1087.4241
 Red. masses --     2.6896                 4.6105                 4.2984
 Frc consts  --     1.8494                 3.1867                 2.9947
 IR Inten    --    49.4098               129.7673               160.5396
 Raman Activ --     4.0425                24.2442                 4.8625

                    64                     65                     66
                     A                      A                      A
 Frequencies --  1093.3762              1098.4193              1105.0723
 Red. masses --     3.8884                 3.4817                 4.8527
 Frc consts  --     2.7388                 2.4750                 3.4915
 IR Inten    --    10.3010                80.4789                45.3272
 Raman Activ --     4.0670                 2.5963                 2.8282

                    67                     68                     69
                     A                      A                      A
 Frequencies --  1113.2176              1118.5597              1127.2109
 Red. masses --     3.0494                 2.7011                 1.9345
 Frc consts  --     2.2265                 1.9912                 1.4482
 IR Inten    --    14.8643                33.4270                 9.6632
 Raman Activ --     6.9326                 1.8463                 1.7356

                    70                     71                     72
                     A                      A                      A
 Frequencies --  1138.0623              1142.8821              1150.2663
 Red. masses --     2.4061                 1.9179                 1.6479
 Frc consts  --     1.8361                 1.4760                 1.2846
 IR Inten    --    38.3353                27.6243                18.8149
 Raman Activ --     5.5328                 4.0383                 1.3579

                    73                     74                     75
                     A                      A                      A
 Frequencies --  1154.4907              1166.0433              1183.2452
 Red. masses --     1.3401                 2.9522                 1.6857
 Frc consts  --     1.0524                 2.3650                 1.3905
 IR Inten    --    28.7657                24.3980                 1.6421
 Raman Activ --     4.6860                 4.9250                 1.2023

                    76                     77                     78
                     A                      A                      A
 Frequencies --  1192.5764              1200.3888              1231.0301
 Red. masses --     1.4961                 2.1341                 1.1958
 Frc consts  --     1.2537                 1.8118                 1.0677
 IR Inten    --     6.9790                 3.6597                13.7275
 Raman Activ --     1.2391                 1.9590                 0.3264

                    79                     80                     81
                     A                      A                      A
 Frequencies --  1235.5207              1240.1821              1251.0470
 Red. masses --     1.3439                 1.3409                 1.3084
 Frc consts  --     1.2087                 1.2151                 1.2065
 IR Inten    --     2.1560                11.3176                10.6605
 Raman Activ --     2.6897                 2.4294                 3.8015

                    82                     83                     84
                     A                      A                      A
 Frequencies --  1261.9321              1279.4469              1283.8634
 Red. masses --     1.2105                 1.4102                 1.3341
 Frc consts  --     1.1358                 1.3601                 1.2956
 IR Inten    --     1.4928                 3.2982                19.8180
 Raman Activ --     3.8753                 0.6110                 2.4682

                    85                     86                     87
                     A                      A                      A
 Frequencies --  1289.0130              1303.6375              1309.5447
 Red. masses --     1.3288                 1.2924                 1.3875
 Frc consts  --     1.3009                 1.2941                 1.4019
 IR Inten    --    12.1305                 9.9721                21.8290
 Raman Activ --     1.8055                 3.2176                 4.9730

                    88                     89                     90
                     A                      A                      A
 Frequencies --  1315.2869              1324.8159              1328.2688
 Red. masses --     1.3032                 1.2654                 1.3043
 Frc consts  --     1.3283                 1.3085                 1.3558
 IR Inten    --    22.5888                27.6478                40.8158
 Raman Activ --     4.3932                 5.1977                 6.2632

                    91                     92                     93
                     A                      A                      A
 Frequencies --  1340.2764              1343.5437              1358.6694
 Red. masses --     1.6926                 1.3699                 1.2412
 Frc consts  --     1.7914                 1.4569                 1.3500
 IR Inten    --     2.1504                26.1066                61.6103
 Raman Activ --     6.3009                 6.7943                 0.6443

                    94                     95                     96
                     A                      A                      A
 Frequencies --  1360.2599              1372.1542              1379.2956
 Red. masses --     1.1649                 1.4784                 1.4154
 Frc consts  --     1.2699                 1.6400                 1.5865
 IR Inten    --    17.2183                13.4614                17.7006
 Raman Activ --     7.0838                 2.8565                 2.0034

                    97                     98                     99
                     A                      A                      A
 Frequencies --  1379.6388              1408.1225              1414.8027
 Red. masses --     1.2855                 1.1963                 1.1167
 Frc consts  --     1.4416                 1.3975                 1.3170
 IR Inten    --     8.0422                42.4156                26.6400
 Raman Activ --     6.2123                 5.7114                 3.4246

                   100                    101                    102
                     A                      A                      A
 Frequencies --  1424.2955              1432.0459              1448.5142
 Red. masses --     1.4270                 1.5026                 1.4634
 Frc consts  --     1.7056                 1.8155                 1.8091
 IR Inten    --    17.0150                32.6928                44.7130
 Raman Activ --     4.7559                 0.9740                 6.6984

                   103                    104                    105
                     A                      A                      A
 Frequencies --  1450.1794              1475.8346              1476.1442
 Red. masses --     1.5215                 1.0932                 1.0762
 Frc consts  --     1.8852                 1.4029                 1.3817
 IR Inten    --    68.8401                 9.2340                 3.9021
 Raman Activ --     2.5591                 4.3803                 5.9975

                   106                    107                    108
                     A                      A                      A
 Frequencies --  1507.1583              1517.4022              3266.8067
 Red. masses --     1.3255                 1.2848                 1.0596
 Frc consts  --     1.7740                 1.7429                 6.6625
 IR Inten    --    18.6675                16.6727                26.4446
 Raman Activ --     1.2761                 2.3308                84.6193

                   109                    110                    111
                     A                      A                      A
 Frequencies --  3268.5593              3285.3998              3287.7275
 Red. masses --     1.0562                 1.0853                 1.0856
 Frc consts  --     6.6481                 6.9022                 6.9137
 IR Inten    --    44.4680                 0.7048                23.1566
 Raman Activ --    85.1967                 6.1728                58.4856

                   112                    113                    114
                     A                      A                      A
 Frequencies --  3292.9689              3294.7407              3296.9891
 Red. masses --     1.0840                 1.0840                 1.0839
 Frc consts  --     6.9257                 6.9330                 6.9420
 IR Inten    --     4.8678                 1.2128                 5.8327
 Raman Activ --    64.2813                14.1540               192.2293

                   115                    116                    117
                     A                      A                      A
 Frequencies --  3303.7705              3308.5626              3310.8578
 Red. masses --     1.0871                 1.0867                 1.0872
 Frc consts  --     6.9913                 7.0090                 7.0218
 IR Inten    --    14.2310                10.7929                 2.7689
 Raman Activ --    40.9771                27.6462                96.1459

                   118                    119                    120
                     A                      A                      A
 Frequencies --  3312.3416              3317.2397              3321.6291
 Red. masses --     1.0997                 1.0869                 1.0908
 Frc consts  --     7.1089                 7.0467                 7.0905
 IR Inten    --    22.3116                61.0654                34.0917
 Raman Activ --    33.8207                12.6603                10.8557

                   121                    122                    123
                     A                      A                      A
 Frequencies --  3334.6800              3360.6614              3379.0181
 Red. masses --     1.1046                 1.0670                 1.0656
 Frc consts  --     7.2370                 7.1003                 7.1682
 IR Inten    --    48.7844               359.2134                46.8643
 Raman Activ --    51.8764               188.1221               109.2403

                   124                    125                    126
                     A                      A                      A
 Frequencies --  3390.0362              3392.3513              3394.1783
 Red. masses --     1.0656                 1.0670                 1.0665
 Frc consts  --     7.2156                 7.2350                 7.2392
 IR Inten    --    36.2077                69.4465                43.4868
 Raman Activ --    87.7367                71.0018                96.2756

                   127                    128                    129
                     A                      A                      A
 Frequencies --  3397.7693              3914.0201              3919.0629
 Red. masses --     1.0649                 1.0677                 1.0677
 Frc consts  --     7.2436                 9.6367                 9.6616
 IR Inten    --    32.1489                59.3108                70.8915
 Raman Activ --   127.7255               106.3964               125.6911

 - Thermochemistry -
 -------------------
 Temperature   298.150 Kelvin.  Pressure   1.00000 Atm.
 Atom     1 has atomic number  8 and mass  15.99491

 Molecular mass:   342.11621 amu.
 Principal axes and moments of inertia in atomic units:
                           1         2         3
     Eigenvalues --  4758.12751********************
           X            0.99998  -0.00666  -0.00022
           Y            0.00666   0.99996  -0.00607
           Z            0.00026   0.00607   0.99998
 This molecule is an asymmetric top.
 Rotational symmetry number  1.
 Warning -- assumption of classical behavior for rotation
           may cause significant error
 Rotational temperatures (Kelvin)      0.01820     0.00752     0.00548
 Rotational constants (GHZ):           0.37930     0.15673     0.11428
    7 imaginary frequencies ignored.
 Zero-point vibrational energy     977482.6 (Joules/Mol)
                                  233.62394 (Kcal/Mol)
 Warning -- explicit consideration of  31 degrees of freedom as
           vibrations may cause significant error
 Vibrational temperatures:     47.86    87.19    99.33   131.05   154.53
          (Kelvin)            183.14   225.85   254.45   267.04   302.71
                              386.82   405.70   409.08   418.11   431.20
                              444.02   457.55   505.04   535.65   559.21
                              592.02   613.53   637.90   654.14   689.91
                              704.82   773.39   802.94   833.82   849.07
                              862.89   920.13   939.12   946.71   958.65
                             1005.57  1011.00  1013.52  1091.94  1103.03
                             1243.48  1256.86  1379.86  1415.68  1425.57
                             1434.23  1438.02  1441.00  1457.75  1485.00
                             1513.10  1521.90  1541.05  1554.32  1558.35
                             1564.56  1573.12  1580.38  1589.95  1601.67
                             1609.36  1621.80  1637.42  1644.35  1654.97
                             1661.05  1677.67  1702.42  1715.85  1727.09
                             1771.18  1777.64  1784.34  1799.98  1815.64
                             1840.84  1847.19  1854.60  1875.64  1884.14
                             1892.40  1906.11  1911.08  1928.36  1933.06
                             1954.82  1957.11  1974.22  1984.50  1984.99
                             2025.97  2035.58  2049.24  2060.39  2084.09
                             2086.48  2123.39  2123.84  2168.46  2183.20
                             4700.20  4702.72  4726.95  4730.30  4737.84
                             4740.39  4743.63  4753.38  4760.28  4763.58
                             4765.71  4772.76  4779.08  4797.85  4835.24
                             4861.65  4877.50  4880.83  4883.46  4888.63
                             5631.39  5638.65

 Zero-point correction=                           0.372303 (Hartree/Particle)
 Thermal correction to Energy=                    0.390825
 Thermal correction to Enthalpy=                  0.391769
 Thermal correction to Gibbs Free Energy=         0.325990
 Sum of electronic and zero-point Energies=          -1297.552036
 Sum of electronic and thermal Energies=             -1297.533515
 Sum of electronic and thermal Enthalpies=           -1297.532571
 Sum of electronic and thermal Free Energies=        -1297.598350

                     E (Thermal)             CV                S
                      KCal/Mol        Cal/Mol-Kelvin    Cal/Mol-Kelvin
 Total                  245.246             75.958            138.444
 Electronic               0.000              0.000              0.000
 Translational            0.889              2.981             43.384
 Rotational               0.889              2.981             35.113
 Vibrational            243.469             69.997             59.946
 Vibration     1          0.594              1.983              5.625
 Vibration     2          0.597              1.973              4.438
 Vibration     3          0.598              1.969              4.181
 Vibration     4          0.602              1.956              3.637
 Vibration     5          0.606              1.943              3.315
 Vibration     6          0.611              1.926              2.987
 Vibration     7          0.621              1.895              2.586
 Vibration     8          0.628              1.871              2.361
 Vibration     9          0.632              1.860              2.271
 Vibration    10          0.643              1.825              2.040
 Vibration    11          0.673              1.730              1.604
 Vibration    12          0.681              1.707              1.522
 Vibration    13          0.683              1.703              1.507
 Vibration    14          0.687              1.691              1.470
 Vibration    15          0.692              1.674              1.419
 Vibration    16          0.698              1.657              1.370
 Vibration    17          0.704              1.639              1.320
 Vibration    18          0.728              1.573              1.162
 Vibration    19          0.744              1.529              1.070
 Vibration    20          0.757              1.494              1.005
 Vibration    21          0.775              1.445              0.921
 Vibration    22          0.788              1.413              0.870
 Vibration    23          0.803              1.376              0.816
 Vibration    24          0.813              1.351              0.782
 Vibration    25          0.836              1.295              0.711
 Vibration    26          0.846              1.272              0.684
 Vibration    27          0.893              1.167              0.571
 Vibration    28          0.914              1.122              0.528
 Vibration    29          0.936              1.076              0.486
 Vibration    30          0.947              1.053              0.467
 Vibration    31          0.958              1.032              0.450

 Normal termination of Gaussian 09 at Tue Mar  1 16:40:40 2016.
