 Gaussian 09, Revision B.01,
 Gaussian 09:  EM64L-G09RevB.01 12-Aug-2010

 -------------------------------------------------
 # freq=raman b3lyp/6-31+g(2d,p) geom=connectivity
 -------------------------------------------------

 -----------------
 280 9818/9818.com
 -----------------
 Symbolic Z-matrix:
 Charge =  0 Multiplicity = 1

                         Standard orientation:
 ---------------------------------------------------------------------
 Center     Atomic      Atomic             Coordinates (Angstroms)
 Number     Number       Type             X           Y           Z
 ---------------------------------------------------------------------
      1          8           0        4.981177   -0.619839   -0.222192
      2          6           0        3.713505   -0.219914    0.318015
      3          6           0        3.382565    1.209040   -0.079964
      4          8           0        4.314454    2.174812    0.427933
      5          1           0        5.236609    1.944074    0.115096
      6          6           0        1.958993    1.602173    0.277974
      7          8           0        1.564718    2.834404   -0.343657
      8          1           0        0.636376    3.085295   -0.068431
      9          6           0        2.921969   -2.602324   -0.086780
     10          8           0        4.053901   -3.342089   -0.567216
     11          1           0        3.821281   -4.315082   -0.551997
     12          6           0        2.649354   -1.120323   -0.287629
     13          8           0        1.405211   -0.666692    0.262383
     14          6           0        0.915548    0.602733   -0.194035
     15          8           0       -0.336665    0.642927    0.506489
     16          6           0       -1.529938    0.230528   -0.175625
     17          6           0       -2.038264   -1.058632    0.449611
     18          8           0       -0.993936   -2.006256    0.180233
     19          1           0       -0.093885   -1.577676    0.101589
     20          6           0       -3.364288   -1.568117   -0.090075
     21          8           0       -3.790213   -2.736730    0.626773
     22          1           0       -4.747560   -2.978939    0.471852
     23          6           0       -2.382087    2.650172   -0.353411
     24          8           0       -1.224624    3.336375    0.144277
     25          1           0       -1.336368    4.330503    0.148061
     26          6           0       -2.664935    1.214571    0.057992
     27          8           0       -3.946788    0.767493   -0.406306
     28          6           0       -4.363866   -0.461995    0.204891
     29          8           0       -5.496444   -0.686349   -0.648792
     30          1           0        5.591114   -0.804405    0.495800
     31          1           0       -6.281750   -0.814097   -0.111601
     32          1           0       -3.235982    3.231041   -0.073493
     33          1           0       -2.320374    2.664333   -1.421536
     34          1           0       -2.764532    1.256110    1.122536
     35          1           0       -1.347447    0.100092   -1.221849
     36          1           0       -2.122287   -0.923234    1.507679
     37          1           0       -3.303913   -1.760680   -1.140871
     38          1           0       -4.621334   -0.364429    1.238860
     39          1           0        2.919484   -2.748086    0.973242
     40          1           0        2.066524   -3.103231   -0.489527
     41          1           0        2.626643   -0.935727   -1.341341
     42          1           0        3.717463   -0.316525    1.383637
     43          1           0        3.451655    1.250670   -1.146919
     44          1           0        1.884373    1.708194    1.340091
     45          1           0        0.786229    0.619857   -1.256053
 ---------------------------------------------------------------------

 SCF Done:  E(RB3LYP) =  -1297.96257713     A.U. after   13 cycles

 The electronic state is 1-A.
 Alpha  occ. eigenvalues --  -19.18355 -19.18202 -19.17987 -19.17735 -19.17454
 Alpha  occ. eigenvalues --  -19.16466 -19.16115 -19.16007 -19.15490 -19.13649
 Alpha  occ. eigenvalues --  -19.12235 -10.30945 -10.30476 -10.25560 -10.25553
 Alpha  occ. eigenvalues --  -10.25360 -10.25095 -10.24747 -10.24672 -10.24580
 Alpha  occ. eigenvalues --  -10.24447 -10.24009 -10.23784  -1.10297  -1.09336
 Alpha  occ. eigenvalues --   -1.05083  -1.04680  -1.03619  -1.02986  -1.02477
 Alpha  occ. eigenvalues --   -1.02110  -1.02016  -1.00466  -0.99400  -0.82161
 Alpha  occ. eigenvalues --   -0.80059  -0.79021  -0.78348  -0.72106  -0.70066
 Alpha  occ. eigenvalues --   -0.67319  -0.64884  -0.62843  -0.62369  -0.61655
 Alpha  occ. eigenvalues --   -0.60429  -0.56517  -0.55792  -0.55000  -0.54682
 Alpha  occ. eigenvalues --   -0.53429  -0.53200  -0.52958  -0.51689  -0.51078
 Alpha  occ. eigenvalues --   -0.50530  -0.50134  -0.49173  -0.48725  -0.46652
 Alpha  occ. eigenvalues --   -0.46367  -0.45133  -0.44334  -0.43677  -0.42876
 Alpha  occ. eigenvalues --   -0.42481  -0.41883  -0.41326  -0.40247  -0.38752
 Alpha  occ. eigenvalues --   -0.38273  -0.37975  -0.37029  -0.35809  -0.35646
 Alpha  occ. eigenvalues --   -0.35038  -0.34382  -0.34037  -0.33545  -0.32892
 Alpha  occ. eigenvalues --   -0.32474  -0.30859  -0.30469  -0.30023  -0.29851
 Alpha  occ. eigenvalues --   -0.29016  -0.28435  -0.28187  -0.27476  -0.26309
 Alpha  occ. eigenvalues --   -0.25557
 Alpha virt. eigenvalues --   -0.02071  -0.01994  -0.01718  -0.00178   0.00240
 Alpha virt. eigenvalues --    0.00867   0.01857   0.02169   0.03225   0.03542
 Alpha virt. eigenvalues --    0.03641   0.04087   0.04537   0.05343   0.05654

 Mulliken atomic charges:
              1
     1  O   -0.544400
     2  C    0.035084
     3  C    0.171184
     4  O   -0.560019
     5  H    0.341131
     6  C   -0.040817
     7  O   -0.566970
     8  H    0.393837
     9  C   -0.294974
    10  O   -0.508766
    11  H    0.339576
    12  C    0.211858
    13  O   -0.246731
    14  C    0.048837
    15  O   -0.170226
    16  C    0.206623
    17  C    0.277179
    18  O   -0.611588
    19  H    0.398614
    20  C    0.099851
    21  O   -0.549044
    22  H    0.331454
    23  C   -0.339852
    24  O   -0.565843
    25  H    0.366961
    26  C   -0.085396
    27  O   -0.251183
    28  C    0.124444
    29  O   -0.514649
    30  H    0.336241
    31  H    0.325235
    32  H    0.143337
    33  H    0.150453
    34  H    0.110848
    35  H    0.117272
    36  H    0.128965
    37  H    0.138357
    38  H    0.144198
    39  H    0.137639
    40  H    0.145664
    41  H    0.111452
    42  H    0.121792
    43  H    0.121941
    44  H    0.136367
    45  H    0.134064
 Sum of Mulliken atomic charges =   0.00000

 Dipole moment (field-independent basis, Debye):
    X=             -2.7795    Y=              0.4663    Z=              1.3500  Tot=              3.1250
 Quadrupole moment (field-independent basis, Debye-Ang):
   XX=           -117.1672   YY=           -134.3527   ZZ=           -139.4096
   XY=            -12.1242   XZ=             -2.1325   YZ=              0.2901

  Exact polarizability: 236.068   2.596 198.950   0.045  -0.791 144.403
 Approx polarizability: 277.113   1.720 256.762  -1.456  -0.663 240.259

 ******    7 imaginary frequencies (negative Signs) ******

                     1                      2                      3
                     A                      A                      A
 Frequencies --  -353.1540              -297.0161              -264.7185
 Red. masses --     1.6467                 1.7367                 1.1798
 Frc consts  --     0.1210                 0.0903                 0.0487
 IR Inten    --     3.6258                 2.4710                96.6773
 Raman Activ --     0.0470                 0.0542                 0.9614

                     4                      5                      6
                     A                      A                      A
 Frequencies --  -238.7151               -74.3515               -57.2339
 Red. masses --     1.1678                 7.3208                 5.9212
 Frc consts  --     0.0392                 0.0238                 0.0114
 IR Inten    --   106.7253                 1.9652                 0.9694
 Raman Activ --     0.9933                 0.0356                 0.0585

                     7                      8                      9
                     A                      A                      A
 Frequencies --   -22.0561                48.2150                66.1715
 Red. masses --     6.2862                 6.6957                 5.9937
 Frc consts  --     0.0018                 0.0092                 0.0155
 IR Inten    --     1.1482                 0.5149                 1.1807
 Raman Activ --     0.0345                 0.0279                 0.2965

                    10                     11                     12
                     A                      A                      A
 Frequencies --    81.2933                88.9800                98.9143
 Red. masses --     7.3901                 6.4721                 6.1257
 Frc consts  --     0.0288                 0.0302                 0.0353
 IR Inten    --     0.3227                 3.0932                 0.6590
 Raman Activ --     0.0778                 0.0368                 0.0780

                    13                     14                     15
                     A                      A                      A
 Frequencies --   139.2975               168.6933               183.5154
 Red. masses --     6.0790                 5.9327                 6.8638
 Frc consts  --     0.0695                 0.0995                 0.1362
 IR Inten    --     3.8001                 2.3429                 0.0286
 Raman Activ --     0.5325                 0.0647                 1.9564

                    16                     17                     18
                     A                      A                      A
 Frequencies --   188.6302               230.3008               258.8339
 Red. masses --     7.6475                 6.0280                 4.5532
 Frc consts  --     0.1603                 0.1884                 0.1797
 IR Inten    --     1.6174                 2.5762                18.0414
 Raman Activ --     0.7090                 0.6333                 0.4527

                    19                     20                     21
                     A                      A                      A
 Frequencies --   272.5842               282.3903               295.2341
 Red. masses --     4.8213                 5.3130                 5.5773
 Frc consts  --     0.2111                 0.2496                 0.2864
 IR Inten    --     0.4895                 0.3901                 5.7442
 Raman Activ --     0.2151                 0.1461                 0.4912

                    22                     23                     24
                     A                      A                      A
 Frequencies --   306.3748               314.5146               321.0888
 Red. masses --     5.5823                 5.9765                 6.7216
 Frc consts  --     0.3087                 0.3483                 0.4083
 IR Inten    --     3.7242                 0.9027                11.3251
 Raman Activ --     2.2302                 2.2800                 4.0737

                    25                     26                     27
                     A                      A                      A
 Frequencies --   324.3548               362.3791               382.3306
 Red. masses --     5.4156                 5.2619                 6.8614
 Frc consts  --     0.3357                 0.4071                 0.5909
 IR Inten    --     0.4225                 6.9764                 0.5949
 Raman Activ --     4.2582                 0.4512                 0.8063

                    28                     29                     30
                     A                      A                      A
 Frequencies --   405.0613               411.6873               435.4625
 Red. masses --     3.9155                 6.2019                 5.4547
 Frc consts  --     0.3785                 0.6193                 0.6094
 IR Inten    --    23.7571                 7.1523                 1.1701
 Raman Activ --     2.8368                 4.3131                 3.8752

                    31                     32                     33
                     A                      A                      A
 Frequencies --   449.4444               476.6900               485.5430
 Red. masses --     4.5609                 5.0430                 3.9265
 Frc consts  --     0.5428                 0.6752                 0.5454
 IR Inten    --     1.4287                 2.1162                13.5876
 Raman Activ --     1.5698                 3.5979                 0.8504

                    34                     35                     36
                     A                      A                      A
 Frequencies --   523.1719               526.5535               574.8816
 Red. masses --     4.1050                 3.0978                 3.4855
 Frc consts  --     0.6620                 0.5060                 0.6787
 IR Inten    --    17.8602                 6.9465                33.3312
 Raman Activ --     0.9516                 4.0089                 0.9558

                    37                     38                     39
                     A                      A                      A
 Frequencies --   593.4145               609.2240               626.4286
 Red. masses --     3.0016                 5.8501                 4.1640
 Frc consts  --     0.6228                 1.2793                 0.9627
 IR Inten    --    22.7791                 4.7166                 2.0886
 Raman Activ --     0.7879                 0.3692                 0.3012

                    40                     41                     42
                     A                      A                      A
 Frequencies --   643.4567               669.5900               684.2318
 Red. masses --     6.0490                 1.0933                 1.0907
 Frc consts  --     1.4756                 0.2888                 0.3009
 IR Inten    --    35.3647                94.3757               102.2571
 Raman Activ --     1.4325                 1.6557                 1.2741

                    43                     44                     45
                     A                      A                      A
 Frequencies --   686.8575               695.0480               735.0334
 Red. masses --     1.0501                 4.7214                 1.0606
 Frc consts  --     0.2919                 1.3438                 0.3376
 IR Inten    --   113.1575                 4.5820                98.1452
 Raman Activ --     2.2858                 1.7311                 1.8367

                    46                     47                     48
                     A                      A                      A
 Frequencies --   778.2537               799.7228               839.1302
 Red. masses --     1.0713                 1.0764                 1.8215
 Frc consts  --     0.3823                 0.4056                 0.7557
 IR Inten    --    38.9390               101.1824                 4.3872
 Raman Activ --     0.5755                 1.3469                 0.5020

                    49                     50                     51
                     A                      A                      A
 Frequencies --   862.0764               895.3001               941.8481
 Red. masses --     1.7163                 5.8632                 5.6371
 Frc consts  --     0.7515                 2.7690                 2.9463
 IR Inten    --     2.4661               158.7628                86.7430
 Raman Activ --     0.9587                 3.0113                 1.1251

                    52                     53                     54
                     A                      A                      A
 Frequencies --   970.8689               980.0836               985.0870
 Red. masses --     4.9499                 5.3133                 6.9273
 Frc consts  --     2.7490                 3.0070                 3.9606
 IR Inten    --    50.5430                91.4989                18.4507
 Raman Activ --     1.5948                 3.0095                 3.6571

                    55                     56                     57
                     A                      A                      A
 Frequencies --   989.9955              1004.1303              1015.3489
 Red. masses --     6.5820                 6.3684                 5.6923
 Frc consts  --     3.8008                 3.7832                 3.4576
 IR Inten    --   455.6979                17.0306                80.6308
 Raman Activ --     3.2459                 1.7556                 2.5186

                    58                     59                     60
                     A                      A                      A
 Frequencies --  1032.4473              1043.9042              1061.0532
 Red. masses --     5.6357                 4.8236                 2.9050
 Frc consts  --     3.5394                 3.0970                 1.9270
 IR Inten    --   289.0466               127.1133                26.3284
 Raman Activ --     3.6861                 2.7953                14.7045

                    61                     62                     63
                     A                      A                      A
 Frequencies --  1064.1856              1075.9714              1078.4346
 Red. masses --     3.2966                 4.9376                 4.1156
 Frc consts  --     2.1996                 3.3680                 2.8201
 IR Inten    --    35.4080                31.4891                83.7546
 Raman Activ --     4.4511                 4.7562                11.8468

                    64                     65                     66
                     A                      A                      A
 Frequencies --  1083.8505              1094.1559              1099.7417
 Red. masses --     2.4150                 2.7550                 3.1322
 Frc consts  --     1.6715                 1.9432                 2.2319
 IR Inten    --   127.6179                 6.3909                28.5778
 Raman Activ --     4.3358                10.6108                11.0196

                    67                     68                     69
                     A                      A                      A
 Frequencies --  1110.0132              1115.7981              1121.6770
 Red. masses --     2.4979                 2.2856                 2.6428
 Frc consts  --     1.8134                 1.6766                 1.9591
 IR Inten    --    33.2116                16.6881                42.8644
 Raman Activ --     1.7784                 1.3047                 3.6531

                    70                     71                     72
                     A                      A                      A
 Frequencies --  1127.3876              1142.2991              1148.5849
 Red. masses --     2.1752                 2.0225                 2.1753
 Frc consts  --     1.6289                 1.5549                 1.6908
 IR Inten    --    34.0565                 1.3472                 7.8180
 Raman Activ --     5.8409                11.0433                 1.7878

                    73                     74                     75
                     A                      A                      A
 Frequencies --  1163.0624              1177.3017              1181.4436
 Red. masses --     2.2479                 1.6614                 1.5349
 Frc consts  --     1.7916                 1.3567                 1.2623
 IR Inten    --     5.7529                 2.9121                16.3663
 Raman Activ --     3.5362                 3.6700                 2.5288

                    76                     77                     78
                     A                      A                      A
 Frequencies --  1195.9170              1198.5388              1217.5368
 Red. masses --     1.5083                 1.3687                 1.3441
 Frc consts  --     1.2710                 1.1584                 1.1740
 IR Inten    --     4.6106                14.0405                13.5280
 Raman Activ --     1.9674                 1.6603                 0.8439

                    79                     80                     81
                     A                      A                      A
 Frequencies --  1220.9426              1228.1609              1243.1509
 Red. masses --     1.3011                 1.2549                 1.3494
 Frc consts  --     1.1427                 1.1153                 1.2287
 IR Inten    --     7.5291                 1.3388                47.4402
 Raman Activ --     0.0833                 1.8873                 2.0319

                    82                     83                     84
                     A                      A                      A
 Frequencies --  1262.2405              1268.5322              1286.4623
 Red. masses --     1.2357                 1.4537                 1.2527
 Frc consts  --     1.1600                 1.3783                 1.2215
 IR Inten    --    15.5038                27.6465                 1.2277
 Raman Activ --     0.8109                 3.0479                 1.7927

                    85                     86                     87
                     A                      A                      A
 Frequencies --  1290.6121              1304.9069              1308.3905
 Red. masses --     1.2993                 1.3856                 1.2752
 Frc consts  --     1.2751                 1.3901                 1.2862
 IR Inten    --    21.5751                30.5377                16.3349
 Raman Activ --     5.4450                 6.1243                 6.2263

                    88                     89                     90
                     A                      A                      A
 Frequencies --  1312.9477              1316.0587              1317.9785
 Red. masses --     1.2343                 1.2567                 1.2645
 Frc consts  --     1.2536                 1.2824                 1.2942
 IR Inten    --    53.5013                 9.9436                 5.6426
 Raman Activ --     5.4234                 7.0900                 2.6516

                    91                     92                     93
                     A                      A                      A
 Frequencies --  1327.5464              1345.7651              1354.4912
 Red. masses --     1.2144                 1.2958                 1.3499
 Frc consts  --     1.2610                 1.3827                 1.4592
 IR Inten    --    11.1329                20.3152                51.5349
 Raman Activ --     2.9041                 1.3181                 5.4614

                    94                     95                     96
                     A                      A                      A
 Frequencies --  1357.3175              1365.4468              1371.3963
 Red. masses --     1.4274                 1.2159                 1.3135
 Frc consts  --     1.5494                 1.3356                 1.4555
 IR Inten    --     6.2885                31.3816                 9.2681
 Raman Activ --     5.8275                 1.4823                 6.6739

                    97                     98                     99
                     A                      A                      A
 Frequencies --  1375.4027              1390.4068              1396.6619
 Red. masses --     1.2689                 1.5747                 1.5417
 Frc consts  --     1.4143                 1.7936                 1.7719
 IR Inten    --     9.2054                34.6968                 5.3664
 Raman Activ --     9.4619                 2.0787                 1.5049

                   100                    101                    102
                     A                      A                      A
 Frequencies --  1402.9349              1427.1133              1447.5634
 Red. masses --     1.5195                 1.3886                 1.4508
 Frc consts  --     1.7621                 1.6662                 1.7912
 IR Inten    --     4.5511                29.9699                16.9464
 Raman Activ --     3.9782                 1.5865                 0.6580

                   103                    104                    105
                     A                      A                      A
 Frequencies --  1459.3356              1473.0306              1475.5529
 Red. masses --     1.0918                 1.0807                 1.3259
 Frc consts  --     1.3700                 1.3816                 1.7009
 IR Inten    --     7.8632                 2.7339                21.2868
 Raman Activ --     5.6457                 4.8465                 1.0764

                   106                    107                    108
                     A                      A                      A
 Frequencies --  1483.2845              1506.6174              3246.3630
 Red. masses --     1.3085                 1.2190                 1.0598
 Frc consts  --     1.6962                 1.6302                 6.5810
 IR Inten    --    30.1949                54.0269                22.4878
 Raman Activ --     1.7467                 3.8869                61.0203

                   109                    110                    111
                     A                      A                      A
 Frequencies --  3248.1112              3252.3484              3258.0444
 Red. masses --     1.0749                 1.0713                 1.0619
 Frc consts  --     6.6814                 6.6766                 6.6412
 IR Inten    --   132.2083               602.5793                67.7448
 Raman Activ --    46.2923               300.6871                37.7548

                   112                    113                    114
                     A                      A                      A
 Frequencies --  3266.9108              3273.1715              3282.0503
 Red. masses --     1.0823                 1.0816                 1.0826
 Frc consts  --     6.8060                 6.8272                 6.8711
 IR Inten    --     8.4245                 9.2248                26.6007
 Raman Activ --     4.1614               205.8933                50.8757

                   115                    116                    117
                     A                      A                      A
 Frequencies --  3287.9714              3293.9437              3296.5786
 Red. masses --     1.0842                 1.0869                 1.0877
 Frc consts  --     6.9056                 6.9480                 6.9645
 IR Inten    --    21.5596                12.0631                 9.1145
 Raman Activ --    44.8268                15.9983                63.1447

                   118                    119                    120
                     A                      A                      A
 Frequencies --  3300.2723              3300.5855              3303.5201
 Red. masses --     1.0869                 1.0728                 1.0925
 Frc consts  --     6.9751                 6.8859                 7.0245
 IR Inten    --     4.4611               563.6649                67.0217
 Raman Activ --   134.8737               100.1475                58.8778

                   121                    122                    123
                     A                      A                      A
 Frequencies --  3306.9691              3309.7993              3312.4235
 Red. masses --     1.0935                 1.1008                 1.0905
 Frc consts  --     7.0458                 7.1049                 7.0495
 IR Inten    --    79.8336                35.2180                95.4595
 Raman Activ --    26.1791                30.4690                15.7830

                   124                    125                    126
                     A                      A                      A
 Frequencies --  3360.8002              3362.6657              3365.5472
 Red. masses --     1.0679                 1.0661                 1.0680
 Frc consts  --     7.1066                 7.1023                 7.1277
 IR Inten    --    51.6021                41.6825                67.6525
 Raman Activ --   142.6831               142.4494               147.5904

                   127                    128                    129
                     A                      A                      A
 Frequencies --  3370.4219              3889.1269              3889.4920
 Red. masses --     1.0666                 1.0676                 1.0673
 Frc consts  --     7.1387                 9.5136                 9.5135
 IR Inten    --    32.4457                78.1199                43.3697
 Raman Activ --   175.4056                81.6509               155.8152

 - Thermochemistry -
 -------------------
 Temperature   298.150 Kelvin.  Pressure   1.00000 Atm.
 Atom     1 has atomic number  8 and mass  15.99491

 Molecular mass:   342.11621 amu.
 Principal axes and moments of inertia in atomic units:
                           1         2         3
     Eigenvalues --  4469.38802********************
           X            0.99997  -0.00712  -0.00075
           Y            0.00712   0.99997  -0.00146
           Z            0.00076   0.00145   1.00000
 This molecule is an asymmetric top.
 Rotational symmetry number  1.
 Warning -- assumption of classical behavior for rotation
           may cause significant error
 Rotational temperatures (Kelvin)      0.01938     0.00696     0.00526
 Rotational constants (GHZ):           0.40380     0.14497     0.10952
    7 imaginary frequencies ignored.
 Zero-point vibrational energy     970999.2 (Joules/Mol)
                                  232.07438 (Kcal/Mol)
 Warning -- explicit consideration of  31 degrees of freedom as
           vibrations may cause significant error
 Vibrational temperatures:     69.37    95.21   116.96   128.02   142.32
          (Kelvin)            200.42   242.71   264.04   271.40   331.35
                              372.40   392.19   406.30   424.78   440.80
                              452.52   461.97   466.67   521.38   550.09
                              582.79   592.33   626.53   646.65   685.85
                              698.59   752.73   757.59   827.13   853.79
                              876.54   901.29   925.79   963.39   984.46
                              988.23  1000.02  1057.55  1119.73  1150.62
                             1207.32  1240.33  1288.14  1355.11  1396.86
                             1410.12  1417.32  1424.38  1444.72  1460.86
                             1485.46  1501.94  1526.62  1531.12  1548.08
                             1551.62  1559.42  1574.24  1582.28  1597.06
                             1605.38  1613.84  1622.06  1643.51  1652.56
                             1673.39  1693.87  1699.83  1720.66  1724.43
                             1751.76  1756.66  1767.05  1788.61  1816.08
                             1825.13  1850.93  1856.90  1877.47  1882.48
                             1889.04  1893.51  1896.27  1910.04  1936.25
                             1948.81  1952.87  1964.57  1973.13  1978.90
                             2000.48  2009.48  2018.51  2053.30  2082.72
                             2099.66  2119.36  2122.99  2134.11  2167.68
                             4670.79  4673.30  4679.40  4687.59  4700.35
                             4709.36  4722.13  4730.65  4739.24  4743.04
                             4748.35  4748.80  4753.02  4757.98  4762.06
                             4765.83  4835.44  4838.12  4842.27  4849.28
                             5595.58  5596.10

 Zero-point correction=                           0.369834 (Hartree/Particle)
 Thermal correction to Energy=                    0.388371
 Thermal correction to Enthalpy=                  0.389316
 Thermal correction to Gibbs Free Energy=         0.324015
 Sum of electronic and zero-point Energies=          -1297.592743
 Sum of electronic and thermal Energies=             -1297.574206
 Sum of electronic and thermal Enthalpies=           -1297.573262
 Sum of electronic and thermal Free Energies=        -1297.638563

                     E (Thermal)             CV                S
                      KCal/Mol        Cal/Mol-Kelvin    Cal/Mol-Kelvin
 Total                  243.707             76.487            137.438
 Electronic               0.000              0.000              0.000
 Translational            0.889              2.981             43.384
 Rotational               0.889              2.981             35.171
 Vibrational            241.929             70.526             58.882
 Vibration     1          0.595              1.978              4.889
 Vibration     2          0.598              1.970              4.264
 Vibration     3          0.600              1.962              3.859
 Vibration     4          0.602              1.957              3.682
 Vibration     5          0.604              1.950              3.476
 Vibration     6          0.615              1.914              2.814
 Vibration     7          0.625              1.881              2.450
 Vibration     8          0.631              1.862              2.292
 Vibration     9          0.633              1.855              2.241
 Vibration    10          0.652              1.795              1.877
 Vibration    11          0.668              1.748              1.670
 Vibration    12          0.676              1.724              1.580
 Vibration    13          0.681              1.706              1.519
 Vibration    14          0.689              1.683              1.444
 Vibration    15          0.697              1.662              1.382
 Vibration    16          0.702              1.646              1.338
 Vibration    17          0.707              1.633              1.305
 Vibration    18          0.709              1.627              1.288
 Vibration    19          0.736              1.550              1.112
 Vibration    20          0.752              1.508              1.030
 Vibration    21          0.770              1.459              0.944
 Vibration    22          0.776              1.445              0.921
 Vibration    23          0.796              1.393              0.841
 Vibration    24          0.808              1.362              0.797
 Vibration    25          0.833              1.302              0.719
 Vibration    26          0.842              1.282              0.695
 Vibration    27          0.878              1.199              0.603
 Vibration    28          0.882              1.191              0.595
 Vibration    29          0.931              1.086              0.495
 Vibration    30          0.951              1.046              0.461
 Vibration    31          0.968              1.012              0.434

 Normal termination of Gaussian 09 at Mon Mar 21 23:01:50 2016.
