 Gaussian 09, Revision B.01,
 Gaussian 09:  EM64L-G09RevB.01 12-Aug-2010

 -------------------------------------------------
 # freq=raman b3lyp/6-31+g(2d,p) geom=connectivity
 -------------------------------------------------

 -----------------
 290 7974/7974.com
 -----------------
 Symbolic Z-matrix:
 Charge =  0 Multiplicity = 1

                         Standard orientation:
 ---------------------------------------------------------------------
 Center     Atomic      Atomic             Coordinates (Angstroms)
 Number     Number       Type             X           Y           Z
 ---------------------------------------------------------------------
      1          8           0       -5.016462   -0.254787    0.589117
      2          6           0       -3.805895   -0.077511   -0.160682
      3          6           0       -3.215734    1.238313    0.318502
      4          8           0       -4.168692    2.308910    0.398012
      5          1           0       -5.042475    1.949322    0.722870
      6          6           0       -1.864267    1.491683   -0.327646
      7          8           0       -1.326535    2.813546   -0.170351
      8          1           0       -0.333071    2.790200   -0.280505
      9          6           0       -3.129942   -2.510879   -0.332341
     10          8           0       -4.140832   -3.176538    0.438211
     11          1           0       -4.181610   -4.130167    0.139359
     12          6           0       -2.745945   -1.121959    0.152286
     13          8           0       -1.503825   -0.884344   -0.526849
     14          6           0       -0.946735    0.326730    0.005009
     15          8           0        0.340937    0.502280   -0.602495
     16          6           0        1.555944    0.193999    0.095971
     17          6           0        2.022539   -1.143193   -0.458108
     18          8           0        1.021527   -2.167210   -0.363815
     19          1           0        0.106773   -1.801144   -0.534077
     20          6           0        3.326151   -1.545430    0.212247
     21          8           0        3.898165   -2.728986   -0.362165
     22          1           0        4.701297   -3.065633    0.130552
     23          6           0        2.417155    2.685886    0.128302
     24          8           0        1.303570    3.235082   -0.591195
     25          1           0        1.497302    4.215034   -0.630882
     26          6           0        2.681444    1.202524   -0.069720
     27          8           0        3.808137    0.837992    0.741305
     28          6           0        4.280104   -0.365615    0.119411
     29          8           0        5.505152   -0.634955    0.815677
     30          1           0        6.188098   -0.868951    0.182880
     31          1           0        3.127418   -1.736851    1.246057
     32          1           0        4.496110   -0.168487   -0.909852
     33          1           0        3.005086    1.102892   -1.084722
     34          1           0        1.339434    0.083070    1.137949
     35          1           0        2.231186   -1.000247   -1.497787
     36          1           0        3.296546    3.220841   -0.163924
     37          1           0        2.253911    2.856752    1.171880
     38          1           0       -5.738007   -0.456512   -0.011116
     39          1           0       -2.250975   -3.121046   -0.328819
     40          1           0       -3.478226   -2.428667   -1.340726
     41          1           0       -2.574332   -1.148717    1.208095
     42          1           0       -4.008694   -0.042135   -1.210692
     43          1           0       -2.970736    1.050816    1.343061
     44          1           0       -2.044301    1.403367   -1.378687
     45          1           0       -0.838789    0.241058    1.066097
 ---------------------------------------------------------------------

 SCF Done:  E(RB3LYP) =  -1297.98315629     A.U. after   13 cycles

 The electronic state is 1-A.
 Alpha  occ. eigenvalues --  -19.19500 -19.19034 -19.18882 -19.18198 -19.17601
 Alpha  occ. eigenvalues --  -19.17485 -19.16499 -19.16255 -19.14430 -19.14023
 Alpha  occ. eigenvalues --  -19.13171 -10.31137 -10.30516 -10.26380 -10.26199
 Alpha  occ. eigenvalues --  -10.25873 -10.25664 -10.25484 -10.25071 -10.24495
 Alpha  occ. eigenvalues --  -10.24094 -10.24078 -10.23821  -1.10542  -1.09749
 Alpha  occ. eigenvalues --   -1.05963  -1.05633  -1.04716  -1.03749  -1.02725
 Alpha  occ. eigenvalues --   -1.02565  -1.01132  -1.00446  -0.99478  -0.82707
 Alpha  occ. eigenvalues --   -0.81195  -0.79466  -0.78755  -0.72292  -0.69878
 Alpha  occ. eigenvalues --   -0.67197  -0.65263  -0.63434  -0.62358  -0.62071
 Alpha  occ. eigenvalues --   -0.60999  -0.56625  -0.56137  -0.55083  -0.54815
 Alpha  occ. eigenvalues --   -0.54364  -0.53597  -0.53302  -0.52010  -0.51181
 Alpha  occ. eigenvalues --   -0.50611  -0.50245  -0.49327  -0.48835  -0.46943
 Alpha  occ. eigenvalues --   -0.45952  -0.45541  -0.44507  -0.43931  -0.43300
 Alpha  occ. eigenvalues --   -0.42823  -0.41838  -0.41501  -0.40065  -0.39770
 Alpha  occ. eigenvalues --   -0.39616  -0.38330  -0.37533  -0.36736  -0.36182
 Alpha  occ. eigenvalues --   -0.35273  -0.34796  -0.34648  -0.33944  -0.33521
 Alpha  occ. eigenvalues --   -0.32617  -0.31662  -0.31344  -0.30783  -0.30042
 Alpha  occ. eigenvalues --   -0.29497  -0.28740  -0.28655  -0.27224  -0.26949
 Alpha  occ. eigenvalues --   -0.25671
 Alpha virt. eigenvalues --   -0.02130  -0.01930  -0.01873  -0.00206   0.00058
 Alpha virt. eigenvalues --    0.00829   0.01922   0.02039   0.03022   0.03251
 Alpha virt. eigenvalues --    0.03783   0.04423   0.04929   0.05076   0.05493

 Mulliken atomic charges:
              1
     1  O   -0.543182
     2  C   -0.006354
     3  C    0.247474
     4  O   -0.582744
     5  H    0.353620
     6  C   -0.063154
     7  O   -0.596597
     8  H    0.428597
     9  C   -0.181084
    10  O   -0.524217
    11  H    0.334992
    12  C    0.068229
    13  O   -0.269850
    14  C    0.251207
    15  O   -0.301622
    16  C    0.247218
    17  C    0.179989
    18  O   -0.588712
    19  H    0.393382
    20  C    0.080553
    21  O   -0.552930
    22  H    0.340453
    23  C   -0.327152
    24  O   -0.526131
    25  H    0.358133
    26  C    0.010430
    27  O   -0.254159
    28  C    0.143719
    29  O   -0.558496
    30  H    0.336275
    31  H    0.131076
    32  H    0.125072
    33  H    0.112134
    34  H    0.115134
    35  H    0.121096
    36  H    0.148731
    37  H    0.157202
    38  H    0.338652
    39  H    0.146087
    40  H    0.136410
    41  H    0.125140
    42  H    0.122607
    43  H    0.092868
    44  H    0.110461
    45  H    0.119442
 Sum of Mulliken atomic charges =   0.00000

 Dipole moment (field-independent basis, Debye):
    X=              2.0318    Y=             -0.7566    Z=             -1.8083  Tot=              2.8233
 Quadrupole moment (field-independent basis, Debye-Ang):
   XX=           -114.3969   YY=           -136.9468   ZZ=           -141.9033
   XY=             18.7757   XZ=              1.4854   YZ=             -0.4294

  Exact polarizability: 233.831  -1.118 196.639   0.267   1.074 144.357
 Approx polarizability: 274.929  -0.782 256.568   0.327   1.892 241.193

 ******    6 imaginary frequencies (negative Signs) ******

                     1                      2                      3
                     A                      A                      A
 Frequencies --  -256.1533              -248.0489              -243.5487
 Red. masses --     1.6223                 1.2054                 1.7764
 Frc consts  --     0.0627                 0.0437                 0.0621
 IR Inten    --    32.5413               124.9806                 3.8470
 Raman Activ --     0.1955                 1.0019                 0.0952

                     4                      5                      6
                     A                      A                      A
 Frequencies --  -211.1697               -59.0660               -46.9707
 Red. masses --     1.2624                 7.0682                 6.2951
 Frc consts  --     0.0332                 0.0145                 0.0082
 IR Inten    --    64.2449                 2.2845                 0.0002
 Raman Activ --     0.4557                 0.0484                 0.0530

                     7                      8                      9
                     A                      A                      A
 Frequencies --    20.1019                50.1029                84.2865
 Red. masses --     6.5389                 6.4118                 6.6492
 Frc consts  --     0.0016                 0.0095                 0.0278
 IR Inten    --     2.4502                 1.0304                 1.0191
 Raman Activ --     0.0242                 0.1210                 0.1749

                    10                     11                     12
                     A                      A                      A
 Frequencies --   100.2568               110.4809               152.7060
 Red. masses --     7.0407                 6.9361                 5.1524
 Frc consts  --     0.0417                 0.0499                 0.0708
 IR Inten    --     3.5158                 1.5315                 1.0780
 Raman Activ --     0.0170                 0.0327                 0.0363

                    13                     14                     15
                     A                      A                      A
 Frequencies --   161.3075               184.7694               198.7823
 Red. masses --     6.4106                 7.3965                 6.0378
 Frc consts  --     0.0983                 0.1488                 0.1406
 IR Inten    --     3.0527                 0.3594                 1.3039
 Raman Activ --     0.4351                 0.6833                 2.4674

                    16                     17                     18
                     A                      A                      A
 Frequencies --   215.6551               234.8493               284.6436
 Red. masses --     5.4450                 6.6033                 4.2765
 Frc consts  --     0.1492                 0.2146                 0.2041
 IR Inten    --     0.2233                 2.9728                14.5905
 Raman Activ --     0.1287                 0.9332                 0.3538

                    19                     20                     21
                     A                      A                      A
 Frequencies --   289.2179               297.1270               310.8745
 Red. masses --     5.3055                 5.3453                 5.0699
 Frc consts  --     0.2615                 0.2780                 0.2887
 IR Inten    --     6.5452                 1.8219                 3.8515
 Raman Activ --     0.3481                 0.2331                 0.9053

                    22                     23                     24
                     A                      A                      A
 Frequencies --   317.6036               321.1007               327.8639
 Red. masses --     5.2313                 5.6015                 5.9151
 Frc consts  --     0.3109                 0.3403                 0.3746
 IR Inten    --     1.2000                 3.8979                 2.8872
 Raman Activ --     1.6736                 0.5900                 1.1713

                    25                     26                     27
                     A                      A                      A
 Frequencies --   342.0984               364.7894               374.9128
 Red. masses --     6.7863                 6.2522                 6.0947
 Frc consts  --     0.4679                 0.4902                 0.5047
 IR Inten    --    12.3232                 4.3698                 2.0829
 Raman Activ --     3.8134                 0.6643                 2.6438

                    28                     29                     30
                     A                      A                      A
 Frequencies --   415.2387               426.4960               429.5096
 Red. masses --     6.0812                 6.1056                 5.4489
 Frc consts  --     0.6178                 0.6543                 0.5922
 IR Inten    --     9.4138                 0.2809                 1.5339
 Raman Activ --     1.8478                 1.7920                 2.8007

                    31                     32                     33
                     A                      A                      A
 Frequencies --   437.7271               468.9902               493.7253
 Red. masses --     4.3064                 3.9988                 6.2356
 Frc consts  --     0.4862                 0.5182                 0.8956
 IR Inten    --    10.5220                 9.2279                 8.7845
 Raman Activ --     6.1455                 3.8456                 2.3549

                    34                     35                     36
                     A                      A                      A
 Frequencies --   512.1809               522.2465               564.0092
 Red. masses --     3.3535                 3.1942                 4.3721
 Frc consts  --     0.5183                 0.5133                 0.8194
 IR Inten    --    17.2926                13.2815                 5.7033
 Raman Activ --     4.8680                 0.9158                 2.2072

                    37                     38                     39
                     A                      A                      A
 Frequencies --   580.2961               584.8410               609.7051
 Red. masses --     3.9403                 3.8003                 3.3187
 Frc consts  --     0.7818                 0.7658                 0.7269
 IR Inten    --    26.0818                19.3031                 9.2613
 Raman Activ --     1.1186                 0.2690                 0.5859

                    40                     41                     42
                     A                      A                      A
 Frequencies --   620.3022               682.2796               714.0698
 Red. masses --     6.7275                 5.7300                 1.0651
 Frc consts  --     1.5252                 1.5716                 0.3200
 IR Inten    --    30.4830                18.2369                93.1235
 Raman Activ --     1.2105                 0.5261                 1.6222

                    43                     44                     45
                     A                      A                      A
 Frequencies --   720.7163               736.8395               743.7794
 Red. masses --     1.0550                 1.0510                 1.0963
 Frc consts  --     0.3229                 0.3362                 0.3573
 IR Inten    --    87.9164                79.8204               101.0066
 Raman Activ --     1.9370                 1.7375                 1.4737

                    46                     47                     48
                     A                      A                      A
 Frequencies --   773.4199               800.2057               866.4231
 Red. masses --     1.0583                 1.0615                 1.7781
 Frc consts  --     0.3730                 0.4005                 0.7864
 IR Inten    --    80.9852                55.9379                 3.9310
 Raman Activ --     1.3025                 0.3116                 1.2221

                    49                     50                     51
                     A                      A                      A
 Frequencies --   872.5555               925.2703               965.9311
 Red. masses --     1.7581                 6.0570                 6.4552
 Frc consts  --     0.7886                 3.0552                 3.5486
 IR Inten    --     7.7900                83.6234                18.2496
 Raman Activ --     0.6954                 2.3352                 1.1811

                    52                     53                     54
                     A                      A                      A
 Frequencies --   970.6556               979.9822               988.7791
 Red. masses --     3.7874                 6.0248                 5.2314
 Frc consts  --     2.1024                 3.4090                 3.0135
 IR Inten    --    61.7726               214.4813               158.9387
 Raman Activ --     1.7970                 0.5702                 0.7593

                    55                     56                     57
                     A                      A                      A
 Frequencies --  1001.7859              1007.0917              1024.1509
 Red. masses --     5.9622                 6.1120                 5.7930
 Frc consts  --     3.5254                 3.6523                 3.5800
 IR Inten    --   282.6928               187.4098               137.8587
 Raman Activ --     0.7824                 5.0527                 2.1660

                    58                     59                     60
                     A                      A                      A
 Frequencies --  1030.6235              1045.2372              1060.0659
 Red. masses --     6.4470                 8.3095                 5.9756
 Frc consts  --     4.0347                 5.3488                 3.9564
 IR Inten    --   167.0411               104.0286                 7.6154
 Raman Activ --     0.6990                 1.9766                 1.7602

                    61                     62                     63
                     A                      A                      A
 Frequencies --  1067.3901              1072.6703              1082.8267
 Red. masses --     6.2694                 3.5642                 3.4004
 Frc consts  --     4.2084                 2.4163                 2.3491
 IR Inten    --    96.8564                10.8444                17.0020
 Raman Activ --     0.9733                10.3101                31.1424

                    64                     65                     66
                     A                      A                      A
 Frequencies --  1100.1163              1106.6351              1110.1098
 Red. masses --     2.6930                 2.3514                 2.7008
 Frc consts  --     1.9203                 1.6966                 1.9610
 IR Inten    --    70.0155                33.1917                41.5166
 Raman Activ --     3.6212                 5.4418                 6.6202

                    67                     68                     69
                     A                      A                      A
 Frequencies --  1121.2912              1133.9813              1139.3774
 Red. masses --     2.9508                 2.4712                 1.7136
 Frc consts  --     2.1859                 1.8723                 1.3107
 IR Inten    --    60.2134                 4.0602                 9.7643
 Raman Activ --     3.9572                 2.7278                 6.0450

                    70                     71                     72
                     A                      A                      A
 Frequencies --  1146.1094              1152.3060              1154.5492
 Red. masses --     2.1106                 2.6007                 1.7756
 Frc consts  --     1.6335                 2.0346                 1.3945
 IR Inten    --     2.1561                59.2371                24.3401
 Raman Activ --     3.3124                 1.4632                 2.3038

                    73                     74                     75
                     A                      A                      A
 Frequencies --  1162.1648              1179.5559              1205.1621
 Red. masses --     2.6199                 2.1410                 1.6855
 Frc consts  --     2.0848                 1.7551                 1.4424
 IR Inten    --    65.0481                29.7010                10.6206
 Raman Activ --     4.4662                 3.5481                 2.8241

                    76                     77                     78
                     A                      A                      A
 Frequencies --  1207.8968              1227.1367              1243.2319
 Red. masses --     1.4371                 1.5427                 1.4248
 Frc consts  --     1.2354                 1.3687                 1.2975
 IR Inten    --    15.7026                 6.7344                 0.7167
 Raman Activ --     0.4311                 2.0334                 1.4616

                    79                     80                     81
                     A                      A                      A
 Frequencies --  1250.2982              1261.8766              1267.8763
 Red. masses --     1.3832                 1.1757                 1.1961
 Frc consts  --     1.2739                 1.1030                 1.1329
 IR Inten    --     8.4328                32.1098                23.6513
 Raman Activ --     1.0400                 0.2553                 1.3014

                    82                     83                     84
                     A                      A                      A
 Frequencies --  1277.6127              1281.9403              1292.1161
 Red. masses --     1.2177                 1.3279                 1.3357
 Frc consts  --     1.1711                 1.2857                 1.3139
 IR Inten    --     0.9897                16.8678                20.6346
 Raman Activ --     5.6103                 5.2669                 1.4518

                    85                     86                     87
                     A                      A                      A
 Frequencies --  1299.0600              1300.1464              1316.9221
 Red. masses --     1.2332                 1.2266                 1.1711
 Frc consts  --     1.2262                 1.2217                 1.1967
 IR Inten    --    17.7595                18.1766                 5.5507
 Raman Activ --     2.9037                 4.7231                 4.0505

                    88                     89                     90
                     A                      A                      A
 Frequencies --  1323.0374              1334.0650              1337.8986
 Red. masses --     1.2046                 1.2715                 1.2638
 Frc consts  --     1.2423                 1.3333                 1.3329
 IR Inten    --    10.0493                54.8547                50.0262
 Raman Activ --     4.3568                 7.3345                 4.6573

                    91                     92                     93
                     A                      A                      A
 Frequencies --  1343.9127              1356.5440              1362.5850
 Red. masses --     1.2255                 1.4310                 1.1635
 Frc consts  --     1.3041                 1.5516                 1.2728
 IR Inten    --    23.6832                 0.8513                 4.7393
 Raman Activ --     3.4074                 6.8584                 2.4851

                    94                     95                     96
                     A                      A                      A
 Frequencies --  1363.3270              1371.6415              1387.3018
 Red. masses --     1.3613                 1.2836                 1.5245
 Frc consts  --     1.4908                 1.4228                 1.7287
 IR Inten    --    16.1116                 1.0197                18.3613
 Raman Activ --     5.8684                 8.9305                 6.4143

                    97                     98                     99
                     A                      A                      A
 Frequencies --  1391.0391              1395.8587              1398.6680
 Red. masses --     1.3087                 1.3238                 1.3879
 Frc consts  --     1.4920                 1.5196                 1.5997
 IR Inten    --     3.4190                41.3442                15.0596
 Raman Activ --     3.0746                 0.3142                 4.1692

                   100                    101                    102
                     A                      A                      A
 Frequencies --  1411.0925              1434.0972              1463.0459
 Red. masses --     1.3772                 1.2441                 1.3684
 Frc consts  --     1.6157                 1.5075                 1.7257
 IR Inten    --    16.1904                12.6570                52.6686
 Raman Activ --     1.4591                 1.8634                 2.6810

                   103                    104                    105
                     A                      A                      A
 Frequencies --  1465.9557              1470.2838              1478.3433
 Red. masses --     1.3968                 1.2581                 1.0808
 Frc consts  --     1.7686                 1.6024                 1.3916
 IR Inten    --    60.1123                14.7884                 6.8500
 Raman Activ --     1.7373                 2.9583                 5.7355

                   106                    107                    108
                     A                      A                      A
 Frequencies --  1479.6633              1492.8712              3239.5551
 Red. masses --     1.1616                 1.3387                 1.0781
 Frc consts  --     1.4984                 1.7578                 6.6660
 IR Inten    --     1.0236                20.0390                36.2227
 Raman Activ --     2.4962                 0.3272               105.9977

                   109                    110                    111
                     A                      A                      A
 Frequencies --  3251.6953              3254.4459              3255.4109
 Red. masses --     1.0799                 1.0679                 1.0665
 Frc consts  --     6.7274                 6.6637                 6.6595
 IR Inten    --    34.4397               123.4305               161.1379
 Raman Activ --    16.6211               113.5410                20.4357

                   112                    113                    114
                     A                      A                      A
 Frequencies --  3260.9198              3268.4716              3275.3717
 Red. masses --     1.0643                 1.0812                 1.0804
 Frc consts  --     6.6677                 6.8055                 6.8292
 IR Inten    --    33.9797                12.0606                52.7972
 Raman Activ --    77.2928                72.6730               230.8978

                   115                    116                    117
                     A                      A                      A
 Frequencies --  3276.7890              3282.2785              3284.7875
 Red. masses --     1.0732                 1.0856                 1.0839
 Frc consts  --     6.7891                 6.8911                 6.8907
 IR Inten    --   368.2312                13.7124                 6.1123
 Raman Activ --   113.8535                10.9672                65.4993

                   118                    119                    120
                     A                      A                      A
 Frequencies --  3286.2202              3297.4348              3298.7305
 Red. masses --     1.0836                 1.0885                 1.0861
 Frc consts  --     6.8947                 6.9733                 6.9631
 IR Inten    --    50.2681               104.4574               116.8134
 Raman Activ --    87.4953                14.8080                 4.6270

                   121                    122                    123
                     A                      A                      A
 Frequencies --  3310.5139              3313.2422              3317.8463
 Red. masses --     1.0758                 1.0996                 1.1073
 Frc consts  --     6.9463                 7.1121                 7.1819
 IR Inten    --   496.0820               198.2450                40.9483
 Raman Activ --   100.1402                73.8923                49.0412

                   124                    125                    126
                     A                      A                      A
 Frequencies --  3363.7965              3366.1790              3377.6788
 Red. masses --     1.0668                 1.0670                 1.0651
 Frc consts  --     7.1120                 7.1237                 7.1596
 IR Inten    --    45.1502                41.6186                56.3369
 Raman Activ --   163.7271               162.4134               102.9092

                   127                    128                    129
                     A                      A                      A
 Frequencies --  3378.5931              3890.9247              3893.0480
 Red. masses --     1.0666                 1.0675                 1.0673
 Frc consts  --     7.1737                 9.5221                 9.5305
 IR Inten    --    60.2613                81.0137                70.5003
 Raman Activ --   137.4384                95.3414               102.1640

 - Thermochemistry -
 -------------------
 Temperature   298.150 Kelvin.  Pressure   1.00000 Atm.
 Atom     1 has atomic number  8 and mass  15.99491

 Molecular mass:   342.11621 amu.
 Principal axes and moments of inertia in atomic units:
                           1         2         3
     Eigenvalues --  4431.91631********************
           X            0.99996   0.00872  -0.00041
           Y           -0.00872   0.99996   0.00153
           Z            0.00042  -0.00153   1.00000
 This molecule is an asymmetric top.
 Rotational symmetry number  1.
 Warning -- assumption of classical behavior for rotation
           may cause significant error
 Rotational temperatures (Kelvin)      0.01954     0.00692     0.00529
 Rotational constants (GHZ):           0.40721     0.14419     0.11014
    6 imaginary frequencies ignored.
 Zero-point vibrational energy     976656.3 (Joules/Mol)
                                  233.42646 (Kcal/Mol)
 Warning -- explicit consideration of  34 degrees of freedom as
           vibrations may cause significant error
 Vibrational temperatures:     28.92    72.09   121.27   144.25   158.96
          (Kelvin)            219.71   232.09   265.84   286.00   310.28
                              337.90   409.54   416.12   427.50   447.28
                              456.96   461.99   471.72   492.20   524.85
                              539.42   597.44   613.63   617.97   629.79
                              674.77   710.36   736.91   751.40   811.48
                              834.92   841.45   877.23   892.48   981.65
                             1027.39  1036.95  1060.15  1070.13  1112.78
                             1151.32  1246.59  1255.41  1331.26  1389.76
                             1396.56  1409.97  1422.63  1441.34  1448.98
                             1473.52  1482.84  1503.86  1525.20  1535.73
                             1543.33  1557.94  1582.82  1592.20  1597.20
                             1613.29  1631.54  1639.31  1648.99  1657.91
                             1661.14  1672.09  1697.12  1733.96  1737.89
                             1765.57  1788.73  1798.90  1815.56  1824.19
                             1838.20  1844.42  1859.06  1869.06  1870.62
                             1894.75  1903.55  1919.42  1924.94  1933.59
                             1951.76  1960.45  1961.52  1973.48  1996.02
                             2001.39  2008.33  2012.37  2030.24  2063.34
                             2104.99  2109.18  2115.41  2127.00  2128.90
                             2147.91  4660.99  4678.46  4682.42  4683.80
                             4691.73  4702.60  4712.52  4714.56  4722.46
                             4726.07  4728.13  4744.27  4746.13  4763.09
                             4767.01  4773.63  4839.75  4843.17  4859.72
                             4861.04  5598.17  5601.22

 Zero-point correction=                           0.371989 (Hartree/Particle)
 Thermal correction to Energy=                    0.390881
 Thermal correction to Enthalpy=                  0.391825
 Thermal correction to Gibbs Free Energy=         0.325213
 Sum of electronic and zero-point Energies=          -1297.611168
 Sum of electronic and thermal Energies=             -1297.592276
 Sum of electronic and thermal Enthalpies=           -1297.591331
 Sum of electronic and thermal Free Energies=        -1297.657943

                     E (Thermal)             CV                S
                      KCal/Mol        Cal/Mol-Kelvin    Cal/Mol-Kelvin
 Total                  245.281             77.585            140.196
 Electronic               0.000              0.000              0.000
 Translational            0.889              2.981             43.384
 Rotational               0.889              2.981             35.162
 Vibrational            243.504             71.624             61.649
 Vibration     1          0.593              1.986              6.624
 Vibration     2          0.595              1.978              4.813
 Vibration     3          0.601              1.960              3.789
 Vibration     4          0.604              1.949              3.449
 Vibration     5          0.606              1.941              3.260
 Vibration     6          0.619              1.900              2.638
 Vibration     7          0.622              1.890              2.534
 Vibration     8          0.631              1.861              2.280
 Vibration     9          0.637              1.842              2.144
 Vibration    10          0.645              1.817              1.995
 Vibration    11          0.655              1.788              1.842
 Vibration    12          0.683              1.702              1.506
 Vibration    13          0.686              1.694              1.479
 Vibration    14          0.691              1.679              1.433
 Vibration    15          0.700              1.653              1.358
 Vibration    16          0.704              1.640              1.322
 Vibration    17          0.707              1.633              1.304
 Vibration    18          0.711              1.620              1.271
 Vibration    19          0.721              1.591              1.202
 Vibration    20          0.738              1.545              1.102
 Vibration    21          0.746              1.524              1.060
 Vibration    22          0.779              1.437              0.908
 Vibration    23          0.788              1.413              0.870
 Vibration    24          0.791              1.406              0.860
 Vibration    25          0.798              1.388              0.834
 Vibration    26          0.826              1.319              0.740
 Vibration    27          0.849              1.264              0.674
 Vibration    28          0.867              1.223              0.628
 Vibration    29          0.877              1.201              0.605
 Vibration    30          0.920              1.109              0.516
 Vibration    31          0.937              1.074              0.485
 Vibration    32          0.942              1.064              0.476
 Vibration    33          0.969              1.011              0.433
 Vibration    34          0.980              0.989              0.416

 Normal termination of Gaussian 09 at Mon Mar 21 22:37:36 2016.
