 Gaussian 09, Revision B.01,
 Gaussian 09:  EM64L-G09RevB.01 12-Aug-2010

 -------------------------------------------------
 # freq=raman b3lyp/6-31+g(2d,p) geom=connectivity
 -------------------------------------------------

 -----------------
 350 7476/7476.com
 -----------------
 Symbolic Z-matrix:
 Charge =  0 Multiplicity = 1

                         Standard orientation:
 ---------------------------------------------------------------------
 Center     Atomic      Atomic             Coordinates (Angstroms)
 Number     Number       Type             X           Y           Z
 ---------------------------------------------------------------------
      1          8           0        5.034689   -0.441039   -0.487537
      2          6           0        3.748458   -0.124672    0.063799
      3          6           0        3.203898    1.251759   -0.278812
      4          8           0        4.170431    2.305999   -0.159804
      5          1           0        5.063057    1.950668   -0.438774
      6          6           0        1.830834    1.522695    0.313339
      7          8           0        1.302048    2.750518   -0.208930
      8          1           0        0.441556    3.032704    0.214647
      9          6           0        3.192880   -2.423005    0.344239
     10          8           0        4.300584   -3.138483   -0.221241
     11          1           0        4.083556   -4.109878   -0.312123
     12          6           0        2.639224   -1.124842   -0.222176
     13          8           0        1.401173   -0.785133    0.417607
     14          6           0        0.850155    0.436069   -0.096729
     15          8           0       -0.318383    0.596628    0.721346
     16          6           0       -1.506602    0.235538    0.000972
     17          6           0       -1.957547   -1.150547    0.431884
     18          8           0       -1.059667   -2.220004    0.102109
     19          1           0       -0.159668   -1.848883    0.333097
     20          6           0       -3.277786   -1.508305   -0.231757
     21          8           0       -3.781736   -2.821825    0.051542
     22          1           0       -4.710381   -2.911624   -0.308577
     23          6           0       -2.409538    2.620394   -0.157219
     24          8           0       -1.287376    3.402830    0.277243
     25          1           0       -1.484967    4.373726    0.138956
     26          6           0       -2.646632    1.192229    0.307939
     27          8           0       -3.865459    0.782265   -0.330879
     28          6           0       -4.346027   -0.488600    0.128806
     29          8           0       -5.489313   -0.716383   -0.707358
     30          1           0       -6.263354   -0.861793   -0.158435
     31          1           0       -3.286615    3.175053    0.103527
     32          1           0       -2.363199    2.588805   -1.225749
     33          1           0       -2.804132    1.201875    1.366240
     34          1           0       -1.306193    0.238878   -1.050087
     35          1           0       -2.101209   -1.144160    1.492177
     36          1           0       -3.125200   -1.449635   -1.289196
     37          1           0       -4.587574   -0.487067    1.171184
     38          1           0        5.656212   -0.607127    0.225011
     39          1           0        2.374047   -3.111322    0.369386
     40          1           0        3.457641   -2.216840    1.360259
     41          1           0        2.493523   -1.218685   -1.278048
     42          1           0        3.882148   -0.131049    1.125395
     43          1           0        3.018487    1.198038   -1.331255
     44          1           0        1.894837    1.575392    1.380122
     45          1           0        0.643604    0.407657   -1.146219
 ---------------------------------------------------------------------

 SCF Done:  E(RB3LYP) =  -1297.97656054     A.U. after   13 cycles

 The electronic state is 1-A.
 Alpha  occ. eigenvalues --  -19.19023 -19.18678 -19.18662 -19.18451 -19.17988
 Alpha  occ. eigenvalues --  -19.17214 -19.16330 -19.15428 -19.14661 -19.14307
 Alpha  occ. eigenvalues --  -19.13011 -10.30716 -10.30703 -10.26488 -10.25758
 Alpha  occ. eigenvalues --  -10.25605 -10.25370 -10.24911 -10.24353 -10.24297
 Alpha  occ. eigenvalues --  -10.24183 -10.24043 -10.23719  -1.10720  -1.09494
 Alpha  occ. eigenvalues --   -1.05519  -1.05155  -1.04317  -1.03546  -1.02595
 Alpha  occ. eigenvalues --   -1.02471  -1.01495  -1.00674  -0.99660  -0.82435
 Alpha  occ. eigenvalues --   -0.80785  -0.79467  -0.78372  -0.71775  -0.69778
 Alpha  occ. eigenvalues --   -0.67142  -0.65207  -0.63359  -0.62686  -0.61649
 Alpha  occ. eigenvalues --   -0.60400  -0.56678  -0.55977  -0.55272  -0.54662
 Alpha  occ. eigenvalues --   -0.54195  -0.53542  -0.53058  -0.51690  -0.51639
 Alpha  occ. eigenvalues --   -0.50337  -0.50037  -0.49424  -0.48704  -0.46540
 Alpha  occ. eigenvalues --   -0.46308  -0.45274  -0.44385  -0.43445  -0.43326
 Alpha  occ. eigenvalues --   -0.42505  -0.41430  -0.41350  -0.40287  -0.39380
 Alpha  occ. eigenvalues --   -0.39071  -0.38300  -0.37535  -0.37025  -0.35531
 Alpha  occ. eigenvalues --   -0.35252  -0.34771  -0.34489  -0.34111  -0.33456
 Alpha  occ. eigenvalues --   -0.33315  -0.31029  -0.30838  -0.30453  -0.29958
 Alpha  occ. eigenvalues --   -0.29364  -0.28546  -0.27927  -0.27033  -0.26789
 Alpha  occ. eigenvalues --   -0.26264
 Alpha virt. eigenvalues --   -0.02160  -0.01971  -0.01866  -0.00251   0.00260
 Alpha virt. eigenvalues --    0.00985   0.01852   0.02100   0.03335   0.03466
 Alpha virt. eigenvalues --    0.03727   0.04152   0.04891   0.05384   0.05572

 Mulliken atomic charges:
              1
     1  O   -0.541251
     2  C   -0.277755
     3  C    0.263854
     4  O   -0.573198
     5  H    0.345494
     6  C    0.093532
     7  O   -0.566386
     8  H    0.399802
     9  C   -0.361801
    10  O   -0.531537
    11  H    0.344612
    12  C    0.434200
    13  O   -0.274139
    14  C    0.105595
    15  O   -0.187438
    16  C    0.219947
    17  C    0.164946
    18  O   -0.556166
    19  H    0.378952
    20  C    0.058710
    21  O   -0.561002
    22  H    0.342548
    23  C   -0.296517
    24  O   -0.566127
    25  H    0.359639
    26  C   -0.026026
    27  O   -0.234430
    28  C    0.129149
    29  O   -0.545782
    30  H    0.335943
    31  H    0.146340
    32  H    0.156275
    33  H    0.121155
    34  H    0.107132
    35  H    0.118086
    36  H    0.126328
    37  H    0.135493
    38  H    0.351025
    39  H    0.132586
    40  H    0.136427
    41  H    0.118084
    42  H    0.108306
    43  H    0.101311
    44  H    0.125390
    45  H    0.138689
 Sum of Mulliken atomic charges =   0.00000

 Dipole moment (field-independent basis, Debye):
    X=             -3.0491    Y=              0.3238    Z=              1.9221  Tot=              3.6188
 Quadrupole moment (field-independent basis, Debye-Ang):
   XX=           -117.9577   YY=           -138.7022   ZZ=           -138.9295
   XY=            -17.3989   XZ=             -1.0078   YZ=              0.9437

  Exact polarizability: 234.174   0.921 197.630   0.283  -0.104 143.274
 Approx polarizability: 275.758   0.514 257.378   0.730   1.105 239.722

 ******    7 imaginary frequencies (negative Signs) ******

                     1                      2                      3
                     A                      A                      A
 Frequencies --  -291.4627              -291.3308              -222.3259
 Red. masses --     1.7480                 1.6506                 1.2456
 Frc consts  --     0.0875                 0.0825                 0.0363
 IR Inten    --     2.7562                22.6247                81.8242
 Raman Activ --     0.0316                 0.1461                 0.5763

                     4                      5                      6
                     A                      A                      A
 Frequencies --  -172.9695               -68.2558               -35.7754
 Red. masses --     1.2036                 6.9741                 6.1653
 Frc consts  --     0.0212                 0.0191                 0.0046
 IR Inten    --   105.7194                 0.9439                 0.5324
 Raman Activ --     0.7287                 0.0495                 0.0141

                     7                      8                      9
                     A                      A                      A
 Frequencies --   -28.2711                49.1023                74.7063
 Red. masses --     6.3901                 6.7576                 6.5555
 Frc consts  --     0.0030                 0.0096                 0.0216
 IR Inten    --     2.1513                 0.2648                 1.2575
 Raman Activ --     0.0429                 0.0371                 0.3254

                    10                     11                     12
                     A                      A                      A
 Frequencies --    88.3587               104.2103               133.4820
 Red. masses --     6.8978                 6.5271                 5.5759
 Frc consts  --     0.0317                 0.0418                 0.0585
 IR Inten    --     3.8550                 1.5306                 1.8497
 Raman Activ --     0.0273                 0.0539                 0.0792

                    13                     14                     15
                     A                      A                      A
 Frequencies --   163.3320               186.5030               199.0921
 Red. masses --     6.3064                 7.5528                 5.7510
 Frc consts  --     0.0991                 0.1548                 0.1343
 IR Inten    --     3.3089                 2.0128                 0.9553
 Raman Activ --     0.5721                 0.9629                 0.3975

                    16                     17                     18
                     A                      A                      A
 Frequencies --   208.7172               231.9130               268.7682
 Red. masses --     6.2972                 6.0808                 4.6556
 Frc consts  --     0.1616                 0.1927                 0.1981
 IR Inten    --     1.2433                 1.6453                20.5128
 Raman Activ --     1.3021                 0.7888                 0.4114

                    19                     20                     21
                     A                      A                      A
 Frequencies --   283.0063               296.1522               300.3049
 Red. masses --     4.4993                 5.7980                 4.2345
 Frc consts  --     0.2123                 0.2996                 0.2250
 IR Inten    --     1.3570                 0.5408                 0.9815
 Raman Activ --     0.0456                 0.2351                 0.0915

                    22                     23                     24
                     A                      A                      A
 Frequencies --   303.5940               313.0824               318.0880
 Red. masses --     6.5369                 6.6755                 5.1869
 Frc consts  --     0.3550                 0.3855                 0.3092
 IR Inten    --     1.5619                 8.2484                 2.0896
 Raman Activ --     3.3895                 1.5576                 2.2955

                    25                     26                     27
                     A                      A                      A
 Frequencies --   335.9972               360.9949               383.5076
 Red. masses --     6.4309                 4.2459                 8.3894
 Frc consts  --     0.4278                 0.3260                 0.7270
 IR Inten    --    16.2098                 3.4002                 5.3241
 Raman Activ --     3.0767                 0.2278                 3.5839

                    28                     29                     30
                     A                      A                      A
 Frequencies --   404.7382               420.9686               431.3104
 Red. masses --     6.5538                 5.3701                 4.3947
 Frc consts  --     0.6325                 0.5607                 0.4817
 IR Inten    --     6.4789                 4.9181                 3.0606
 Raman Activ --     4.6196                 0.6509                 3.3388

                    31                     32                     33
                     A                      A                      A
 Frequencies --   440.6888               478.0934               494.2732
 Red. masses --     4.4009                 4.9880                 3.9675
 Frc consts  --     0.5036                 0.6717                 0.5711
 IR Inten    --    15.9455                 7.3606                 6.8215
 Raman Activ --     3.9363                 4.0777                 0.6851

                    34                     35                     36
                     A                      A                      A
 Frequencies --   503.3309               538.1524               572.3336
 Red. masses --     3.8856                 2.8895                 4.0425
 Frc consts  --     0.5800                 0.4930                 0.7802
 IR Inten    --     9.6809                 9.5574                 8.6145
 Raman Activ --     3.0891                 3.0646                 1.8125

                    37                     38                     39
                     A                      A                      A
 Frequencies --   595.4286               606.7144               620.4714
 Red. masses --     2.8170                 6.5408                 5.3041
 Frc consts  --     0.5884                 1.4186                 1.2031
 IR Inten    --    39.9544                 1.6732                39.7774
 Raman Activ --     0.1870                 0.7571                 1.1583

                    40                     41                     42
                     A                      A                      A
 Frequencies --   635.9573               662.0896               684.4164
 Red. masses --     3.7599                 1.2190                 3.7096
 Frc consts  --     0.8959                 0.3148                 1.0238
 IR Inten    --    11.2651                88.1191                27.9058
 Raman Activ --     0.5324                 1.3734                 1.7505

                    43                     44                     45
                     A                      A                      A
 Frequencies --   688.3779               727.4222               737.4131
 Red. masses --     1.1178                 1.0545                 1.0544
 Frc consts  --     0.3121                 0.3287                 0.3378
 IR Inten    --   101.3321                91.6895                92.3952
 Raman Activ --     2.2363                 1.7105                 1.6838

                    46                     47                     48
                     A                      A                      A
 Frequencies --   764.8353               840.0557               852.4915
 Red. masses --     1.0639                 1.0850                 1.7605
 Frc consts  --     0.3667                 0.4511                 0.7538
 IR Inten    --   127.6072                76.7845                 4.9771
 Raman Activ --     1.6549                 1.1729                 0.3502

                    49                     50                     51
                     A                      A                      A
 Frequencies --   859.7135               921.0624               949.1658
 Red. masses --     1.7220                 5.9389                 5.2108
 Frc consts  --     0.7499                 2.9685                 2.7659
 IR Inten    --     0.1311               146.5161                39.9519
 Raman Activ --     0.3242                 4.0386                 0.3063

                    52                     53                     54
                     A                      A                      A
 Frequencies --   977.3645               979.9579               982.6240
 Red. masses --     4.7069                 5.0237                 6.8226
 Frc consts  --     2.6491                 2.8424                 3.8813
 IR Inten    --   113.3861                66.8881               141.4488
 Raman Activ --     2.3569                 3.0485                 1.0636

                    55                     56                     57
                     A                      A                      A
 Frequencies --   995.4786              1008.7387              1021.2909
 Red. masses --     7.5127                 5.9018                 5.7340
 Frc consts  --     4.3864                 3.5383                 3.5237
 IR Inten    --   226.2867                46.6637               200.7273
 Raman Activ --     1.5057                 1.3795                 2.7026

                    58                     59                     60
                     A                      A                      A
 Frequencies --  1030.4746              1054.3135              1061.3117
 Red. masses --     6.3873                 4.7410                 3.0906
 Frc consts  --     3.9962                 3.1050                 2.0511
 IR Inten    --   276.4543               110.1911                10.6013
 Raman Activ --     3.5779                 5.0404                 8.2559

                    61                     62                     63
                     A                      A                      A
 Frequencies --  1066.8083              1071.7240              1076.7494
 Red. masses --     6.2463                 4.7841                 3.6390
 Frc consts  --     4.1884                 3.2375                 2.4858
 IR Inten    --   129.7751                 4.7921                39.8654
 Raman Activ --     0.5870                 2.8044                16.7151

                    64                     65                     66
                     A                      A                      A
 Frequencies --  1094.7321              1102.4448              1108.8412
 Red. masses --     2.5013                 2.6535                 2.2702
 Frc consts  --     1.7662                 1.9002                 1.6446
 IR Inten    --    59.1714                 8.1769                64.6158
 Raman Activ --     5.5100                 6.9308                 3.7511

                    67                     68                     69
                     A                      A                      A
 Frequencies --  1116.5231              1121.9886              1126.1808
 Red. masses --     2.5449                 2.3819                 2.3986
 Frc consts  --     1.8692                 1.7666                 1.7924
 IR Inten    --     2.1346                 3.1803                48.4631
 Raman Activ --     5.5060                 4.5184                 7.3290

                    70                     71                     72
                     A                      A                      A
 Frequencies --  1141.4631              1144.7625              1153.7923
 Red. masses --     2.2167                 2.2156                 2.2460
 Frc consts  --     1.7017                 1.7107                 1.7616
 IR Inten    --    73.7426                16.5429                35.8307
 Raman Activ --     1.2786                 7.9443                 4.7890

                    73                     74                     75
                     A                      A                      A
 Frequencies --  1164.4159              1170.7295              1183.8667
 Red. masses --     2.1444                 1.6737                 2.0838
 Frc consts  --     1.7130                 1.3516                 1.7208
 IR Inten    --     9.9593                 6.3971                10.7264
 Raman Activ --     3.4482                 2.9830                 2.1703

                    76                     77                     78
                     A                      A                      A
 Frequencies --  1206.8328              1213.4499              1222.7018
 Red. masses --     1.4134                 1.3592                 1.3079
 Frc consts  --     1.2129                 1.1792                 1.1520
 IR Inten    --     6.9624                12.2979                14.7622
 Raman Activ --     2.5749                 1.9084                 0.9833

                    79                     80                     81
                     A                      A                      A
 Frequencies --  1222.9044              1239.9652              1252.5355
 Red. masses --     1.4038                 1.2155                 1.3285
 Frc consts  --     1.2369                 1.1011                 1.2280
 IR Inten    --    22.1761                 1.7393                 5.8831
 Raman Activ --     2.9359                 1.8074                 1.3061

                    82                     83                     84
                     A                      A                      A
 Frequencies --  1281.9813              1287.5715              1295.9226
 Red. masses --     1.3204                 1.3688                 1.2133
 Frc consts  --     1.2786                 1.3370                 1.2006
 IR Inten    --    15.3830                46.0816                 7.7887
 Raman Activ --     5.4774                 2.2665                 4.9069

                    85                     86                     87
                     A                      A                      A
 Frequencies --  1299.2560              1300.1054              1310.3596
 Red. masses --     1.3908                 1.3666                 1.3049
 Frc consts  --     1.3832                 1.3609                 1.3201
 IR Inten    --    20.4040                 8.8897                13.4187
 Raman Activ --     2.3129                 1.7028                 5.7451

                    88                     89                     90
                     A                      A                      A
 Frequencies --  1312.7753              1328.0035              1330.4362
 Red. masses --     1.1941                 1.2173                 1.2093
 Frc consts  --     1.2124                 1.2648                 1.2612
 IR Inten    --    15.0869                24.2874                21.4941
 Raman Activ --     8.8872                 5.9889                 5.1361

                    91                     92                     93
                     A                      A                      A
 Frequencies --  1331.1397              1352.3178              1356.5323
 Red. masses --     1.4152                 1.1988                 1.4511
 Frc consts  --     1.4775                 1.2917                 1.5733
 IR Inten    --    26.5441                31.4510                 7.4609
 Raman Activ --     1.7017                 0.3491                 8.9855

                    94                     95                     96
                     A                      A                      A
 Frequencies --  1362.6230              1368.6326              1376.2281
 Red. masses --     1.4317                 1.4964                 1.1978
 Frc consts  --     1.5662                 1.6515                 1.3366
 IR Inten    --    12.7881                 5.3765                41.8768
 Raman Activ --     3.3604                 7.3300                 3.7511

                    97                     98                     99
                     A                      A                      A
 Frequencies --  1387.5339              1402.8139              1410.6596
 Red. masses --     1.1665                 1.4034                 1.2273
 Frc consts  --     1.3232                 1.6271                 1.4389
 IR Inten    --    36.3902                 1.2756                 2.9168
 Raman Activ --     1.5976                 5.6434                 5.1003

                   100                    101                    102
                     A                      A                      A
 Frequencies --  1426.9774              1429.4476              1449.1460
 Red. masses --     1.5158                 1.3408                 1.4031
 Frc consts  --     1.8185                 1.6142                 1.7361
 IR Inten    --    34.1156                22.1742                34.7843
 Raman Activ --     0.4565                 1.7467                 2.5226

                   103                    104                    105
                     A                      A                      A
 Frequencies --  1451.6483              1472.1619              1476.8331
 Red. masses --     1.3327                 1.0811                 1.1069
 Frc consts  --     1.6547                 1.3805                 1.4225
 IR Inten    --    28.2797                 5.8481                 7.1395
 Raman Activ --     3.3682                 5.2520                 2.3858

                   106                    107                    108
                     A                      A                      A
 Frequencies --  1481.1912              1529.4179              3245.5091
 Red. masses --     1.3252                 1.2431                 1.0773
 Frc consts  --     1.7130                 1.7132                 6.6859
 IR Inten    --    20.5225                36.8897                15.0374
 Raman Activ --     0.7848                 0.9563                55.7366

                   109                    110                    111
                     A                      A                      A
 Frequencies --  3252.4696              3259.8759              3266.9176
 Red. masses --     1.0614                 1.0593                 1.0818
 Frc consts  --     6.6153                 6.6323                 6.8026
 IR Inten    --    22.9234                64.7318                22.2689
 Raman Activ --   115.1275                70.2654                24.4031

                   112                    113                    114
                     A                      A                      A
 Frequencies --  3268.3953              3273.2294              3281.4807
 Red. masses --     1.0816                 1.0817                 1.0840
 Frc consts  --     6.8078                 6.8284                 6.8774
 IR Inten    --    28.1458                21.6912                 8.9339
 Raman Activ --    46.1155               142.6276                73.5614

                   115                    116                    117
                     A                      A                      A
 Frequencies --  3282.6277              3289.1093              3291.7962
 Red. masses --     1.0860                 1.0798                 1.0796
 Frc consts  --     6.8946                 6.8826                 6.8928
 IR Inten    --    47.7501                68.3222                53.7728
 Raman Activ --    63.0613               127.3126               221.3563

                   118                    119                    120
                     A                      A                      A
 Frequencies --  3293.2859              3299.9130              3302.3854
 Red. masses --     1.0817                 1.0820                 1.0779
 Frc consts  --     6.9119                 6.9418                 6.9260
 IR Inten    --    84.7128               418.8075               458.4760
 Raman Activ --    41.8359                42.9741                34.4837

                   121                    122                    123
                     A                      A                      A
 Frequencies --  3305.3182              3310.6648              3313.9200
 Red. masses --     1.1005                 1.0902                 1.1000
 Frc consts  --     7.0836                 7.0403                 7.1178
 IR Inten    --    56.9525               107.0924                90.6981
 Raman Activ --    28.6358                55.1921                28.8089

                   124                    125                    126
                     A                      A                      A
 Frequencies --  3360.1657              3365.3403              3367.5632
 Red. masses --     1.0658                 1.0657                 1.0675
 Frc consts  --     7.0903                 7.1109                 7.1327
 IR Inten    --    42.4388                46.1597                65.5148
 Raman Activ --   101.9783               117.4853               156.9607

                   127                    128                    129
                     A                      A                      A
 Frequencies --  3374.2674              3889.6938              3892.1232
 Red. masses --     1.0696                 1.0678                 1.0674
 Frc consts  --     7.1754                 9.5184                 9.5268
 IR Inten    --    44.6787                92.9067                70.4200
 Raman Activ --   147.5145                75.0437               126.4877

 - Thermochemistry -
 -------------------
 Temperature   298.150 Kelvin.  Pressure   1.00000 Atm.
 Atom     1 has atomic number  8 and mass  15.99491

 Molecular mass:   342.11621 amu.
 Principal axes and moments of inertia in atomic units:
                           1         2         3
     Eigenvalues --  4408.80004********************
           X            0.99997  -0.00836   0.00010
           Y            0.00836   0.99996  -0.00224
           Z           -0.00008   0.00225   1.00000
 This molecule is an asymmetric top.
 Rotational symmetry number  1.
 Warning -- assumption of classical behavior for rotation
           may cause significant error
 Rotational temperatures (Kelvin)      0.01965     0.00698     0.00528
 Rotational constants (GHZ):           0.40935     0.14549     0.11001
    7 imaginary frequencies ignored.
 Zero-point vibrational energy     974628.4 (Joules/Mol)
                                  232.94179 (Kcal/Mol)
 Warning -- explicit consideration of  32 degrees of freedom as
           vibrations may cause significant error
 Vibrational temperatures:     70.65   107.49   127.13   149.94   192.05
          (Kelvin)            235.00   268.34   286.45   300.30   333.67
                              386.70   407.18   426.10   432.07   436.80
                              450.46   457.66   483.42   519.39   551.78
                              582.33   605.68   620.56   634.05   687.87
                              711.15   724.18   774.28   823.46   856.69
                              872.93   892.72   915.00   952.60   984.72
                              990.42  1046.60  1060.97  1100.43  1208.65
                             1226.54  1236.93  1325.20  1365.64  1406.21
                             1409.94  1413.78  1432.27  1451.35  1469.41
                             1482.62  1516.92  1526.99  1534.90  1541.97
                             1549.20  1575.07  1586.17  1595.37  1606.43
                             1614.29  1620.32  1642.31  1647.06  1660.05
                             1675.33  1684.42  1703.32  1736.36  1745.88
                             1759.19  1759.48  1784.03  1802.12  1844.48
                             1852.53  1864.54  1869.34  1870.56  1885.31
                             1888.79  1910.70  1914.20  1915.21  1945.68
                             1951.74  1960.51  1969.15  1980.08  1996.35
                             2018.33  2029.62  2053.10  2056.65  2085.00
                             2088.60  2118.11  2124.83  2131.10  2200.49
                             4669.56  4679.57  4690.23  4700.36  4702.49
                             4709.44  4721.31  4722.96  4732.29  4736.15
                             4738.30  4747.83  4751.39  4755.61  4763.30
                             4767.99  4834.52  4841.97  4845.17  4854.81
                             5596.39  5599.89

 Zero-point correction=                           0.371216 (Hartree/Particle)
 Thermal correction to Energy=                    0.389405
 Thermal correction to Enthalpy=                  0.390350
 Thermal correction to Gibbs Free Energy=         0.326255
 Sum of electronic and zero-point Energies=          -1297.605344
 Sum of electronic and thermal Energies=             -1297.587155
 Sum of electronic and thermal Enthalpies=           -1297.586211
 Sum of electronic and thermal Free Energies=        -1297.650305

                     E (Thermal)             CV                S
                      KCal/Mol        Cal/Mol-Kelvin    Cal/Mol-Kelvin
 Total                  244.356             75.950            134.898
 Electronic               0.000              0.000              0.000
 Translational            0.889              2.981             43.384
 Rotational               0.889              2.981             35.149
 Vibrational            242.578             69.988             56.364
 Vibration     1          0.595              1.978              4.853
 Vibration     2          0.599              1.966              4.025
 Vibration     3          0.601              1.957              3.696
 Vibration     4          0.605              1.946              3.374
 Vibration     5          0.613              1.920              2.895
 Vibration     6          0.623              1.887              2.511
 Vibration     7          0.632              1.858              2.262
 Vibration     8          0.637              1.841              2.141
 Vibration     9          0.642              1.827              2.055
 Vibration    10          0.653              1.792              1.864
 Vibration    11          0.673              1.731              1.604
 Vibration    12          0.682              1.705              1.515
 Vibration    13          0.690              1.681              1.439
 Vibration    14          0.693              1.673              1.415
 Vibration    15          0.695              1.667              1.397
 Vibration    16          0.701              1.649              1.346
 Vibration    17          0.704              1.639              1.320
 Vibration    18          0.717              1.604              1.231
 Vibration    19          0.735              1.553              1.118
 Vibration    20          0.753              1.505              1.025
 Vibration    21          0.770              1.460              0.945
 Vibration    22          0.783              1.425              0.889
 Vibration    23          0.792              1.402              0.854
 Vibration    24          0.801              1.381              0.824
 Vibration    25          0.835              1.299              0.715
 Vibration    26          0.850              1.263              0.673
 Vibration    27          0.859              1.243              0.650
 Vibration    28          0.893              1.166              0.569
 Vibration    29          0.929              1.091              0.500
 Vibration    30          0.953              1.042              0.458
 Vibration    31          0.965              1.018              0.438
 Vibration    32          0.981              0.989              0.416

 Normal termination of Gaussian 09 at Fri Mar 25 20:22:24 2016.
