 Gaussian 09, Revision B.01,
 Gaussian 09:  EM64L-G09RevB.01 12-Aug-2010

 ------------------------------------------------
 # freq=raman b3lyp/6-31+g(d,p) geom=connectivity
 ------------------------------------------------

 ------------
 550 5000.com
 ------------
 Symbolic Z-matrix:
 Charge =  0 Multiplicity = 1

                         Standard orientation:
 ---------------------------------------------------------------------
 Center     Atomic      Atomic             Coordinates (Angstroms)
 Number     Number       Type             X           Y           Z
 ---------------------------------------------------------------------
      1          8           0       -5.058619    0.217225   -0.636134
      2          6           0       -3.961564   -0.069916    0.243694
      3          6           0       -3.148781   -1.163955   -0.430547
      4          8           0       -3.933834   -2.321283   -0.750002
      5          1           0       -4.807833   -1.839805   -0.816656
      6          6           0       -1.821394   -1.611563    0.159285
      7          8           0       -0.983757   -2.698442   -0.260988
      8          1           0       -1.554474   -3.493378   -0.465556
      9          6           0       -3.606842    2.425263    0.530494
     10          8           0       -2.732535    3.546861    0.338175
     11          1           0       -3.194181    4.375912    0.653865
     12          6           0       -2.961247    1.074003    0.267903
     13          8           0       -1.750319    0.701109    0.940807
     14          6           0       -1.007967   -0.332783    0.277290
     15          8           0        0.276949   -0.495032    0.894477
     16          6           0        1.454282   -0.400446    0.078761
     17          6           0        1.735263    1.074471   -0.157553
     18          8           0        1.067508    1.600649   -1.312591
     19          1           0        0.204018    1.097121   -1.350744
     20          6           0        3.184288    1.406203   -0.477428
     21          8           0        3.261717    2.836018   -0.381487
     22          1           0        2.963133    3.122394   -1.291768
     23          6           0        2.395808   -2.457906    0.749116
     24          8           0        2.173550   -3.150112   -0.488452
     25          1           0        1.424283   -3.774719   -0.266821
     26          6           0        2.691185   -0.967143    0.755492
     27          8           0        3.944796   -0.826648    0.069849
     28          6           0        4.174993    0.569165    0.314660
     29          8           0        5.399517    0.938729   -0.335016
     30          1           0        6.139666    0.751813    0.247086
     31          1           0        4.176204    0.812792    1.356555
     32          1           0        3.337896    1.160267   -1.507389
     33          1           0        1.431727    1.629801    0.705218
     34          1           0        1.291190   -0.894584   -0.856188
     35          1           0        2.768735   -0.606781    1.759995
     36          1           0        1.526233   -2.608620    1.354116
     37          1           0        3.215028   -2.942737    1.237702
     38          1           0       -5.883410   -0.025097   -0.208817
     39          1           0       -3.960766    2.440995    1.540142
     40          1           0       -4.445340    2.533142   -0.125391
     41          1           0       -2.651339    1.154451   -0.753070
     42          1           0       -4.283720   -0.351439    1.224439
     43          1           0       -2.886197   -0.744246   -1.379122
     44          1           0       -2.070889   -1.870765    1.166989
     45          1           0       -0.827896    0.008533   -0.720697
 ---------------------------------------------------------------------

 SCF Done:  E(RB3LYP) =  -1297.87799441     A.U. after   13 cycles

 The electronic state is 1-A.
 Alpha  occ. eigenvalues --  -19.22040 -19.19486 -19.19456 -19.18533 -19.18253
 Alpha  occ. eigenvalues --  -19.18175 -19.17340 -19.16207 -19.15817 -19.15517
 Alpha  occ. eigenvalues --  -19.14864 -10.32301 -10.29354 -10.28854 -10.27283
 Alpha  occ. eigenvalues --  -10.26692 -10.26641 -10.25605 -10.25080 -10.24678
 Alpha  occ. eigenvalues --  -10.22804 -10.22447 -10.22286  -1.10012  -1.08911
 Alpha  occ. eigenvalues --   -1.08075  -1.05471  -1.04575  -1.03876  -1.03064
 Alpha  occ. eigenvalues --   -1.02797  -1.01769  -1.00955  -0.99936  -0.83387
 Alpha  occ. eigenvalues --   -0.82121  -0.78968  -0.76883  -0.72787  -0.69593
 Alpha  occ. eigenvalues --   -0.67280  -0.64797  -0.63759  -0.63350  -0.60943
 Alpha  occ. eigenvalues --   -0.59904  -0.58535  -0.55960  -0.55238  -0.54218
 Alpha  occ. eigenvalues --   -0.53863  -0.53513  -0.52886  -0.51811  -0.51259
 Alpha  occ. eigenvalues --   -0.50242  -0.49979  -0.48946  -0.47044  -0.46833
 Alpha  occ. eigenvalues --   -0.46206  -0.45403  -0.44468  -0.44028  -0.42989
 Alpha  occ. eigenvalues --   -0.42445  -0.41938  -0.41016  -0.39976  -0.39658
 Alpha  occ. eigenvalues --   -0.39581  -0.38943  -0.38131  -0.37089  -0.36930
 Alpha  occ. eigenvalues --   -0.35965  -0.35567  -0.34097  -0.33879  -0.33166
 Alpha  occ. eigenvalues --   -0.32479  -0.31712  -0.30918  -0.30182  -0.29434
 Alpha  occ. eigenvalues --   -0.29382  -0.29196  -0.28589  -0.27458  -0.26122
 Alpha  occ. eigenvalues --   -0.25597
 Alpha virt. eigenvalues --   -0.04202  -0.01970  -0.01382  -0.00547   0.00287
 Alpha virt. eigenvalues --    0.01171   0.01802   0.02243   0.02672   0.03458
 Alpha virt. eigenvalues --    0.03930   0.04380   0.04640   0.04966   0.05519

 Mulliken atomic charges:
              1
     1  O   -0.555190
     2  C   -0.198699
     3  C    0.184576
     4  O   -0.520217
     5  H    0.337540
     6  C    0.039692
     7  O   -0.558380
     8  H    0.386291
     9  C    0.015797
    10  O   -0.510903
    11  H    0.351334
    12  C    0.119505
    13  O   -0.337922
    14  C    0.052572
    15  O   -0.328520
    16  C   -0.102586
    17  C    0.343343
    18  O   -0.526491
    19  H    0.335953
    20  C   -0.216136
    21  O   -0.479114
    22  H    0.369174
    23  C   -0.358199
    24  O   -0.473380
    25  H    0.348051
    26  C    0.163571
    27  O   -0.291402
    28  C    0.316393
    29  O   -0.525957
    30  H    0.343480
    31  H    0.125062
    32  H    0.162335
    33  H    0.169556
    34  H    0.185518
    35  H    0.134884
    36  H    0.139061
    37  H    0.131716
    38  H    0.371295
    39  H    0.128616
    40  H    0.158993
    41  H    0.117742
    42  H    0.156062
    43  H    0.130628
    44  H    0.134875
    45  H    0.029485
 Sum of Mulliken atomic charges =   0.00000

 Dipole moment (field-independent basis, Debye):
    X=             -8.3739    Y=             -0.9965    Z=              3.5401  Tot=              9.1459
 Quadrupole moment (field-independent basis, Debye-Ang):
   XX=           -108.5960   YY=           -140.0604   ZZ=           -139.7692
   XY=             -7.4915   XZ=              4.6478   YZ=             -3.2490

  Exact polarizability: 220.842   1.621 192.118   1.464  -1.633 144.366
 Approx polarizability: 262.817   0.649 250.925  -0.951  -0.895 233.497

 ******    7 imaginary frequencies (negative Signs) ******

                     1                      2                      3
                     A                      A                      A
 Frequencies --  -244.8128              -234.9106              -182.7327
 Red. masses --     1.8282                 1.7664                 1.0506
 Frc consts  --     0.0646                 0.0574                 0.0207
 IR Inten    --     4.4244                 2.6825               101.3102
 Raman Activ --     0.2375                 0.0915                 1.8791

                     4                      5                      6
                     A                      A                      A
 Frequencies --  -165.8445              -115.5507               -91.9839
 Red. masses --     1.3660                 5.6944                 5.8953
 Frc consts  --     0.0221                 0.0448                 0.0294
 IR Inten    --   121.3772                 0.1974                 0.1963
 Raman Activ --     0.6139                 0.1418                 0.0815

                     7                      8                      9
                     A                      A                      A
 Frequencies --   -37.1698                14.0202                43.3121
 Red. masses --     5.9433                 6.2857                 5.8889
 Frc consts  --     0.0048                 0.0007                 0.0065
 IR Inten    --     0.9771                 0.4667                 0.7717
 Raman Activ --     0.0614                 0.2016                 0.1046

                    10                     11                     12
                     A                      A                      A
 Frequencies --    55.9409                58.9267               115.0174
 Red. masses --     6.5751                 6.1168                 6.0538
 Frc consts  --     0.0121                 0.0125                 0.0472
 IR Inten    --     1.8200                 0.6683                 2.8952
 Raman Activ --     0.0738                 0.0774                 0.5974

                    13                     14                     15
                     A                      A                      A
 Frequencies --   138.6696               151.9847               171.3624
 Red. masses --     6.0782                 6.6764                 5.8883
 Frc consts  --     0.0689                 0.0909                 0.1019
 IR Inten    --     1.4365                 0.8747                 0.2414
 Raman Activ --     0.2202                 0.8731                 0.2953

                    16                     17                     18
                     A                      A                      A
 Frequencies --   227.8019               235.1326               244.8154
 Red. masses --     4.7088                 4.6207                 5.1187
 Frc consts  --     0.1440                 0.1505                 0.1808
 IR Inten    --     1.4465                 2.7681                 0.6902
 Raman Activ --     0.8104                 0.8310                 1.0754

                    19                     20                     21
                     A                      A                      A
 Frequencies --   258.8245               275.0298               288.1259
 Red. masses --     5.2692                 5.9976                 5.1705
 Frc consts  --     0.2080                 0.2673                 0.2529
 IR Inten    --     3.3497                 0.9315                 4.4017
 Raman Activ --     0.4837                 1.2548                 1.8758

                    22                     23                     24
                     A                      A                      A
 Frequencies --   297.5667               306.7869               319.5779
 Red. masses --     7.7551                 5.8965                 5.2111
 Frc consts  --     0.4046                 0.3270                 0.3136
 IR Inten    --     1.0655                 1.6712                 4.7312
 Raman Activ --     0.3608                 0.7236                 0.7701

                    25                     26                     27
                     A                      A                      A
 Frequencies --   349.6699               358.9980               399.7622
 Red. masses --     6.1371                 3.7790                 4.1224
 Frc consts  --     0.4421                 0.2870                 0.3882
 IR Inten    --     1.8535                 8.1199                15.8443
 Raman Activ --     0.9190                 2.5260                 5.6783

                    28                     29                     30
                     A                      A                      A
 Frequencies --   404.9731               421.7341               447.5572
 Red. masses --     6.3253                 4.9266                 5.6355
 Frc consts  --     0.6112                 0.5163                 0.6651
 IR Inten    --     5.7500                 5.7696                 1.1848
 Raman Activ --     3.8670                 1.7486                 0.9936

                    31                     32                     33
                     A                      A                      A
 Frequencies --   470.3265               480.5870               509.8514
 Red. masses --     4.8931                 4.8542                 3.9112
 Frc consts  --     0.6377                 0.6606                 0.5990
 IR Inten    --     6.9919                 4.7547                 1.5372
 Raman Activ --     2.8737                 1.3151                 1.6850

                    34                     35                     36
                     A                      A                      A
 Frequencies --   526.1213               542.3521               564.1545
 Red. masses --     5.6579                 5.1476                 4.2926
 Frc consts  --     0.9227                 0.8921                 0.8049
 IR Inten    --    21.4998                 2.3265                11.0488
 Raman Activ --     1.6053                 7.4986                 2.7786

                    37                     38                     39
                     A                      A                      A
 Frequencies --   578.5832               598.7956               614.4395
 Red. masses --     3.7841                 3.1677                 3.4534
 Frc consts  --     0.7463                 0.6692                 0.7682
 IR Inten    --    23.7034                 4.6724                37.8766
 Raman Activ --     0.7434                 0.4199                 0.6380

                    40                     41                     42
                     A                      A                      A
 Frequencies --   641.2286               648.9841               658.8866
 Red. masses --     1.1167                 2.8004                 1.2663
 Frc consts  --     0.2705                 0.6949                 0.3239
 IR Inten    --    95.6542                 6.8947               127.0145
 Raman Activ --     1.0800                 0.2368                 0.6658

                    43                     44                     45
                     A                      A                      A
 Frequencies --   669.4139               671.7317               679.6533
 Red. masses --     1.1124                 1.0794                 1.0837
 Frc consts  --     0.2937                 0.2870                 0.2949
 IR Inten    --   161.4220                84.7070               188.1133
 Raman Activ --     1.6010                 2.4352                 2.2348

                    46                     47                     48
                     A                      A                      A
 Frequencies --   708.6760               713.0004               825.0299
 Red. masses --     1.1774                 3.6815                 2.5841
 Frc consts  --     0.3484                 1.1027                 1.0363
 IR Inten    --    46.2603                 0.7070                 8.3767
 Raman Activ --     0.7141                 0.6969                 2.7178

                    49                     50                     51
                     A                      A                      A
 Frequencies --   862.4446               906.3139               956.3179
 Red. masses --     2.8098                 2.2211                 6.6653
 Frc consts  --     1.2313                 1.0749                 3.5915
 IR Inten    --     6.1141                28.4035               129.4868
 Raman Activ --     4.4867                 1.3219                 1.8225

                    52                     53                     54
                     A                      A                      A
 Frequencies --   988.7058               991.0866              1001.8053
 Red. masses --     3.6121                 5.6150                 5.6646
 Frc consts  --     2.0804                 3.2496                 3.3496
 IR Inten    --    44.8653                35.8442               551.8977
 Raman Activ --     1.7236                 1.7471                 1.1995

                    55                     56                     57
                     A                      A                      A
 Frequencies --  1009.6603              1014.9549              1026.6776
 Red. masses --     3.2358                 5.7784                 8.0866
 Frc consts  --     1.9435                 3.5071                 5.0221
 IR Inten    --    47.7037               156.3152               254.9744
 Raman Activ --     6.1375                 4.5462                 2.2239

                    58                     59                     60
                     A                      A                      A
 Frequencies --  1040.4505              1047.0096              1059.5359
 Red. masses --     2.3071                 4.0824                 4.1547
 Frc consts  --     1.4715                 2.6368                 2.7480
 IR Inten    --    20.3414               156.5133                38.2790
 Raman Activ --     2.6613                 3.6643                 5.4142

                    61                     62                     63
                     A                      A                      A
 Frequencies --  1064.3884              1070.6872              1082.6149
 Red. masses --     4.9151                 5.5863                 4.6684
 Frc consts  --     3.2808                 3.7731                 3.2238
 IR Inten    --   116.1080                27.5103                43.2727
 Raman Activ --     5.1632                 4.6789                 4.1995

                    64                     65                     66
                     A                      A                      A
 Frequencies --  1104.1916              1114.2826              1125.4775
 Red. masses --     3.4016                 3.1214                 3.2075
 Frc consts  --     2.4435                 2.2834                 2.3938
 IR Inten    --    57.3022                15.2040                46.0830
 Raman Activ --     6.0457                 2.2343                 4.9016

                    67                     68                     69
                     A                      A                      A
 Frequencies --  1128.0789              1136.0099              1143.5286
 Red. masses --     3.0490                 1.6288                 2.1246
 Frc consts  --     2.2860                 1.2385                 1.6369
 IR Inten    --     6.4158                 8.6058                 9.0469
 Raman Activ --     1.9136                 2.3639                 5.6232

                    70                     71                     72
                     A                      A                      A
 Frequencies --  1144.4830              1154.1111              1161.2968
 Red. masses --     1.9054                 2.0927                 2.2389
 Frc consts  --     1.4705                 1.6423                 1.7790
 IR Inten    --    53.3382                22.9293                 6.1342
 Raman Activ --     4.7565                 4.7369                 1.1469

                    73                     74                     75
                     A                      A                      A
 Frequencies --  1165.5179              1185.4547              1185.5841
 Red. masses --     1.7298                 2.7319                 1.9631
 Frc consts  --     1.3844                 2.2620                 1.6258
 IR Inten    --    13.8778                56.3062                56.7347
 Raman Activ --     0.7411                 0.8539                 2.4818

                    76                     77                     78
                     A                      A                      A
 Frequencies --  1203.3134              1205.0179              1228.5919
 Red. masses --     1.5149                 2.7901                 1.2832
 Frc consts  --     1.2924                 2.3870                 1.1412
 IR Inten    --     8.6763                23.4653                27.1714
 Raman Activ --     4.1078                 2.5500                 0.5236

                    79                     80                     81
                     A                      A                      A
 Frequencies --  1236.0119              1267.4038              1274.7015
 Red. masses --     1.4553                 1.2144                 1.2162
 Frc consts  --     1.3099                 1.1493                 1.1643
 IR Inten    --     9.7448                 1.4109                18.1663
 Raman Activ --     2.8605                 0.5501                 4.7322

                    82                     83                     84
                     A                      A                      A
 Frequencies --  1276.3371              1282.8478              1301.1942
 Red. masses --     1.2662                 1.2513                 1.2943
 Frc consts  --     1.2153                 1.2133                 1.2911
 IR Inten    --     1.8381                 3.8654                10.1354
 Raman Activ --     1.9695                 3.9449                 2.6170

                    85                     86                     87
                     A                      A                      A
 Frequencies --  1302.1970              1315.2290              1319.7403
 Red. masses --     1.2298                 1.1925                 1.1885
 Frc consts  --     1.2287                 1.2154                 1.2196
 IR Inten    --    27.1629                13.4931                 1.2607
 Raman Activ --     3.5686                 4.4543                13.3268

                    88                     89                     90
                     A                      A                      A
 Frequencies --  1331.4190              1346.9381              1349.8879
 Red. masses --     1.4034                 1.3891                 1.6086
 Frc consts  --     1.4658                 1.4848                 1.7270
 IR Inten    --    15.0189                 7.3774                25.8304
 Raman Activ --     3.2731                 5.2546                 4.6464

                    91                     92                     93
                     A                      A                      A
 Frequencies --  1362.1311              1370.4430              1376.6703
 Red. masses --     1.3198                 1.4102                 1.3416
 Frc consts  --     1.4427                 1.5605                 1.4980
 IR Inten    --    22.7824                14.3114                26.9021
 Raman Activ --     4.2714                 6.8420                 0.9734

                    94                     95                     96
                     A                      A                      A
 Frequencies --  1381.1769              1390.3896              1393.5922
 Red. masses --     1.3882                 1.3086                 1.1835
 Frc consts  --     1.5602                 1.4905                 1.3543
 IR Inten    --     0.6103                20.2689                16.7103
 Raman Activ --     1.0739                 5.7135                 1.6811

                    97                     98                     99
                     A                      A                      A
 Frequencies --  1397.9339              1410.2224              1426.0927
 Red. masses --     1.2167                 1.1448                 1.2170
 Frc consts  --     1.4009                 1.3414                 1.4582
 IR Inten    --    10.4343                22.9165                25.7850
 Raman Activ --    11.3883                 1.1165                 6.2314

                   100                    101                    102
                     A                      A                      A
 Frequencies --  1430.8539              1448.3446              1466.0337
 Red. masses --     1.2951                 1.4451                 1.0962
 Frc consts  --     1.5622                 1.7860                 1.3881
 IR Inten    --     9.5381                 3.3018                 6.8778
 Raman Activ --     3.9147                 0.7816                 7.0223

                   103                    104                    105
                     A                      A                      A
 Frequencies --  1468.7555              1475.8342              1476.9715
 Red. masses --     1.3280                 1.0828                 1.2834
 Frc consts  --     1.6879                 1.3896                 1.6495
 IR Inten    --    32.3775                 4.4939                12.9812
 Raman Activ --     7.7274                 5.8585                 1.4960

                   106                    107                    108
                     A                      A                      A
 Frequencies --  1493.4773              1512.7813              3252.3050
 Red. masses --     1.3664                 1.3276                 1.0806
 Frc consts  --     1.7956                 1.7901                 6.7341
 IR Inten    --    59.2236                84.3443                 7.4337
 Raman Activ --     2.1094                 1.3483                 5.6324

                   109                    110                    111
                     A                      A                      A
 Frequencies --  3259.1148              3266.5509              3268.6779
 Red. masses --     1.0787                 1.0712                 1.0603
 Frc consts  --     6.7509                 6.7343                 6.6744
 IR Inten    --    23.5912                18.2079                50.4262
 Raman Activ --    81.8782               242.2826               152.0174

                   112                    113                    114
                     A                      A                      A
 Frequencies --  3273.1258              3284.1579              3295.2677
 Red. masses --     1.0680                 1.0837                 1.0854
 Frc consts  --     6.7415                 6.8867                 6.9443
 IR Inten    --    15.5794               111.7322                 1.6162
 Raman Activ --    12.1590                19.5196                24.7541

                   115                    116                    117
                     A                      A                      A
 Frequencies --  3300.5674              3304.7580              3309.1162
 Red. masses --     1.0849                 1.0848                 1.0863
 Frc consts  --     6.9635                 6.9802                 7.0082
 IR Inten    --     3.9519                 9.3504                12.5359
 Raman Activ --   144.5720                47.0193                40.0724

                   118                    119                    120
                     A                      A                      A
 Frequencies --  3317.4350              3318.0164              3319.3872
 Red. masses --     1.1029                 1.0882                 1.0872
 Frc consts  --     7.1514                 7.0585                 7.0577
 IR Inten    --    37.9926                17.3029                63.5916
 Raman Activ --    55.0964                38.2413                12.0315

                   121                    122                    123
                     A                      A                      A
 Frequencies --  3329.9767              3374.6016              3379.4504
 Red. masses --     1.1056                 1.0634                 1.0655
 Frc consts  --     7.2234                 7.1349                 7.1695
 IR Inten    --    32.9139                57.5219                53.2341
 Raman Activ --    59.3877                85.1033               166.7187

                   124                    125                    126
                     A                      A                      A
 Frequencies --  3389.8844              3394.7461              3403.4233
 Red. masses --     1.0672                 1.0677                 1.0662
 Frc consts  --     7.2257                 7.2494                 7.2764
 IR Inten    --    40.5817                41.4074                53.7856
 Raman Activ --   176.4893                87.2104                65.3688

                   127                    128                    129
                     A                      A                      A
 Frequencies --  3404.6298              3912.0145              3917.6737
 Red. masses --     1.0664                 1.0669                 1.0677
 Frc consts  --     7.2830                 9.6201                 9.6553
 IR Inten    --    47.0915                37.3940                79.0285
 Raman Activ --   107.4887               176.1557               118.3067

 - Thermochemistry -
 -------------------
 Temperature   298.150 Kelvin.  Pressure   1.00000 Atm.
 Atom     1 has atomic number  8 and mass  15.99491

 Molecular mass:   342.11621 amu.
 Principal axes and moments of inertia in atomic units:
                           1         2         3
     Eigenvalues --  4509.93873********************
           X            0.99998  -0.00656   0.00181
           Y            0.00657   0.99997  -0.00431
           Z           -0.00178   0.00432   0.99999
 This molecule is an asymmetric top.
 Rotational symmetry number  1.
 Warning -- assumption of classical behavior for rotation
           may cause significant error
 Rotational temperatures (Kelvin)      0.01921     0.00720     0.00555
 Rotational constants (GHZ):           0.40017     0.14997     0.11570
    7 imaginary frequencies ignored.
 Zero-point vibrational energy     977082.8 (Joules/Mol)
                                  233.52840 (Kcal/Mol)
 Warning -- explicit consideration of  32 degrees of freedom as
           vibrations may cause significant error
 Vibrational temperatures:     20.17    62.32    80.49    84.78   165.48
          (Kelvin)            199.51   218.67   246.55   327.76   338.30
                              352.23   372.39   395.71   414.55   428.13
                              441.40   459.80   503.10   516.52   575.17
                              582.67   606.78   643.93   676.69   691.46
                              733.56   756.97   780.32   811.69   832.45
                              861.53   884.04   922.58   933.74   947.99
                              963.14   966.47   977.87  1019.63  1025.85
                             1187.03  1240.86  1303.98  1375.93  1422.53
                             1425.95  1441.37  1452.67  1460.29  1477.16
                             1496.97  1506.41  1524.43  1531.42  1540.48
                             1557.64  1588.68  1603.20  1619.31  1623.05
                             1634.46  1645.28  1646.65  1660.51  1670.85
                             1676.92  1705.60  1705.79  1731.30  1733.75
                             1767.67  1778.34  1823.51  1834.01  1836.36
                             1845.73  1872.13  1873.57  1892.32  1898.81
                             1915.61  1937.94  1942.19  1959.80  1971.76
                             1980.72  1987.20  2000.46  2005.07  2011.31
                             2028.99  2051.83  2058.68  2083.84  2109.29
                             2113.21  2123.39  2125.03  2148.78  2176.55
                             4679.34  4689.13  4699.83  4702.89  4709.29
                             4725.16  4741.15  4748.77  4754.80  4761.07
                             4773.04  4773.88  4775.85  4791.09  4855.29
                             4862.27  4877.28  4884.28  4896.76  4898.50
                             5628.51  5636.65

 Zero-point correction=                           0.372151 (Hartree/Particle)
 Thermal correction to Energy=                    0.390926
 Thermal correction to Enthalpy=                  0.391870
 Thermal correction to Gibbs Free Energy=         0.324361
 Sum of electronic and zero-point Energies=          -1297.505843
 Sum of electronic and thermal Energies=             -1297.487069
 Sum of electronic and thermal Enthalpies=           -1297.486124
 Sum of electronic and thermal Free Energies=        -1297.553633

                     E (Thermal)             CV                S
                      KCal/Mol        Cal/Mol-Kelvin    Cal/Mol-Kelvin
 Total                  245.310             76.465            142.084
 Electronic               0.000              0.000              0.000
 Translational            0.889              2.981             43.384
 Rotational               0.889              2.981             35.092
 Vibrational            243.532             70.503             63.608
 Vibration     1          0.593              1.986              7.340
 Vibration     2          0.595              1.980              5.102
 Vibration     3          0.596              1.975              4.595
 Vibration     4          0.596              1.974              4.493
 Vibration     5          0.608              1.937              3.182
 Vibration     6          0.614              1.915              2.822
 Vibration     7          0.619              1.900              2.647
 Vibration     8          0.626              1.878              2.420
 Vibration     9          0.651              1.799              1.896
 Vibration    10          0.655              1.787              1.839
 Vibration    11          0.660              1.771              1.768
 Vibration    12          0.668              1.748              1.670
 Vibration    13          0.677              1.720              1.564
 Vibration    14          0.685              1.696              1.485
 Vibration    15          0.691              1.678              1.431
 Vibration    16          0.697              1.661              1.380
 Vibration    17          0.706              1.636              1.312
 Vibration    18          0.727              1.576              1.168
 Vibration    19          0.734              1.557              1.126
 Vibration    20          0.766              1.471              0.964
 Vibration    21          0.770              1.459              0.945
 Vibration    22          0.784              1.423              0.886
 Vibration    23          0.807              1.366              0.803
 Vibration    24          0.827              1.316              0.737
 Vibration    25          0.837              1.293              0.708
 Vibration    26          0.865              1.228              0.634
 Vibration    27          0.881              1.192              0.596
 Vibration    28          0.897              1.156              0.560
 Vibration    29          0.920              1.109              0.516
 Vibration    30          0.935              1.078              0.488
 Vibration    31          0.957              1.034              0.452
 Vibration    32          0.974              1.001              0.425

 Normal termination of Gaussian 09 at Tue Mar  1 16:54:17 2016.
