 Gaussian 09, Revision B.01,
 Gaussian 09:  EM64L-G09RevB.01 12-Aug-2010

 --------------------------------------------------
 # freq=raman b3lyp/6-31+g(2df,p) geom=connectivity
 --------------------------------------------------

 ------------
 290 8000.com
 ------------
 Symbolic Z-matrix:
 Charge =  0 Multiplicity = 1

                         Standard orientation:
 ---------------------------------------------------------------------
 Center     Atomic      Atomic             Coordinates (Angstroms)
 Number     Number       Type             X           Y           Z
 ---------------------------------------------------------------------
      1          8           0        5.039372   -0.360578   -0.287078
      2          6           0        3.722180   -0.128345    0.233461
      3          6           0        3.270770    1.220946   -0.301376
      4          8           0        4.215216    2.296889   -0.204424
      5          1           0        5.166762    1.990201   -0.217837
      6          6           0        1.883268    1.525149    0.239238
      7          8           0        1.298113    2.742814   -0.243562
      8          1           0        0.322207    2.850578   -0.052076
      9          6           0        3.145333   -2.512612    0.267293
     10          8           0        4.283766   -3.200721   -0.270895
     11          1           0        4.175707   -4.159003   -0.006441
     12          6           0        2.701869   -1.150285   -0.239226
     13          8           0        1.377372   -0.913499    0.259338
     14          6           0        0.942850    0.394071   -0.142592
     15          8           0       -0.319358    0.623974    0.498981
     16          6           0       -1.555483    0.209878   -0.102283
     17          6           0       -2.013168   -1.152225    0.392563
     18          8           0       -1.063087   -2.221917    0.282367
     19          1           0       -0.163131   -1.787287    0.312214
     20          6           0       -3.331051   -1.444642   -0.306715
     21          8           0       -3.955306   -2.693238    0.025510
     22          1           0       -4.905082   -2.809159   -0.267273
     23          6           0       -2.271841    2.556397   -0.084287
     24          8           0       -1.201151    3.401337    0.361883
     25          1           0       -1.314478    4.353766    0.076644
     26          6           0       -2.609858    1.166102    0.429475
     27          8           0       -3.846844    0.868929   -0.234378
     28          6           0       -4.385317   -0.422032    0.086500
     29          8           0       -5.587430   -0.648817   -0.654035
     30          1           0        5.641827   -0.544816    0.437287
     31          1           0        3.749899   -0.106555    1.302880
     32          1           0        3.134475    1.071933   -1.352146
     33          1           0        1.939190    1.575711    1.306579
     34          1           0        0.801374    0.402736   -1.203163
     35          1           0        2.680613   -1.160161   -1.308969
     36          1           0        2.308370   -3.169161    0.151810
     37          1           0       -1.503614    0.242476   -1.170528
     38          1           0       -2.231725   -1.044540    1.434454
     39          1           0       -2.698081    1.133045    1.495319
     40          1           0       -3.162533    3.132695    0.055171
     41          1           0       -2.117975    2.438348   -1.136565
     42          1           0       -4.583709   -0.485562    1.136026
     43          1           0       -6.302993   -0.853556   -0.047691
     44          1           0       -3.180260   -1.401205   -1.365146
     45          1           0        3.320548   -2.406277    1.317480
 ---------------------------------------------------------------------

 SCF Done:  E(RB3LYP) =  -1298.00007656     A.U. after   13 cycles

 The electronic state is 1-A.
 Alpha  occ. eigenvalues --  -19.19700 -19.18886 -19.18723 -19.18366 -19.17954
 Alpha  occ. eigenvalues --  -19.17367 -19.16450 -19.15089 -19.14760 -19.13904
 Alpha  occ. eigenvalues --  -19.12654 -10.30833 -10.30737 -10.26793 -10.26127
 Alpha  occ. eigenvalues --  -10.25963 -10.25532 -10.25173 -10.24564 -10.24381
 Alpha  occ. eigenvalues --  -10.24329 -10.24141 -10.24014  -1.10453  -1.09352
 Alpha  occ. eigenvalues --   -1.05757  -1.05284  -1.04510  -1.04028  -1.02803
 Alpha  occ. eigenvalues --   -1.02015  -1.01160  -1.00336  -0.99272  -0.82973
 Alpha  occ. eigenvalues --   -0.81399  -0.79713  -0.78597  -0.71799  -0.69879
 Alpha  occ. eigenvalues --   -0.67445  -0.64387  -0.63277  -0.62812  -0.61890
 Alpha  occ. eigenvalues --   -0.61016  -0.56705  -0.56101  -0.55620  -0.55127
 Alpha  occ. eigenvalues --   -0.54351  -0.53842  -0.52786  -0.51392  -0.51139
 Alpha  occ. eigenvalues --   -0.50505  -0.50482  -0.49862  -0.48713  -0.46711
 Alpha  occ. eigenvalues --   -0.46375  -0.45557  -0.44804  -0.43871  -0.43358
 Alpha  occ. eigenvalues --   -0.42665  -0.41902  -0.41491  -0.40465  -0.39848
 Alpha  occ. eigenvalues --   -0.39688  -0.37608  -0.36951  -0.36643  -0.36039
 Alpha  occ. eigenvalues --   -0.35521  -0.34283  -0.33987  -0.33778  -0.33514
 Alpha  occ. eigenvalues --   -0.33030  -0.31584  -0.30696  -0.30170  -0.29969
 Alpha  occ. eigenvalues --   -0.29630  -0.28712  -0.27504  -0.27131  -0.26804
 Alpha  occ. eigenvalues --   -0.26678
 Alpha virt. eigenvalues --   -0.02268  -0.02150  -0.01957  -0.00335   0.00061
 Alpha virt. eigenvalues --    0.01055   0.01717   0.01918   0.03308   0.03651
 Alpha virt. eigenvalues --    0.03882   0.04399   0.04800   0.05245   0.05668

 Mulliken atomic charges:
              1
     1  O   -0.434378
     2  C   -0.185626
     3  C   -0.010438
     4  O   -0.481556
     5  H    0.355396
     6  C   -0.006591
     7  O   -0.514623
     8  H    0.468698
     9  C   -0.344574
    10  O   -0.438791
    11  H    0.341842
    12  C    0.073623
    13  O   -0.066021
    14  C   -0.024880
    15  O   -0.055562
    16  C   -0.161128
    17  C    0.097335
    18  O   -0.502015
    19  H    0.423136
    20  C    0.050362
    21  O   -0.474978
    22  H    0.354371
    23  C   -0.376117
    24  O   -0.511011
    25  H    0.370124
    26  C    0.065718
    27  O   -0.068773
    28  C   -0.048797
    29  O   -0.485111
    30  H    0.352405
    31  H    0.130271
    32  H    0.114481
    33  H    0.127122
    34  H    0.129965
    35  H    0.131062
    36  H    0.147426
    37  H    0.133456
    38  H    0.115366
    39  H    0.144129
    40  H    0.149234
    41  H    0.154295
    42  H    0.136617
    43  H    0.356040
    44  H    0.130202
    45  H    0.138292
 Sum of Mulliken atomic charges =   0.00000

 Dipole moment (field-independent basis, Debye):
    X=             -2.3504    Y=             -0.1246    Z=              2.2663  Tot=              3.2674
 Quadrupole moment (field-independent basis, Debye-Ang):
   XX=           -115.3341   YY=           -141.4407   ZZ=           -138.0110
   XY=            -16.0220   XZ=              3.8757   YZ=             -1.7077

  Exact polarizability: 236.536   2.158 197.005   0.743  -1.190 142.932
 Approx polarizability: 278.010   2.904 257.325   0.449  -2.048 237.622

 ******    7 imaginary frequencies (negative Signs) ******

                     1                      2                      3
                     A                      A                      A
 Frequencies --  -300.6317              -299.4258              -208.4683
 Red. masses --     1.7433                 1.7297                 1.1836
 Frc consts  --     0.0928                 0.0914                 0.0303
 IR Inten    --     5.3035                11.3213                90.0216
 Raman Activ --     0.0309                 0.0689                 0.5590

                     4                      5                      6
                     A                      A                      A
 Frequencies --   -87.3240               -67.1056               -19.3115
 Red. masses --     4.5820                 1.6238                 6.9090
 Frc consts  --     0.0206                 0.0043                 0.0015
 IR Inten    --    14.2684                95.6465                 4.0496
 Raman Activ --     0.0644                 0.6144                 0.0262

                     7                      8                      9
                     A                      A                      A
 Frequencies --   -13.8502                45.5720                82.5959
 Red. masses --     4.9896                 5.6926                 5.9767
 Frc consts  --     0.0006                 0.0070                 0.0240
 IR Inten    --     5.6966                 2.0725                 5.3866
 Raman Activ --     0.0468                 0.0689                 0.4679

                    10                     11                     12
                     A                      A                      A
 Frequencies --    98.1109                98.9225               147.2606
 Red. masses --     7.1730                 7.0606                 6.0192
 Frc consts  --     0.0407                 0.0407                 0.0769
 IR Inten    --     1.3180                 2.7889                 1.9455
 Raman Activ --     0.0806                 0.0559                 0.0878

                    13                     14                     15
                     A                      A                      A
 Frequencies --   166.3503               181.3699               194.4729
 Red. masses --     6.1100                 6.4831                 6.8664
 Frc consts  --     0.0996                 0.1256                 0.1530
 IR Inten    --    11.1711                 1.2606                 0.4805
 Raman Activ --     0.2538                 0.8396                 0.2860

                    16                     17                     18
                     A                      A                      A
 Frequencies --   210.6197               241.5310               277.1668
 Red. masses --     7.0189                 5.7601                 4.3286
 Frc consts  --     0.1834                 0.1980                 0.1959
 IR Inten    --     0.6325                 1.0568                19.3779
 Raman Activ --     2.8488                 0.4605                 0.3662

                    19                     20                     21
                     A                      A                      A
 Frequencies --   290.6926               303.4303               306.1651
 Red. masses --     4.4879                 4.9981                 4.9920
 Frc consts  --     0.2234                 0.2711                 0.2757
 IR Inten    --     1.1620                 5.1330                 4.2099
 Raman Activ --     0.1002                 0.5314                 0.3442

                    22                     23                     24
                     A                      A                      A
 Frequencies --   313.2254               316.6310               340.1639
 Red. masses --     6.1493                 6.1394                 5.0125
 Frc consts  --     0.3555                 0.3626                 0.3417
 IR Inten    --     8.0116                 1.4776                 1.2180
 Raman Activ --     2.1708                 5.1806                 1.4464

                    25                     26                     27
                     A                      A                      A
 Frequencies --   350.1424               358.6702               381.1470
 Red. masses --     6.3052                 4.5751                 5.5651
 Frc consts  --     0.4554                 0.3468                 0.4763
 IR Inten    --    22.5444                 2.5776                 4.9776
 Raman Activ --     0.8823                 0.6233                 1.0424

                    28                     29                     30
                     A                      A                      A
 Frequencies --   410.3355               427.0229               432.4318
 Red. masses --     5.7873                 5.5875                 5.6372
 Frc consts  --     0.5741                 0.6003                 0.6211
 IR Inten    --    15.2282                 3.3235                 3.8953
 Raman Activ --     1.3974                 6.4722                 1.5287

                    31                     32                     33
                     A                      A                      A
 Frequencies --   437.4479               472.9659               491.3735
 Red. masses --     5.5070                 4.5053                 4.4392
 Frc consts  --     0.6209                 0.5938                 0.6315
 IR Inten    --     5.5861                 3.4327                 8.3618
 Raman Activ --     4.5450                 5.2295                 0.2470

                    34                     35                     36
                     A                      A                      A
 Frequencies --   519.0322               526.6956               573.1747
 Red. masses --     3.1915                 3.4311                 3.8638
 Frc consts  --     0.5066                 0.5608                 0.7479
 IR Inten    --     5.1975                12.6257                10.9551
 Raman Activ --     3.8214                 2.1929                 0.6451

                    37                     38                     39
                     A                      A                      A
 Frequencies --   586.2440               597.9925               608.9363
 Red. masses --     3.3620                 5.1730                 4.0272
 Frc consts  --     0.6808                 1.0899                 0.8798
 IR Inten    --    19.3995                 1.6953                42.2232
 Raman Activ --     0.6212                 1.0772                 1.3328

                    40                     41                     42
                     A                      A                      A
 Frequencies --   622.0750               674.2635               694.2017
 Red. masses --     4.1610                 5.1007                 1.0776
 Frc consts  --     0.9487                 1.3663                 0.3060
 IR Inten    --    16.8549                11.9512                57.2855
 Raman Activ --     1.5716                 0.6567                 1.8153

                    43                     44                     45
                     A                      A                      A
 Frequencies --   707.8806               709.3132               714.3249
 Red. masses --     1.0733                 1.0461                 1.0666
 Frc consts  --     0.3169                 0.3101                 0.3207
 IR Inten    --    76.5992               113.2721               124.4096
 Raman Activ --     2.4619                 1.5376                 1.7082

                    46                     47                     48
                     A                      A                      A
 Frequencies --   778.5725               825.8921               856.5267
 Red. masses --     1.0703                 1.1042                 1.7859
 Frc consts  --     0.3823                 0.4437                 0.7720
 IR Inten    --    57.9704                77.6208                 1.6762
 Raman Activ --     0.5082                 0.3252                 0.3604

                    49                     50                     51
                     A                      A                      A
 Frequencies --   867.3060               921.0827               955.1851
 Red. masses --     1.6330                 5.7600                 4.5434
 Frc consts  --     0.7237                 2.8792                 2.4423
 IR Inten    --    15.5697                60.8658                38.3987
 Raman Activ --     0.1491                 3.1358                 1.5470

                    52                     53                     54
                     A                      A                      A
 Frequencies --   970.5918               978.7045               982.8954
 Red. masses --     5.2189                 4.6646                 6.4631
 Frc consts  --     2.8967                 2.6325                 3.6788
 IR Inten    --    14.2410                12.6211               264.9113
 Raman Activ --     2.0108                 0.5950                 0.7844

                    55                     56                     57
                     A                      A                      A
 Frequencies --   995.7216              1008.6387              1019.2706
 Red. masses --     5.8515                 6.3374                 4.7514
 Frc consts  --     3.4182                 3.7987                 2.9083
 IR Inten    --    79.8755               146.1876               378.0258
 Raman Activ --     2.9357                 2.6392                 4.5143

                    58                     59                     60
                     A                      A                      A
 Frequencies --  1026.0069              1045.4040              1064.7745
 Red. masses --     6.9865                 4.7222                 3.9056
 Frc consts  --     4.3332                 3.0406                 2.6089
 IR Inten    --   377.0576               139.2884                44.3238
 Raman Activ --     2.0464                 2.3137                 1.5247

                    61                     62                     63
                     A                      A                      A
 Frequencies --  1070.1130              1072.8819              1075.7469
 Red. masses --     4.6853                 3.3855                 4.4244
 Frc consts  --     3.1611                 2.2961                 3.0166
 IR Inten    --     1.7876                50.0899                 8.7848
 Raman Activ --     4.7222                19.2464                 9.9728

                    64                     65                     66
                     A                      A                      A
 Frequencies --  1098.6467              1103.9862              1108.3794
 Red. masses --     2.9642                 2.0505                 2.5311
 Frc consts  --     2.1080                 1.4724                 1.8321
 IR Inten    --    13.3412                 1.4426               128.9730
 Raman Activ --     5.6609                 4.9023                 3.8991

                    67                     68                     69
                     A                      A                      A
 Frequencies --  1116.2083              1124.6522              1130.8896
 Red. masses --     3.0151                 1.6316                 2.4503
 Frc consts  --     2.2133                 1.2159                 1.8463
 IR Inten    --    18.2908                32.4124                32.5582
 Raman Activ --    18.8101                 2.5316                 3.4571

                    70                     71                     72
                     A                      A                      A
 Frequencies --  1137.3145              1143.0980              1145.7827
 Red. masses --     2.0968                 1.9806                 2.4001
 Frc consts  --     1.5979                 1.5248                 1.8565
 IR Inten    --     6.8916                19.9922                18.5224
 Raman Activ --     2.9754                 1.4516                 5.9266

                    73                     74                     75
                     A                      A                      A
 Frequencies --  1151.4282              1161.9358              1169.4533
 Red. masses --     2.3257                 2.6922                 1.9833
 Frc consts  --     1.8167                 2.1415                 1.5981
 IR Inten    --    67.5760                60.1836                14.8948
 Raman Activ --     4.3031                 0.7385                 3.0724

                    76                     77                     78
                     A                      A                      A
 Frequencies --  1203.5558              1211.4318              1227.7795
 Red. masses --     1.5657                 1.3240                 1.3863
 Frc consts  --     1.3362                 1.1448                 1.2313
 IR Inten    --     5.5350                17.4766                 3.1711
 Raman Activ --     1.8481                 0.5889                 0.7128

                    79                     80                     81
                     A                      A                      A
 Frequencies --  1237.3359              1247.9032              1260.4215
 Red. masses --     1.3965                 1.3381                 1.2095
 Frc consts  --     1.2597                 1.2277                 1.1321
 IR Inten    --    15.9536                 5.4191                44.7607
 Raman Activ --     1.8247                 4.1764                 2.0970

                    82                     83                     84
                     A                      A                      A
 Frequencies --  1270.1364              1274.6662              1280.0118
 Red. masses --     1.3401                 1.1607                 1.3220
 Frc consts  --     1.2738                 1.1111                 1.2762
 IR Inten    --    22.1428                33.0766                19.7449
 Raman Activ --     4.1857                 8.3770                 2.5117

                    85                     86                     87
                     A                      A                      A
 Frequencies --  1280.9412              1294.3016              1303.4043
 Red. masses --     1.2480                 1.2659                 1.3097
 Frc consts  --     1.2065                 1.2495                 1.3109
 IR Inten    --    16.8025                39.9905                31.0594
 Raman Activ --     1.0894                 5.0247                 4.3071

                    88                     89                     90
                     A                      A                      A
 Frequencies --  1306.8788              1313.7019              1319.6895
 Red. masses --     1.2518                 1.3222                 1.2726
 Frc consts  --     1.2597                 1.3444                 1.3058
 IR Inten    --     3.6358                34.2988                 3.5750
 Raman Activ --     8.4706                 4.7515                 4.2403

                    91                     92                     93
                     A                      A                      A
 Frequencies --  1346.8235              1348.9679              1351.8421
 Red. masses --     1.3195                 1.1896                 1.2537
 Frc consts  --     1.4102                 1.2754                 1.3499
 IR Inten    --    12.3565                32.6873                27.2811
 Raman Activ --     3.3193                 4.3530                 3.3392

                    94                     95                     96
                     A                      A                      A
 Frequencies --  1355.9231              1360.9335              1370.8004
 Red. masses --     1.3175                 1.4490                 1.5188
 Frc consts  --     1.4271                 1.5812                 1.6816
 IR Inten    --     4.7201                14.3307                 5.2868
 Raman Activ --     9.2973                 2.0202                 0.6691

                    97                     98                     99
                     A                      A                      A
 Frequencies --  1378.3131              1379.9244              1389.4574
 Red. masses --     1.4767                 1.2614                 1.4809
 Frc consts  --     1.6529                 1.4152                 1.6845
 IR Inten    --    40.0698                12.0547                15.5332
 Raman Activ --     1.7092                 2.2879                 2.9834

                   100                    101                    102
                     A                      A                      A
 Frequencies --  1390.2103              1396.8476              1437.4714
 Red. masses --     1.3434                 1.3321                 1.3539
 Frc consts  --     1.5297                 1.5314                 1.6483
 IR Inten    --    12.8542                 5.0527                55.5193
 Raman Activ --     1.4832                 3.9105                 1.5816

                   103                    104                    105
                     A                      A                      A
 Frequencies --  1453.2981              1466.5890              1467.5853
 Red. masses --     1.1911                 1.0900                 1.1762
 Frc consts  --     1.4822                 1.3813                 1.4926
 IR Inten    --     5.9352                 8.0144                 5.7392
 Raman Activ --     3.7330                 5.3790                 1.6181

                   106                    107                    108
                     A                      A                      A
 Frequencies --  1481.4197              1518.6625              3204.8647
 Red. masses --     1.3267                 1.2120                 1.0712
 Frc consts  --     1.7155                 1.6469                 6.4826
 IR Inten    --    19.2939                41.7430              1009.7144
 Raman Activ --     0.4528                 1.2443               190.8754

                   109                    110                    111
                     A                      A                      A
 Frequencies --  3249.1777              3253.4574              3255.7034
 Red. masses --     1.0590                 1.0594                 1.0792
 Frc consts  --     6.5874                 6.6071                 6.7398
 IR Inten    --    22.8664                14.6173                65.6002
 Raman Activ --    50.0977               148.9158                83.8482

                   112                    113                    114
                     A                      A                      A
 Frequencies --  3256.8693              3272.7163              3276.4776
 Red. masses --     1.0793                 1.0820                 1.0835
 Frc consts  --     6.7452                 6.8279                 6.8531
 IR Inten    --   142.8298                 9.8851                12.4224
 Raman Activ --    67.0138                19.1321                89.6039

                   115                    116                    117
                     A                      A                      A
 Frequencies --  3276.8823              3284.1640              3286.3046
 Red. masses --     1.0788                 1.0847                 1.0773
 Frc consts  --     6.8253                 6.8931                 6.8547
 IR Inten    --   213.4896                79.3522               406.2817
 Raman Activ --    95.3354                18.1626               181.5016

                   118                    119                    120
                     A                      A                      A
 Frequencies --  3287.5572              3288.3176              3293.9597
 Red. masses --     1.0849                 1.0860                 1.0920
 Frc consts  --     6.9087                 6.9189                 6.9810
 IR Inten    --    10.9340                15.7163                29.5673
 Raman Activ --    62.0111                67.1124                 8.1647

                   121                    122                    123
                     A                      A                      A
 Frequencies --  3298.9365              3304.2499              3313.1454
 Red. masses --     1.0897                 1.0972                 1.1014
 Frc consts  --     6.9874                 7.0580                 7.1235
 IR Inten    --    57.3008               106.3437                53.8188
 Raman Activ --    20.5850                32.0645                29.7394

                   124                    125                    126
                     A                      A                      A
 Frequencies --  3345.4688              3353.9333              3357.7804
 Red. masses --     1.0663                 1.0679                 1.0675
 Frc consts  --     7.0312                 7.0778                 7.0911
 IR Inten    --    52.9244                85.0098                43.6470
 Raman Activ --   139.5689               155.8785               140.4431

                   127                    128                    129
                     A                      A                      A
 Frequencies --  3360.7556              3875.9283              3876.8374
 Red. masses --     1.0661                 1.0676                 1.0675
 Frc consts  --     7.0946                 9.4497                 9.4535
 IR Inten    --    48.2508                83.2854                82.2351
 Raman Activ --   128.2389                82.1425               115.8789

 - Thermochemistry -
 -------------------
 Temperature   298.150 Kelvin.  Pressure   1.00000 Atm.
 Atom     1 has atomic number  8 and mass  15.99491

 Molecular mass:   342.11621 amu.
 Principal axes and moments of inertia in atomic units:
                           1         2         3
     Eigenvalues --  4357.67350********************
           X            0.99997  -0.00736   0.00062
           Y            0.00736   0.99997  -0.00329
           Z           -0.00060   0.00329   0.99999
 This molecule is an asymmetric top.
 Rotational symmetry number  1.
 Warning -- assumption of classical behavior for rotation
           may cause significant error
 Rotational temperatures (Kelvin)      0.01988     0.00690     0.00523
 Rotational constants (GHZ):           0.41415     0.14373     0.10904
    7 imaginary frequencies ignored.
 Zero-point vibrational energy     972072.1 (Joules/Mol)
                                  232.33080 (Kcal/Mol)
 Warning -- explicit consideration of  32 degrees of freedom as
           vibrations may cause significant error
 Vibrational temperatures:     65.57   118.84   141.16   142.33   211.87
          (Kelvin)            239.34   260.95   279.80   303.03   347.51
                              398.78   418.24   436.57   440.50   450.66
                              455.56   489.42   503.78   516.05   548.38
                              590.38   614.39   622.17   629.39   680.49
                              706.98   746.77   757.80   824.67   843.47
                              860.38   876.12   895.03   970.11   998.80
                             1018.48  1020.54  1027.75  1120.19  1188.27
                             1232.35  1247.86  1325.23  1374.30  1396.46
                             1408.14  1414.17  1432.62  1451.20  1466.50
                             1476.19  1504.10  1531.97  1539.65  1543.64
                             1547.76  1580.71  1588.39  1594.71  1605.97
                             1618.12  1627.10  1636.34  1644.66  1648.52
                             1656.65  1671.76  1682.58  1731.65  1742.98
                             1766.50  1780.25  1795.45  1813.46  1827.44
                             1833.96  1841.65  1842.99  1862.21  1875.31
                             1880.30  1890.12  1898.74  1937.78  1940.86
                             1945.00  1950.87  1958.08  1972.27  1983.08
                             1985.40  1999.12  2000.20  2009.75  2068.20
                             2090.97  2110.09  2111.53  2131.43  2185.01
                             4611.08  4674.84  4680.99  4684.23  4685.90
                             4708.70  4714.11  4714.70  4725.17  4728.25
                             4730.06  4731.15  4739.27  4746.43  4754.07
                             4766.87  4813.38  4825.56  4831.09  4835.37
                             5576.59  5577.90

 Zero-point correction=                           0.370243 (Hartree/Particle)
 Thermal correction to Energy=                    0.388316
 Thermal correction to Enthalpy=                  0.389261
 Thermal correction to Gibbs Free Energy=         0.325497
 Sum of electronic and zero-point Energies=          -1297.629834
 Sum of electronic and thermal Energies=             -1297.611760
 Sum of electronic and thermal Enthalpies=           -1297.610816
 Sum of electronic and thermal Free Energies=        -1297.674579

                     E (Thermal)             CV                S
                      KCal/Mol        Cal/Mol-Kelvin    Cal/Mol-Kelvin
 Total                  243.672             75.961            134.201
 Electronic               0.000              0.000              0.000
 Translational            0.889              2.981             43.384
 Rotational               0.889              2.981             35.159
 Vibrational            241.895             69.999             55.658
 Vibration     1          0.595              1.979              5.001
 Vibration     2          0.600              1.961              3.828
 Vibration     3          0.604              1.950              3.492
 Vibration     4          0.604              1.950              3.475
 Vibration     5          0.617              1.906              2.707
 Vibration     6          0.624              1.884              2.476
 Vibration     7          0.630              1.865              2.314
 Vibration     8          0.635              1.848              2.185
 Vibration     9          0.643              1.825              2.038
 Vibration    10          0.658              1.777              1.792
 Vibration    11          0.678              1.716              1.551
 Vibration    12          0.687              1.691              1.470
 Vibration    13          0.695              1.667              1.398
 Vibration    14          0.697              1.662              1.383
 Vibration    15          0.701              1.648              1.345
 Vibration    16          0.704              1.642              1.327
 Vibration    17          0.720              1.595              1.211
 Vibration    18          0.727              1.575              1.166
 Vibration    19          0.734              1.557              1.128
 Vibration    20          0.751              1.510              1.035
 Vibration    21          0.775              1.448              0.925
 Vibration    22          0.789              1.411              0.868
 Vibration    23          0.793              1.400              0.851
 Vibration    24          0.798              1.389              0.835
 Vibration    25          0.830              1.310              0.729
 Vibration    26          0.847              1.269              0.680
 Vibration    27          0.874              1.208              0.612
 Vibration    28          0.882              1.191              0.595
 Vibration    29          0.929              1.089              0.498
 Vibration    30          0.943              1.061              0.474
 Vibration    31          0.956              1.036              0.453
 Vibration    32          0.968              1.013              0.435

 Normal termination of Gaussian 09 at Fri Feb 12 13:09:39 2016.
