 Gaussian 09, Revision B.01,
 Gaussian 09:  EM64L-G09RevB.01 12-Aug-2010

 -------------------------------------------------
 # freq=raman b3lyp/6-31+g(2d,p) geom=connectivity
 -------------------------------------------------

 -----------------
 350 6054/6054.com
 -----------------
 Symbolic Z-matrix:
 Charge =  0 Multiplicity = 1

                         Standard orientation:
 ---------------------------------------------------------------------
 Center     Atomic      Atomic             Coordinates (Angstroms)
 Number     Number       Type             X           Y           Z
 ---------------------------------------------------------------------
      1          8           0       -5.018488   -0.410477    0.385302
      2          6           0       -3.734774   -0.128048   -0.189796
      3          6           0       -3.204685    1.161019    0.417028
      4          8           0       -4.169153    2.221612    0.354797
      5          1           0       -5.059779    1.947517   -0.006036
      6          6           0       -1.863335    1.616547   -0.133929
      7          8           0       -1.278290    2.809612    0.409041
      8          1           0       -0.355848    2.861973    0.027584
      9          6           0       -2.981556   -2.626242   -0.247554
     10          8           0       -4.037279   -3.221025    0.522648
     11          1           0       -3.776206   -4.183976    0.450201
     12          6           0       -2.636082   -1.164434   -0.019375
     13          8           0       -1.418863   -0.706735   -0.627558
     14          6           0       -0.925752    0.438770    0.081986
     15          8           0        0.269595    0.650699   -0.684629
     16          6           0        1.500497    0.226899   -0.081846
     17          6           0        1.993588   -1.118346   -0.588469
     18          8           0        1.074801   -2.205626   -0.409937
     19          1           0        0.189001   -1.856409   -0.716208
     20          6           0        3.228295   -1.473325    0.222838
     21          8           0        3.815017   -2.715472   -0.191357
     22          1           0        4.633277   -2.886330    0.356533
     23          6           0        2.314185    2.672199    0.077270
     24          8           0        1.222694    3.283356   -0.625369
     25          1           0        1.144829    4.236537   -0.333637
     26          6           0        2.622774    1.230373   -0.292834
     27          8           0        3.782835    0.822444    0.447719
     28          6           0        4.334183   -0.442870    0.054855
     29          8           0        5.350077   -0.680889    1.038796
     30          1           0        6.176454   -0.895781    0.600022
     31          1           0       -5.647657   -0.600932   -0.314322
     32          1           0        3.192759    3.256274   -0.101234
     33          1           0        2.096308    2.707027    1.124274
     34          1           0       -2.094158   -3.196700   -0.068663
     35          1           0       -3.237107   -2.737403   -1.280626
     36          1           0       -2.421955   -1.127981    1.028347
     37          1           0       -3.874246    0.032391   -1.238465
     38          1           0       -3.047518    0.958535    1.455873
     39          1           0       -1.975178    1.760109   -1.188339
     40          1           0       -0.727866    0.236580    1.113907
     41          1           0        4.727426   -0.422698   -0.940058
     42          1           0        2.962125   -1.537909    1.257189
     43          1           0        2.255908   -1.037296   -1.622645
     44          1           0        1.333646    0.138653    0.971374
     45          1           0        2.878192    1.212573   -1.331749
 ---------------------------------------------------------------------

 SCF Done:  E(RB3LYP) =  -1297.98176695     A.U. after   13 cycles

 The electronic state is 1-A.
 Alpha  occ. eigenvalues --  -19.18809 -19.18781 -19.18427 -19.17635 -19.17524
 Alpha  occ. eigenvalues --  -19.17154 -19.16836 -19.15656 -19.14744 -19.14483
 Alpha  occ. eigenvalues --  -19.13877 -10.30613 -10.30502 -10.26205 -10.25588
 Alpha  occ. eigenvalues --  -10.25506 -10.25441 -10.25399 -10.24580 -10.24545
 Alpha  occ. eigenvalues --  -10.24415 -10.24239 -10.24096  -1.10436  -1.09241
 Alpha  occ. eigenvalues --   -1.05604  -1.05238  -1.03929  -1.03519  -1.03372
 Alpha  occ. eigenvalues --   -1.02691  -1.01572  -1.00930  -1.00025  -0.82285
 Alpha  occ. eigenvalues --   -0.80762  -0.79318  -0.78361  -0.71904  -0.70373
 Alpha  occ. eigenvalues --   -0.67366  -0.64747  -0.63076  -0.62376  -0.61858
 Alpha  occ. eigenvalues --   -0.60863  -0.56675  -0.55723  -0.55026  -0.54282
 Alpha  occ. eigenvalues --   -0.53913  -0.53655  -0.53264  -0.51694  -0.51300
 Alpha  occ. eigenvalues --   -0.50663  -0.49760  -0.49436  -0.48764  -0.46710
 Alpha  occ. eigenvalues --   -0.46189  -0.45390  -0.44754  -0.43841  -0.43639
 Alpha  occ. eigenvalues --   -0.42711  -0.41836  -0.41090  -0.40493  -0.39249
 Alpha  occ. eigenvalues --   -0.38804  -0.38044  -0.37745  -0.36932  -0.35898
 Alpha  occ. eigenvalues --   -0.35551  -0.34758  -0.34621  -0.34302  -0.33316
 Alpha  occ. eigenvalues --   -0.32990  -0.31730  -0.31095  -0.30279  -0.29861
 Alpha  occ. eigenvalues --   -0.29345  -0.28875  -0.28235  -0.27243  -0.26813
 Alpha  occ. eigenvalues --   -0.26595
 Alpha virt. eigenvalues --   -0.02220  -0.01937  -0.01685  -0.00718   0.00202
 Alpha virt. eigenvalues --    0.00944   0.01616   0.02267   0.03090   0.03340
 Alpha virt. eigenvalues --    0.03645   0.04048   0.04821   0.05281   0.05536

 Mulliken atomic charges:
              1
     1  O   -0.510650
     2  C   -0.112818
     3  C    0.079080
     4  O   -0.539895
     5  H    0.329589
     6  C   -0.002701
     7  O   -0.588036
     8  H    0.423993
     9  C   -0.268982
    10  O   -0.468123
    11  H    0.336088
    12  C    0.187723
    13  O   -0.261653
    14  C    0.312053
    15  O   -0.244141
    16  C    0.306770
    17  C   -0.022643
    18  O   -0.529440
    19  H    0.367389
    20  C    0.103379
    21  O   -0.551613
    22  H    0.336250
    23  C   -0.236366
    24  O   -0.556149
    25  H    0.362821
    26  C   -0.051064
    27  O   -0.254831
    28  C    0.119127
    29  O   -0.542080
    30  H    0.336324
    31  H    0.337223
    32  H    0.149921
    33  H    0.157427
    34  H    0.147244
    35  H    0.140157
    36  H    0.104258
    37  H    0.112872
    38  H    0.117077
    39  H    0.122678
    40  H    0.136968
    41  H    0.139106
    42  H    0.131360
    43  H    0.119903
    44  H    0.103429
    45  H    0.120977
 Sum of Mulliken atomic charges =   0.00000

 Dipole moment (field-independent basis, Debye):
    X=              2.5619    Y=             -0.6092    Z=             -2.4458  Tot=              3.5939
 Quadrupole moment (field-independent basis, Debye-Ang):
   XX=           -116.6866   YY=           -137.3033   ZZ=           -142.1419
   XY=             14.0356   XZ=              9.3900   YZ=             -3.0593

  Exact polarizability: 232.418  -1.912 196.959   2.214   0.354 144.753
 Approx polarizability: 274.637  -2.510 256.662   2.809   0.119 242.080

 ******    6 imaginary frequencies (negative Signs) ******

                     1                      2                      3
                     A                      A                      A
 Frequencies --  -304.9269              -240.8631              -213.9471
 Red. masses --     1.6967                 1.8186                 1.1947
 Frc consts  --     0.0930                 0.0622                 0.0322
 IR Inten    --     5.7303                 5.8644                95.8810
 Raman Activ --     0.2078                 0.1127                 0.8548

                     4                      5                      6
                     A                      A                      A
 Frequencies --  -184.1732               -66.9179               -45.5035
 Red. masses --     1.2226                 6.8345                 6.4235
 Frc consts  --     0.0244                 0.0180                 0.0078
 IR Inten    --   115.9304                 1.0633                 0.1204
 Raman Activ --     0.7836                 0.0334                 0.0297

                     7                      8                      9
                     A                      A                      A
 Frequencies --    25.1643                40.6534                73.2547
 Red. masses --     6.0636                 6.4461                 6.8410
 Frc consts  --     0.0023                 0.0063                 0.0216
 IR Inten    --     0.8879                 0.4776                 1.3839
 Raman Activ --     0.0372                 0.0598                 0.1278

                    10                     11                     12
                     A                      A                      A
 Frequencies --    94.7051               106.8229               132.8775
 Red. masses --     6.6560                 7.0474                 5.5192
 Frc consts  --     0.0352                 0.0474                 0.0574
 IR Inten    --     1.2203                 0.8108                 2.2176
 Raman Activ --     0.3069                 0.0493                 0.0516

                    13                     14                     15
                     A                      A                      A
 Frequencies --   150.2558               170.7337               182.5825
 Red. masses --     6.5000                 5.9408                 7.2882
 Frc consts  --     0.0865                 0.1020                 0.1431
 IR Inten    --     3.2292                 5.1849                 1.5201
 Raman Activ --     0.4410                 0.5246                 0.3159

                    16                     17                     18
                     A                      A                      A
 Frequencies --   208.7280               228.0564               273.8552
 Red. masses --     6.3972                 6.2137                 4.1959
 Frc consts  --     0.1642                 0.1904                 0.1854
 IR Inten    --     0.1474                 2.0490                14.3934
 Raman Activ --     1.3578                 1.4867                 0.2563

                    19                     20                     21
                     A                      A                      A
 Frequencies --   285.7409               296.0787               300.9620
 Red. masses --     5.1195                 4.8177                 5.3458
 Frc consts  --     0.2463                 0.2488                 0.2853
 IR Inten    --     5.9707                 1.2897                 0.7748
 Raman Activ --     0.2918                 0.1616                 1.3963

                    22                     23                     24
                     A                      A                      A
 Frequencies --   306.8416               321.0013               322.4249
 Red. masses --     6.1653                 5.7097                 4.5187
 Frc consts  --     0.3420                 0.3466                 0.2768
 IR Inten    --     5.5383                 4.0951                 0.4709
 Raman Activ --     0.4453                 2.0897                 2.3322

                    25                     26                     27
                     A                      A                      A
 Frequencies --   336.3455               353.7492               375.2792
 Red. masses --     6.8455                 4.3009                 7.5979
 Frc consts  --     0.4563                 0.3171                 0.6305
 IR Inten    --    14.5830                 7.0491                 2.8526
 Raman Activ --     3.7490                 0.3735                 2.6752

                    28                     29                     30
                     A                      A                      A
 Frequencies --   402.3426               417.8543               428.7893
 Red. masses --     4.4088                 5.5321                 5.2854
 Frc consts  --     0.4205                 0.5691                 0.5725
 IR Inten    --    20.3447                10.7348                 4.6214
 Raman Activ --     1.3715                 3.7527                 3.0014

                    31                     32                     33
                     A                      A                      A
 Frequencies --   434.5605               469.6122               488.1187
 Red. masses --     4.5762                 4.0724                 5.1561
 Frc consts  --     0.5092                 0.5292                 0.7238
 IR Inten    --     1.6988                 5.5527                 7.3178
 Raman Activ --     4.9246                 5.3132                 0.6043

                    34                     35                     36
                     A                      A                      A
 Frequencies --   508.9658               520.5182               560.9411
 Red. masses --     3.4729                 2.8527                 2.7411
 Frc consts  --     0.5301                 0.4554                 0.5082
 IR Inten    --    12.9202                 1.5695                44.4267
 Raman Activ --     1.4576                 3.6781                 0.7423

                    37                     38                     39
                     A                      A                      A
 Frequencies --   579.0554               593.2962               608.4360
 Red. masses --     2.6179                 2.8490                 3.1883
 Frc consts  --     0.5172                 0.5909                 0.6954
 IR Inten    --    23.2885                13.9139                10.9705
 Raman Activ --     1.6480                 0.9258                 1.1789

                    40                     41                     42
                     A                      A                      A
 Frequencies --   621.0896               634.6530               695.0276
 Red. masses --     5.3373                 2.0622                 6.0919
 Frc consts  --     1.2131                 0.4894                 1.7338
 IR Inten    --    27.0657                48.2362                 9.2390
 Raman Activ --     0.7091                 0.8492                 2.1664

                    43                     44                     45
                     A                      A                      A
 Frequencies --   729.2053               746.5626               768.8167
 Red. masses --     1.0946                 1.0671                 1.0856
 Frc consts  --     0.3429                 0.3504                 0.3781
 IR Inten    --    92.0821                85.7642               167.4793
 Raman Activ --     1.0896                 1.7648                 1.9967

                    46                     47                     48
                     A                      A                      A
 Frequencies --   813.8891               850.1437               857.0665
 Red. masses --     1.0819                 1.7340                 1.3818
 Frc consts  --     0.4223                 0.7384                 0.5980
 IR Inten    --   124.9418                10.5819                12.3504
 Raman Activ --     2.5065                 0.9975                 0.4704

                    49                     50                     51
                     A                      A                      A
 Frequencies --   884.0036               919.3659               951.4330
 Red. masses --     1.3743                 5.7082                 4.8916
 Frc consts  --     0.6328                 2.8427                 2.6089
 IR Inten    --    41.3958               120.9365                41.6994
 Raman Activ --     0.3824                 3.9508                 0.8422

                    52                     53                     54
                     A                      A                      A
 Frequencies --   978.8290               982.5224               983.4837
 Red. masses --     4.2883                 5.9727                 5.1759
 Frc consts  --     2.4208                 3.3971                 2.9497
 IR Inten    --    10.7641               348.1904                66.4204
 Raman Activ --     1.2998                 0.8050                 2.8405

                    55                     56                     57
                     A                      A                      A
 Frequencies --   997.6811              1002.6389              1013.2899
 Red. masses --     6.9648                 5.0591                 5.2184
 Frc consts  --     4.0846                 2.9965                 3.1569
 IR Inten    --    60.5054                83.6139                98.4843
 Raman Activ --     0.7749                 4.1977                 2.2413

                    58                     59                     60
                     A                      A                      A
 Frequencies --  1029.8623              1049.4062              1063.3274
 Red. masses --     6.9223                 4.7948                 5.7769
 Frc consts  --     4.3258                 3.1111                 3.8484
 IR Inten    --   357.5146               210.5231                70.2548
 Raman Activ --     2.6551                 1.6661                 0.7906

                    61                     62                     63
                     A                      A                      A
 Frequencies --  1069.1275              1072.8793              1079.4956
 Red. masses --     3.1846                 4.5936                 2.7871
 Frc consts  --     2.1447                 3.1153                 1.9135
 IR Inten    --     6.9339                15.0921                 1.5538
 Raman Activ --     6.3040                 5.8606                18.7546

                    64                     65                     66
                     A                      A                      A
 Frequencies --  1093.8116              1096.0657              1105.3307
 Red. masses --     2.5100                 2.6384                 2.7617
 Frc consts  --     1.7694                 1.8675                 1.9880
 IR Inten    --    58.4001                48.8205                19.0023
 Raman Activ --     1.8221                 4.5417                 5.3848

                    67                     68                     69
                     A                      A                      A
 Frequencies --  1117.8496              1128.0679              1132.1084
 Red. masses --     3.8260                 3.2619                 2.4443
 Frc consts  --     2.8168                 2.4456                 1.8458
 IR Inten    --    59.8993                25.2834                28.6094
 Raman Activ --    16.2517                 4.6249                 5.5338

                    70                     71                     72
                     A                      A                      A
 Frequencies --  1137.3200              1155.7383              1164.0839
 Red. masses --     1.6420                 2.2244                 2.9366
 Frc consts  --     1.2514                 1.7506                 2.3446
 IR Inten    --     9.9638                22.9529                55.3324
 Raman Activ --     2.9200                 2.1155                 9.1764

                    73                     74                     75
                     A                      A                      A
 Frequencies --  1168.6798              1183.7149              1203.1930
 Red. masses --     1.9716                 1.9704                 1.4530
 Frc consts  --     1.5866                 1.6267                 1.2393
 IR Inten    --     1.2233                 1.5861                 9.2591
 Raman Activ --     1.9248                 1.6890                 2.5056

                    76                     77                     78
                     A                      A                      A
 Frequencies --  1206.7764              1221.0569              1223.0641
 Red. masses --     1.6361                 1.2731                 1.2615
 Frc consts  --     1.4039                 1.1184                 1.1118
 IR Inten    --     3.0466                 6.9035                16.9263
 Raman Activ --     3.0553                 1.5809                 1.2044

                    79                     80                     81
                     A                      A                      A
 Frequencies --  1232.1737              1241.5787              1243.0755
 Red. masses --     1.2540                 1.5748                 1.3367
 Frc consts  --     1.1217                 1.4303                 1.2169
 IR Inten    --     3.3465                18.4914                 9.9233
 Raman Activ --     1.1307                 1.1822                 1.7677

                    82                     83                     84
                     A                      A                      A
 Frequencies --  1274.7202              1283.2537              1292.5320
 Red. masses --     1.2699                 1.3428                 1.2910
 Frc consts  --     1.2157                 1.3029                 1.2707
 IR Inten    --    18.0018                31.6867                21.1649
 Raman Activ --     3.8089                 1.0520                 6.3144

                    85                     86                     87
                     A                      A                      A
 Frequencies --  1295.9674              1299.9476              1307.3482
 Red. masses --     1.2322                 1.3357                 1.3145
 Frc consts  --     1.2193                 1.3299                 1.3237
 IR Inten    --    25.1750                37.6436                 2.9537
 Raman Activ --     1.8559                 4.8001                 1.6126

                    88                     89                     90
                     A                      A                      A
 Frequencies --  1312.3974              1316.9564              1331.0984
 Red. masses --     1.2597                 1.2233                 1.3731
 Frc consts  --     1.2784                 1.2501                 1.4334
 IR Inten    --    30.2307                12.5192                30.8612
 Raman Activ --     6.0579                 6.7999                 3.2393

                    91                     92                     93
                     A                      A                      A
 Frequencies --  1335.4014              1351.0902              1363.1159
 Red. masses --     1.2523                 1.0905                 1.4389
 Frc consts  --     1.3158                 1.1729                 1.5752
 IR Inten    --    24.9557                 4.2004                 3.1475
 Raman Activ --     3.6464                 6.2004                 4.1730

                    94                     95                     96
                     A                      A                      A
 Frequencies --  1364.8746              1373.2469              1380.2250
 Red. masses --     1.1480                 1.4733                 1.3152
 Frc consts  --     1.2600                 1.6370                 1.4762
 IR Inten    --    26.7318                12.6644                15.1415
 Raman Activ --     2.2890                 8.7199                 1.1416

                    97                     98                     99
                     A                      A                      A
 Frequencies --  1393.7920              1395.1761              1411.8192
 Red. masses --     1.3765                 1.3638                 1.4471
 Frc consts  --     1.5755                 1.5641                 1.6995
 IR Inten    --    20.1396                23.2417                31.7560
 Raman Activ --     3.5148                 7.7906                 3.6859

                   100                    101                    102
                     A                      A                      A
 Frequencies --  1421.1835              1429.2761              1462.0992
 Red. masses --     1.2749                 1.4920                 1.4376
 Frc consts  --     1.5171                 1.7957                 1.8107
 IR Inten    --     7.4685                22.4935                22.7152
 Raman Activ --     3.9805                 0.8752                 1.1598

                   103                    104                    105
                     A                      A                      A
 Frequencies --  1472.1199              1479.0838              1501.9114
 Red. masses --     1.0828                 1.0784                 1.2904
 Frc consts  --     1.3826                 1.3900                 1.7150
 IR Inten    --     2.4834                 3.8228                59.9170
 Raman Activ --     4.1423                 4.7069                 2.1331

                   106                    107                    108
                     A                      A                      A
 Frequencies --  1510.1065              1521.2573              3242.6535
 Red. masses --     1.2885                 1.2288                 1.0760
 Frc consts  --     1.7311                 1.6755                 6.6663
 IR Inten    --    12.1731                29.8781                 2.3365
 Raman Activ --     0.5304                 0.9662                74.9074

                   109                    110                    111
                     A                      A                      A
 Frequencies --  3244.2772              3252.3993              3263.1888
 Red. masses --     1.0675                 1.0620                 1.0730
 Frc consts  --     6.6200                 6.6191                 6.7320
 IR Inten    --   721.6296                60.6920                25.7282
 Raman Activ --   117.8703                37.6260               231.0681

                   112                    113                    114
                     A                      A                      A
 Frequencies --  3265.4945              3266.6315              3273.7079
 Red. masses --     1.0798                 1.0695                 1.0821
 Frc consts  --     6.7840                 6.7239                 6.8329
 IR Inten    --    12.2813                53.3512                12.2554
 Raman Activ --    86.3787                61.5767                69.3674

                   115                    116                    117
                     A                      A                      A
 Frequencies --  3277.9270              3284.2242              3288.1005
 Red. masses --     1.0842                 1.0850                 1.0856
 Frc consts  --     6.8635                 6.8950                 6.9150
 IR Inten    --    18.7626                31.8000                19.8031
 Raman Activ --    11.8356                91.3891                23.8053

                   118                    119                    120
                     A                      A                      A
 Frequencies --  3292.0003              3300.8696              3303.7135
 Red. masses --     1.0862                 1.0898                 1.0998
 Frc consts  --     6.9353                 6.9963                 7.0726
 IR Inten    --     0.9552                18.7625                36.5824
 Raman Activ --    84.2926                28.8108                31.2879

                   121                    122                    123
                     A                      A                      A
 Frequencies --  3304.6772              3319.3280              3321.9310
 Red. masses --     1.0889                 1.1071                 1.0679
 Frc consts  --     7.0063                 7.1866                 6.9431
 IR Inten    --   130.6816                52.0716               367.4077
 Raman Activ --     8.2349                68.7802               143.8994

                   124                    125                    126
                     A                      A                      A
 Frequencies --  3367.4864              3371.2211              3373.7135
 Red. masses --     1.0666                 1.0656                 1.0664
 Frc consts  --     7.1263                 7.1355                 7.1514
 IR Inten    --    40.4464                39.3815                67.4060
 Raman Activ --   116.1051               123.2496               124.7622

                   127                    128                    129
                     A                      A                      A
 Frequencies --  3377.4646              3887.1770              3892.5969
 Red. masses --     1.0669                 1.0678                 1.0674
 Frc consts  --     7.1707                 9.5058                 9.5289
 IR Inten    --    35.5777                77.7185                74.0912
 Raman Activ --   110.8111                89.6698               120.9406

 - Thermochemistry -
 -------------------
 Temperature   298.150 Kelvin.  Pressure   1.00000 Atm.
 Atom     1 has atomic number  8 and mass  15.99491

 Molecular mass:   342.11621 amu.
 Principal axes and moments of inertia in atomic units:
                           1         2         3
     Eigenvalues --  4512.33054********************
           X            0.99997   0.00759   0.00115
           Y           -0.00759   0.99997   0.00019
           Z           -0.00115  -0.00020   1.00000
 This molecule is an asymmetric top.
 Rotational symmetry number  1.
 Warning -- assumption of classical behavior for rotation
           may cause significant error
 Rotational temperatures (Kelvin)      0.01919     0.00714     0.00540
 Rotational constants (GHZ):           0.39996     0.14876     0.11251
    6 imaginary frequencies ignored.
 Zero-point vibrational energy     975536.0 (Joules/Mol)
                                  233.15869 (Kcal/Mol)
 Warning -- explicit consideration of  33 degrees of freedom as
           vibrations may cause significant error
 Vibrational temperatures:     36.21    58.49   105.40   136.26   153.69
          (Kelvin)            191.18   216.18   245.65   262.70   300.31
                              328.12   394.02   411.12   425.99   433.02
                              441.48   461.85   463.90   483.93   508.97
                              539.94   578.88   601.20   616.93   625.23
                              675.67   702.29   732.29   748.91   807.07
                              833.13   853.62   875.40   893.61   913.12
                              999.99  1049.16  1074.14  1106.15  1171.00
                             1223.17  1233.13  1271.88  1322.76  1368.90
                             1408.31  1413.63  1415.01  1435.44  1442.57
                             1457.90  1481.74  1509.86  1529.89  1538.23
                             1543.63  1553.15  1573.75  1576.99  1590.32
                             1608.33  1623.04  1628.85  1636.35  1662.85
                             1674.86  1681.47  1703.10  1731.12  1736.28
                             1756.83  1759.71  1772.82  1786.35  1788.51
                             1834.04  1846.31  1859.66  1864.61  1870.33
                             1880.98  1888.24  1894.80  1915.15  1921.34
                             1943.91  1961.22  1963.75  1975.79  1985.83
                             2005.35  2007.34  2031.29  2044.76  2056.41
                             2103.63  2118.05  2128.07  2160.91  2172.70
                             2188.75  4665.45  4667.79  4679.47  4694.99
                             4698.31  4699.95  4710.13  4716.20  4725.26
                             4730.84  4736.45  4749.21  4753.30  4754.69
                             4775.77  4779.51  4845.06  4850.43  4854.02
                             4859.41  5592.77  5600.57

 Zero-point correction=                           0.371562 (Hartree/Particle)
 Thermal correction to Energy=                    0.390726
 Thermal correction to Enthalpy=                  0.391670
 Thermal correction to Gibbs Free Energy=         0.324289
 Sum of electronic and zero-point Energies=          -1297.610205
 Sum of electronic and thermal Energies=             -1297.591041
 Sum of electronic and thermal Enthalpies=           -1297.590097
 Sum of electronic and thermal Free Energies=        -1297.657478

                     E (Thermal)             CV                S
                      KCal/Mol        Cal/Mol-Kelvin    Cal/Mol-Kelvin
 Total                  245.184             77.888            141.815
 Electronic               0.000              0.000              0.000
 Translational            0.889              2.981             43.384
 Rotational               0.889              2.981             35.128
 Vibrational            243.407             71.927             63.303
 Vibration     1          0.593              1.985              6.178
 Vibration     2          0.594              1.981              5.227
 Vibration     3          0.599              1.967              4.064
 Vibration     4          0.603              1.953              3.560
 Vibration     5          0.606              1.944              3.326
 Vibration     6          0.613              1.920              2.904
 Vibration     7          0.618              1.902              2.669
 Vibration     8          0.626              1.879              2.427
 Vibration     9          0.630              1.863              2.302
 Vibration    10          0.642              1.827              2.055
 Vibration    11          0.651              1.798              1.894
 Vibration    12          0.676              1.722              1.572
 Vibration    13          0.684              1.700              1.499
 Vibration    14          0.690              1.681              1.439
 Vibration    15          0.693              1.672              1.412
 Vibration    16          0.697              1.661              1.379
 Vibration    17          0.706              1.633              1.305
 Vibration    18          0.707              1.631              1.298
 Vibration    19          0.717              1.603              1.229
 Vibration    20          0.730              1.568              1.149
 Vibration    21          0.746              1.523              1.058
 Vibration    22          0.768              1.465              0.954
 Vibration    23          0.781              1.431              0.899
 Vibration    24          0.790              1.408              0.863
 Vibration    25          0.795              1.395              0.844
 Vibration    26          0.827              1.317              0.739
 Vibration    27          0.844              1.276              0.689
 Vibration    28          0.864              1.230              0.636
 Vibration    29          0.875              1.205              0.609
 Vibration    30          0.917              1.116              0.522
 Vibration    31          0.936              1.077              0.487
 Vibration    32          0.951              1.046              0.461
 Vibration    33          0.967              1.014              0.435

 Normal termination of Gaussian 09 at Fri Mar 25 21:06:58 2016.
