 Gaussian 09, Revision B.01,
 Gaussian 09:  EM64L-G09RevB.01 12-Aug-2010

 -------------------------------------------------
 # freq=raman b3lyp/6-31+g(2d,p) geom=connectivity
 -------------------------------------------------

 -----------------
 400 6533/6533.com
 -----------------
 Symbolic Z-matrix:
 Charge =  0 Multiplicity = 1

                         Standard orientation:
 ---------------------------------------------------------------------
 Center     Atomic      Atomic             Coordinates (Angstroms)
 Number     Number       Type             X           Y           Z
 ---------------------------------------------------------------------
      1          8           0       -5.063299   -0.503540    0.444664
      2          6           0       -3.786711   -0.193821   -0.133280
      3          6           0       -3.285051    1.189527    0.246042
      4          8           0       -4.309889    2.169006    0.023513
      5          1           0       -5.168005    1.918351    0.472189
      6          6           0       -1.917474    1.479251   -0.352741
      7          8           0       -1.524844    2.810023    0.010350
      8          1           0       -0.525913    2.849794    0.032291
      9          6           0       -3.087765   -2.598604    0.429629
     10          8           0       -3.751473   -3.148483   -0.717562
     11          1           0       -4.009926   -4.113816   -0.744946
     12          6           0       -2.701690   -1.128783    0.376539
     13          8           0       -1.420612   -0.956368   -0.245938
     14          6           0       -0.980511    0.367718    0.089606
     15          8           0        0.302358    0.558132   -0.524280
     16          6           0        1.533608    0.257896    0.150038
     17          6           0        2.037585   -1.109945   -0.281990
     18          8           0        1.191516   -2.095793    0.326972
     19          1           0        0.219037   -1.865191    0.349023
     20          6           0        3.454167   -1.467632    0.136258
     21          8           0        3.912706   -2.675975   -0.488033
     22          1           0        4.849683   -2.865143   -0.195224
     23          6           0        2.246596    2.618011    0.190816
     24          8           0        1.210762    3.368054   -0.461434
     25          1           0        1.354004    4.240532    0.004777
     26          6           0        2.604206    1.230223   -0.317794
     27          8           0        3.836335    0.960884    0.366801
     28          6           0        4.352648   -0.274787   -0.147779
     29          8           0        5.492684   -0.651958    0.637380
     30          1           0        6.258734   -0.743146    0.066020
     31          1           0       -5.727326   -0.541170   -0.247617
     32          1           0       -3.727831   -2.738092    1.275655
     33          1           0       -2.195119   -3.165320    0.593685
     34          1           0       -2.553924   -0.844711    1.397503
     35          1           0       -3.850417   -0.269707   -1.198683
     36          1           0       -3.135052    1.165377    1.305200
     37          1           0       -2.003172    1.437391   -1.418482
     38          1           0       -0.861990    0.426925    1.151372
     39          1           0        3.137777    3.209090    0.154477
     40          1           0        1.966775    2.517330    1.218660
     41          1           0        2.725981    1.214313   -1.380723
     42          1           0        1.411923    0.303866    1.212101
     43          1           0        1.957733   -1.190323   -1.345975
     44          1           0        3.451341   -1.629311    1.193968
     45          1           0        4.598095   -0.203208   -1.186785
 ---------------------------------------------------------------------

 SCF Done:  E(RB3LYP) =  -1297.98116653     A.U. after   13 cycles

 The electronic state is 1-A.
 Alpha  occ. eigenvalues --  -19.18977 -19.18747 -19.18528 -19.17977 -19.17950
 Alpha  occ. eigenvalues --  -19.17307 -19.16120 -19.15331 -19.14778 -19.14240
 Alpha  occ. eigenvalues --  -19.13264 -10.31078 -10.30425 -10.26137 -10.25708
 Alpha  occ. eigenvalues --  -10.25696 -10.24954 -10.24822 -10.24737 -10.24134
 Alpha  occ. eigenvalues --  -10.24132 -10.24075 -10.23707  -1.10094  -1.09459
 Alpha  occ. eigenvalues --   -1.05641  -1.05242  -1.04346  -1.04020  -1.02425
 Alpha  occ. eigenvalues --   -1.01909  -1.01491  -1.00302  -0.99950  -0.82282
 Alpha  occ. eigenvalues --   -0.81297  -0.79024  -0.78171  -0.71978  -0.69937
 Alpha  occ. eigenvalues --   -0.67414  -0.64911  -0.63054  -0.62432  -0.61461
 Alpha  occ. eigenvalues --   -0.60832  -0.56545  -0.55849  -0.55116  -0.54328
 Alpha  occ. eigenvalues --   -0.53692  -0.53250  -0.52836  -0.52450  -0.51660
 Alpha  occ. eigenvalues --   -0.50898  -0.50115  -0.49363  -0.47942  -0.46041
 Alpha  occ. eigenvalues --   -0.45507  -0.44937  -0.44547  -0.44076  -0.43128
 Alpha  occ. eigenvalues --   -0.42402  -0.41655  -0.41050  -0.40571  -0.40211
 Alpha  occ. eigenvalues --   -0.39732  -0.38188  -0.37418  -0.36512  -0.35408
 Alpha  occ. eigenvalues --   -0.35283  -0.34487  -0.34319  -0.33447  -0.33090
 Alpha  occ. eigenvalues --   -0.32893  -0.31711  -0.30950  -0.30439  -0.29888
 Alpha  occ. eigenvalues --   -0.29263  -0.28528  -0.28170  -0.27430  -0.26841
 Alpha  occ. eigenvalues --   -0.25977
 Alpha virt. eigenvalues --   -0.01987  -0.01911  -0.01396  -0.00427  -0.00005
 Alpha virt. eigenvalues --    0.00974   0.01857   0.02867   0.02972   0.03566
 Alpha virt. eigenvalues --    0.03955   0.04207   0.04792   0.04917   0.05616

 Mulliken atomic charges:
              1
     1  O   -0.572658
     2  C   -0.032627
     3  C    0.222889
     4  O   -0.573174
     5  H    0.346107
     6  C   -0.086715
     7  O   -0.543537
     8  H    0.399789
     9  C   -0.515168
    10  O   -0.555957
    11  H    0.345017
    12  C    0.572147
    13  O   -0.293757
    14  C   -0.081551
    15  O   -0.241869
    16  C    0.276978
    17  C    0.260382
    18  O   -0.587985
    19  H    0.368512
    20  C    0.106305
    21  O   -0.558298
    22  H    0.335471
    23  C   -0.242525
    24  O   -0.530204
    25  H    0.346511
    26  C   -0.030927
    27  O   -0.255026
    28  C    0.167618
    29  O   -0.560998
    30  H    0.333491
    31  H    0.344160
    32  H    0.149323
    33  H    0.142587
    34  H    0.102756
    35  H    0.132047
    36  H    0.101715
    37  H    0.128561
    38  H    0.120446
    39  H    0.144505
    40  H    0.146973
    41  H    0.135294
    42  H    0.124385
    43  H    0.131557
    44  H    0.139760
    45  H    0.137689
 Sum of Mulliken atomic charges =   0.00000

 Dipole moment (field-independent basis, Debye):
    X=              1.6216    Y=             -0.3475    Z=              0.8482  Tot=              1.8627
 Quadrupole moment (field-independent basis, Debye-Ang):
   XX=           -108.6423   YY=           -139.3847   ZZ=           -139.8553
   XY=             18.5758   XZ=             -8.7065   YZ=              1.6406

  Exact polarizability: 233.660  -2.463 196.297   0.033   1.139 144.562
 Approx polarizability: 274.361  -2.678 256.444   0.980   2.494 240.748

 ******    6 imaginary frequencies (negative Signs) ******

                     1                      2                      3
                     A                      A                      A
 Frequencies --  -259.4466              -257.4483              -200.4318
 Red. masses --     1.8724                 1.7617                 1.2187
 Frc consts  --     0.0743                 0.0688                 0.0288
 IR Inten    --     4.5049                42.1725                81.6584
 Raman Activ --     0.1327                 0.1598                 0.6751

                     4                      5                      6
                     A                      A                      A
 Frequencies --  -183.2120               -80.9339               -50.0136
 Red. masses --     1.2124                 6.4183                 6.3193
 Frc consts  --     0.0240                 0.0248                 0.0093
 IR Inten    --   116.1020                 1.8006                 2.1511
 Raman Activ --     1.2515                 0.0621                 0.0232

                     7                      8                      9
                     A                      A                      A
 Frequencies --    44.5384                63.9507                69.2834
 Red. masses --     6.7721                 6.4105                 6.7716
 Frc consts  --     0.0079                 0.0154                 0.0192
 IR Inten    --     0.3009                 4.3324                 0.7258
 Raman Activ --     0.0188                 0.2006                 0.1398

                    10                     11                     12
                     A                      A                      A
 Frequencies --    85.4902               113.4967               138.6530
 Red. masses --     6.2242                 6.6271                 5.7855
 Frc consts  --     0.0268                 0.0503                 0.0655
 IR Inten    --     2.7074                 0.3260                 1.3330
 Raman Activ --     0.0505                 0.0521                 0.3130

                    13                     14                     15
                     A                      A                      A
 Frequencies --   147.0041               177.4183               185.4113
 Red. masses --     5.9222                 5.7099                 7.2240
 Frc consts  --     0.0754                 0.1059                 0.1463
 IR Inten    --     1.7805                 2.2667                 0.2981
 Raman Activ --     0.1758                 0.8161                 1.4867

                    16                     17                     18
                     A                      A                      A
 Frequencies --   195.6485               229.3908               260.8107
 Red. masses --     6.2111                 5.8741                 6.3504
 Frc consts  --     0.1401                 0.1821                 0.2545
 IR Inten    --     1.3655                 2.5668                 1.9680
 Raman Activ --     0.2528                 1.3686                 1.0912

                    19                     20                     21
                     A                      A                      A
 Frequencies --   285.9704               294.3770               299.6928
 Red. masses --     4.6858                 5.4688                 5.4061
 Frc consts  --     0.2258                 0.2792                 0.2861
 IR Inten    --     0.5791                10.8299                 2.5055
 Raman Activ --     0.1055                 0.3109                 0.3844

                    22                     23                     24
                     A                      A                      A
 Frequencies --   309.4709               313.2371               325.5699
 Red. masses --     4.8372                 6.0119                 5.4333
 Frc consts  --     0.2730                 0.3475                 0.3393
 IR Inten    --     5.4647                 5.0994                 8.8694
 Raman Activ --     0.5610                 1.3350                 0.1704

                    25                     26                     27
                     A                      A                      A
 Frequencies --   334.6449               361.8605               384.6293
 Red. masses --     6.3239                 4.8987                 5.5043
 Frc consts  --     0.4173                 0.3779                 0.4798
 IR Inten    --     2.8902                 4.3493                 3.0668
 Raman Activ --     3.4413                 0.5130                 3.9508

                    28                     29                     30
                     A                      A                      A
 Frequencies --   399.1773               427.5483               448.0271
 Red. masses --     4.8953                 6.2570                 5.6079
 Frc consts  --     0.4596                 0.6739                 0.6632
 IR Inten    --    15.5075                 0.6729                 5.9446
 Raman Activ --     1.7720                 2.7391                 2.7941

                    31                     32                     33
                     A                      A                      A
 Frequencies --   463.2932               486.7648               512.3432
 Red. masses --     4.3480                 5.3895                 5.3243
 Frc consts  --     0.5499                 0.7524                 0.8235
 IR Inten    --     2.1163                 7.3675                 7.6062
 Raman Activ --     1.6578                 4.0134                 8.2180

                    34                     35                     36
                     A                      A                      A
 Frequencies --   532.9286               549.1607               560.9467
 Red. masses --     3.0423                 3.4380                 3.0716
 Frc consts  --     0.5091                 0.6109                 0.5694
 IR Inten    --    11.9231                10.2731                13.7617
 Raman Activ --     1.3778                 1.6025                 0.6359

                    37                     38                     39
                     A                      A                      A
 Frequencies --   574.1604               586.1965               586.5198
 Red. masses --     1.3903                 4.4576                 2.8564
 Frc consts  --     0.2700                 0.9025                 0.5789
 IR Inten    --   106.9996                15.5335                47.4352
 Raman Activ --     0.5679                 1.7233                 1.7606

                    40                     41                     42
                     A                      A                      A
 Frequencies --   611.4870               667.2741               693.9461
 Red. masses --     3.2161                 4.2091                 2.9395
 Frc consts  --     0.7085                 1.1042                 0.8340
 IR Inten    --    11.2943                19.5025                 5.6229
 Raman Activ --     0.4005                 0.7389                 0.4950

                    43                     44                     45
                     A                      A                      A
 Frequencies --   712.7870               736.4766               750.8396
 Red. masses --     1.1194                 1.0600                 1.0863
 Frc consts  --     0.3351                 0.3387                 0.3608
 IR Inten    --    91.7137                90.9789                14.6169
 Raman Activ --     1.8457                 1.8868                 0.5372

                    46                     47                     48
                     A                      A                      A
 Frequencies --   756.1057               796.9468               844.5915
 Red. masses --     1.0554                 1.1249                 3.1235
 Frc consts  --     0.3555                 0.4209                 1.3127
 IR Inten    --    36.3659               162.6500                18.9077
 Raman Activ --     0.6894                 1.2008                 4.5178

                    49                     50                     51
                     A                      A                      A
 Frequencies --   885.1987               901.0721               929.3467
 Red. masses --     1.6204                 2.8526                 6.0163
 Frc consts  --     0.7481                 1.3646                 3.0615
 IR Inten    --    52.9659                19.0265                64.5368
 Raman Activ --     1.0848                 2.1648                 2.2146

                    52                     53                     54
                     A                      A                      A
 Frequencies --   970.2255               983.1897               990.7779
 Red. masses --     4.4836                 8.5497                 5.6381
 Frc consts  --     2.4867                 4.8694                 3.2609
 IR Inten    --   108.7217               318.3408                 1.4581
 Raman Activ --     1.5284                 0.5287                 1.6268

                    55                     56                     57
                     A                      A                      A
 Frequencies --   996.5124              1006.8805              1019.3464
 Red. masses --     5.6090                 6.5084                 5.7023
 Frc consts  --     3.2817                 3.8876                 3.4910
 IR Inten    --   326.5754                62.3501               189.6289
 Raman Activ --     2.4952                 2.1265                 2.4366

                    58                     59                     60
                     A                      A                      A
 Frequencies --  1027.2400              1046.6753              1055.7492
 Red. masses --     5.8842                 5.7951                 5.3425
 Frc consts  --     3.6583                 3.7405                 3.5085
 IR Inten    --    89.7025                98.1695               137.9297
 Raman Activ --     5.6778                 1.8623                 2.5523

                    61                     62                     63
                     A                      A                      A
 Frequencies --  1062.0599              1070.0872              1076.7177
 Red. masses --     3.1006                 5.0464                 3.9590
 Frc consts  --     2.0606                 3.4046                 2.7042
 IR Inten    --   116.7332                20.7496                12.2407
 Raman Activ --    10.4088                 5.4045                15.3077

                    64                     65                     66
                     A                      A                      A
 Frequencies --  1089.8990              1101.6371              1107.7991
 Red. masses --     2.6008                 3.1270                 2.0388
 Frc consts  --     1.8202                 2.2359                 1.4742
 IR Inten    --    51.2691                12.9454                40.8858
 Raman Activ --     2.4573                 2.4368                 1.1892

                    67                     68                     69
                     A                      A                      A
 Frequencies --  1116.2701              1121.7493              1126.9220
 Red. masses --     2.7087                 1.8266                 2.1640
 Frc consts  --     1.9886                 1.3542                 1.6192
 IR Inten    --    23.5425                24.1616                10.1300
 Raman Activ --     5.9349                 1.7622                 9.1914

                    70                     71                     72
                     A                      A                      A
 Frequencies --  1139.3604              1143.4141              1146.7591
 Red. masses --     2.6910                 2.9783                 1.6968
 Frc consts  --     2.0582                 2.2942                 1.3147
 IR Inten    --    80.9309                12.3561                27.9399
 Raman Activ --     4.6901                 2.5126                 1.8932

                    73                     74                     75
                     A                      A                      A
 Frequencies --  1151.6449              1171.8313              1174.3182
 Red. masses --     1.8067                 1.9724                 1.7406
 Frc consts  --     1.4118                 1.5958                 1.4142
 IR Inten    --     3.5000                 5.5364                12.0708
 Raman Activ --     3.9916                 3.8231                 2.1586

                    76                     77                     78
                     A                      A                      A
 Frequencies --  1186.9421              1204.5408              1229.8579
 Red. masses --     1.3514                 1.5589                 1.2853
 Frc consts  --     1.1217                 1.3327                 1.1454
 IR Inten    --    16.7379                59.0280                16.7007
 Raman Activ --     2.7564                 1.6100                 0.6041

                    79                     80                     81
                     A                      A                      A
 Frequencies --  1239.8609              1249.8472              1255.4975
 Red. masses --     1.2289                 1.3266                 1.2689
 Frc consts  --     1.1131                 1.2209                 1.1785
 IR Inten    --    14.7556                 5.0916                20.0717
 Raman Activ --     1.6577                 2.4303                 3.3692

                    82                     83                     84
                     A                      A                      A
 Frequencies --  1263.8635              1278.7371              1286.8426
 Red. masses --     1.3071                 1.1714                 1.3129
 Frc consts  --     1.2302                 1.1285                 1.2810
 IR Inten    --    10.8590                23.6252                24.6547
 Raman Activ --     1.3383                 3.4440                 1.3436

                    85                     86                     87
                     A                      A                      A
 Frequencies --  1287.5910              1291.3607              1295.7198
 Red. masses --     1.1940                 1.2148                 1.3653
 Frc consts  --     1.1663                 1.1935                 1.3505
 IR Inten    --     3.6339                13.0986                15.9336
 Raman Activ --     1.6529                 5.7388                 5.3267

                    88                     89                     90
                     A                      A                      A
 Frequencies --  1297.4330              1312.1875              1324.0445
 Red. masses --     1.2625                 1.2964                 1.2246
 Frc consts  --     1.2521                 1.3151                 1.2649
 IR Inten    --    71.4690                22.3105                 8.2941
 Raman Activ --     2.9511                 6.8602                11.4941

                    91                     92                     93
                     A                      A                      A
 Frequencies --  1334.6567              1349.0674              1360.8663
 Red. masses --     1.3063                 1.4737                 1.3393
 Frc consts  --     1.3710                 1.5802                 1.4614
 IR Inten    --    19.0498                 6.8618                 4.6943
 Raman Activ --     2.9931                 8.8009                 0.4795

                    94                     95                     96
                     A                      A                      A
 Frequencies --  1363.9692              1366.0469              1368.0538
 Red. masses --     1.4160                 1.3753                 1.3383
 Frc consts  --     1.5521                 1.5121                 1.4757
 IR Inten    --    20.6428                57.8918                 9.5355
 Raman Activ --     6.1483                 5.5270                 1.3921

                    97                     98                     99
                     A                      A                      A
 Frequencies --  1381.3314              1384.4653              1400.2271
 Red. masses --     1.3703                 1.2325                 1.4939
 Frc consts  --     1.5405                 1.3919                 1.7257
 IR Inten    --    11.3176                11.3720                 8.7066
 Raman Activ --     2.7313                 2.2330                 3.4338

                   100                    101                    102
                     A                      A                      A
 Frequencies --  1412.0552              1418.6653              1423.3077
 Red. masses --     1.3575                 1.4158                 1.4222
 Frc consts  --     1.5948                 1.6789                 1.6975
 IR Inten    --     7.4490                20.0248                 9.6147
 Raman Activ --     1.2589                 0.7898                 2.8733

                   103                    104                    105
                     A                      A                      A
 Frequencies --  1448.0069              1457.1959              1480.4428
 Red. masses --     1.3856                 1.1118                 1.0907
 Frc consts  --     1.7117                 1.3909                 1.4084
 IR Inten    --    61.0823                 0.1829                 3.4464
 Raman Activ --     2.1691                 3.9627                 3.9737

                   106                    107                    108
                     A                      A                      A
 Frequencies --  1484.5748              1516.7043              3250.8606
 Red. masses --     1.2726                 1.3067                 1.0787
 Frc consts  --     1.6526                 1.7710                 6.7163
 IR Inten    --    43.4098                26.3153                10.9306
 Raman Activ --     1.6355                 0.4279                24.3918

                   109                    110                    111
                     A                      A                      A
 Frequencies --  3254.1141              3259.6825              3268.5291
 Red. masses --     1.0577                 1.0739                 1.0730
 Frc consts  --     6.5991                 6.7229                 6.7541
 IR Inten    --    63.1878                 1.2831                20.0279
 Raman Activ --    59.5613                23.5296                20.1982

                   112                    113                    114
                     A                      A                      A
 Frequencies --  3271.7809              3281.0023              3285.0874
 Red. masses --     1.0763                 1.0829                 1.0834
 Frc consts  --     6.7880                 6.8680                 6.8888
 IR Inten    --    49.5074                 9.3311                92.0878
 Raman Activ --   265.0411               123.2237                16.9681

                   115                    116                    117
                     A                      A                      A
 Frequencies --  3286.3387              3291.0807              3295.0938
 Red. masses --     1.0850                 1.0854                 1.0886
 Frc consts  --     6.9042                 6.9263                 6.9638
 IR Inten    --     9.9538                 0.4761                12.6319
 Raman Activ --    17.1374               156.1111                10.3024

                   118                    119                    120
                     A                      A                      A
 Frequencies --  3298.1539              3302.5868              3302.9747
 Red. masses --     1.0777                 1.0857                 1.0868
 Frc consts  --     6.9067                 6.9772                 6.9859
 IR Inten    --   225.5869                73.6336               136.8854
 Raman Activ --   144.5940                35.5822                78.6002

                   121                    122                    123
                     A                      A                      A
 Frequencies --  3312.0358              3312.9049              3326.1894
 Red. masses --     1.0983                 1.1057                 1.0690
 Frc consts  --     7.0985                 7.1497                 6.9682
 IR Inten    --    96.2980                45.8940               455.7594
 Raman Activ --    32.0206                59.5368               161.8410

                   124                    125                    126
                     A                      A                      A
 Frequencies --  3365.2317              3373.3794              3373.8335
 Red. masses --     1.0662                 1.0686                 1.0656
 Frc consts  --     7.1142                 7.1644                 7.1462
 IR Inten    --    48.0706                69.9947                36.9578
 Raman Activ --   115.6306               191.5271               151.3128

                   127                    128                    129
                     A                      A                      A
 Frequencies --  3378.4909              3887.9183              3891.4321
 Red. masses --     1.0652                 1.0674                 1.0675
 Frc consts  --     7.1638                 9.5064                 9.5245
 IR Inten    --    50.1534                65.7597                86.5356
 Raman Activ --   101.3652               120.4471                93.9367

 - Thermochemistry -
 -------------------
 Temperature   298.150 Kelvin.  Pressure   1.00000 Atm.
 Atom     1 has atomic number  8 and mass  15.99491

 Molecular mass:   342.11621 amu.
 Principal axes and moments of inertia in atomic units:
                           1         2         3
     Eigenvalues --  4375.61466********************
           X            0.99996   0.00802  -0.00263
           Y           -0.00802   0.99997  -0.00007
           Z            0.00263   0.00009   1.00000
 This molecule is an asymmetric top.
 Rotational symmetry number  1.
 Warning -- assumption of classical behavior for rotation
           may cause significant error
 Rotational temperatures (Kelvin)      0.01979     0.00696     0.00530
 Rotational constants (GHZ):           0.41245     0.14504     0.11036
    6 imaginary frequencies ignored.
 Zero-point vibrational energy     973481.6 (Joules/Mol)
                                  232.66769 (Kcal/Mol)
 Warning -- explicit consideration of  34 degrees of freedom as
           vibrations may cause significant error
 Vibrational temperatures:     64.08    92.01    99.68   123.00   163.30
          (Kelvin)            199.49   211.51   255.27   266.77   281.49
                              330.04   375.25   411.45   423.54   431.19
                              445.26   450.68   468.42   481.48   520.64
                              553.40   574.33   615.15   644.61   666.57
                              700.35   737.15   766.76   790.12   807.08
                              826.09   843.41   843.87   879.79   960.06
                              998.43  1025.54  1059.62  1080.29  1087.87
                             1146.63  1215.18  1273.60  1296.44  1337.12
                             1395.94  1414.59  1425.51  1433.76  1448.67
                             1466.61  1477.97  1505.93  1518.99  1528.07
                             1539.61  1549.15  1568.12  1585.01  1593.87
                             1606.06  1613.94  1621.39  1639.28  1645.12
                             1649.93  1656.96  1686.00  1689.58  1707.74
                             1733.06  1769.49  1783.88  1798.25  1806.38
                             1818.42  1839.82  1851.48  1852.55  1857.98
                             1864.25  1866.71  1887.94  1905.00  1920.27
                             1941.00  1957.98  1962.44  1965.43  1968.32
                             1987.43  1991.93  2014.61  2031.63  2041.14
                             2047.82  2083.36  2096.58  2130.02  2135.97
                             2182.20  4677.26  4681.94  4689.95  4702.68
                             4707.36  4720.62  4726.50  4728.30  4735.13
                             4740.90  4745.30  4751.68  4752.24  4765.27
                             4766.53  4785.64  4841.81  4853.53  4854.19
                             4860.89  5593.84  5598.90

 Zero-point correction=                           0.370780 (Hartree/Particle)
 Thermal correction to Energy=                    0.389843
 Thermal correction to Enthalpy=                  0.390787
 Thermal correction to Gibbs Free Energy=         0.324339
 Sum of electronic and zero-point Energies=          -1297.610387
 Sum of electronic and thermal Energies=             -1297.591324
 Sum of electronic and thermal Enthalpies=           -1297.590379
 Sum of electronic and thermal Free Energies=        -1297.656828

                     E (Thermal)             CV                S
                      KCal/Mol        Cal/Mol-Kelvin    Cal/Mol-Kelvin
 Total                  244.630             78.102            139.853
 Electronic               0.000              0.000              0.000
 Translational            0.889              2.981             43.384
 Rotational               0.889              2.981             35.142
 Vibrational            242.853             72.141             61.327
 Vibration     1          0.595              1.980              5.046
 Vibration     2          0.597              1.972              4.331
 Vibration     3          0.598              1.969              4.174
 Vibration     4          0.601              1.959              3.761
 Vibration     5          0.607              1.938              3.208
 Vibration     6          0.614              1.915              2.822
 Vibration     7          0.617              1.906              2.711
 Vibration     8          0.628              1.870              2.355
 Vibration     9          0.631              1.860              2.273
 Vibration    10          0.636              1.846              2.174
 Vibration    11          0.652              1.796              1.884
 Vibration    12          0.669              1.744              1.656
 Vibration    13          0.684              1.700              1.498
 Vibration    14          0.689              1.684              1.449
 Vibration    15          0.692              1.674              1.419
 Vibration    16          0.699              1.656              1.365
 Vibration    17          0.701              1.648              1.345
 Vibration    18          0.710              1.624              1.282
 Vibration    19          0.716              1.606              1.238
 Vibration    20          0.736              1.551              1.114
 Vibration    21          0.754              1.503              1.021
 Vibration    22          0.765              1.472              0.966
 Vibration    23          0.789              1.410              0.867
 Vibration    24          0.807              1.365              0.802
 Vibration    25          0.821              1.331              0.757
 Vibration    26          0.843              1.279              0.692
 Vibration    27          0.867              1.223              0.628
 Vibration    28          0.888              1.177              0.581
 Vibration    29          0.904              1.142              0.546
 Vibration    30          0.917              1.116              0.522
 Vibration    31          0.930              1.087              0.496
 Vibration    32          0.943              1.061              0.474
 Vibration    33          0.944              1.061              0.473
 Vibration    34          0.971              1.008              0.430

 Normal termination of Gaussian 09 at Sat Mar 26 08:12:17 2016.
