 Gaussian 09, Revision B.01,
 Gaussian 09:  EM64L-G09RevB.01 12-Aug-2010

 -------------------------------------------------
 # freq=raman b3lyp/6-31+g(2d,p) geom=connectivity
 -------------------------------------------------

 -----------------
 500 5403/5403.com
 -----------------
 Symbolic Z-matrix:
 Charge =  0 Multiplicity = 1

                         Standard orientation:
 ---------------------------------------------------------------------
 Center     Atomic      Atomic             Coordinates (Angstroms)
 Number     Number       Type             X           Y           Z
 ---------------------------------------------------------------------
      1          8           0        5.229094   -0.280401   -0.189026
      2          6           0        3.916301   -0.027451    0.332559
      3          6           0        3.432224    1.159568   -0.484553
      4          8           0        4.265794    2.327135   -0.465608
      5          1           0        5.202551    1.990732   -0.368355
      6          6           0        2.062964    1.589749    0.015521
      7          8           0        1.520908    2.774986   -0.583607
      8          1           0        1.941604    3.642737   -0.316653
      9          6           0        3.279008   -2.497155    0.498227
     10          8           0        2.271565   -3.467518    0.178138
     11          1           0        2.715476   -4.308625    0.486092
     12          6           0        2.896832   -1.108434    0.014038
     13          8           0        1.584144   -0.694837    0.420878
     14          6           0        1.032993    0.488183   -0.174879
     15          8           0       -0.217399    0.623180    0.516690
     16          6           0       -1.418856    0.250624   -0.175663
     17          6           0       -1.760462   -1.166055    0.254271
     18          8           0       -0.780013   -2.119201   -0.181162
     19          1           0        0.100453   -2.066367    0.289116
     20          6           0       -3.065954   -1.442024   -0.475465
     21          8           0       -3.371957   -2.843007   -0.433117
     22          1           0       -2.506964   -3.200313   -0.784469
     23          6           0       -2.292452    2.599603    0.293456
     24          8           0       -3.337770    3.551054    0.540269
     25          1           0       -3.090465    4.425476    0.123890
     26          6           0       -2.519089    1.103405    0.433911
     27          8           0       -3.826490    0.753562   -0.042514
     28          6           0       -4.179790   -0.622923    0.156237
     29          8           0       -5.430116   -0.861408   -0.505892
     30          1           0       -6.149521   -0.754707    0.120743
     31          1           0       -4.260248   -0.841723    1.200532
     32          1           0       -2.957966   -1.144693   -1.497635
     33          1           0       -1.899983   -1.218732    1.313827
     34          1           0       -1.343969    0.360585   -1.237360
     35          1           0       -2.513767    0.894683    1.483343
     36          1           0       -1.953013    2.767314   -0.707321
     37          1           0       -1.485032    2.851884    0.948687
     38          1           0        5.877141   -0.177522    0.511725
     39          1           0        3.413539   -2.471497    1.559426
     40          1           0        4.200175   -2.785912    0.036738
     41          1           0        2.864760   -1.173286   -1.053513
     42          1           0        3.940719    0.200496    1.377712
     43          1           0        3.331004    0.841551   -1.501175
     44          1           0        2.149919    1.772401    1.066224
     45          1           0        0.859179    0.324620   -1.217921
 ---------------------------------------------------------------------

 SCF Done:  E(RB3LYP) =  -1297.98702304     A.U. after   14 cycles

 The electronic state is 1-A.
 Alpha  occ. eigenvalues --  -19.19833 -19.18247 -19.17713 -19.17562 -19.17351
 Alpha  occ. eigenvalues --  -19.16500 -19.15326 -19.15018 -19.14560 -19.14409
 Alpha  occ. eigenvalues --  -19.13576 -10.31029 -10.28461 -10.27485 -10.26727
 Alpha  occ. eigenvalues --  -10.25810 -10.25687 -10.25583 -10.24736 -10.24129
 Alpha  occ. eigenvalues --  -10.23541 -10.22791 -10.22279  -1.09807  -1.07865
 Alpha  occ. eigenvalues --   -1.06414  -1.04758  -1.04393  -1.03455  -1.02343
 Alpha  occ. eigenvalues --   -1.02078  -1.01104  -1.00143  -0.99393  -0.83048
 Alpha  occ. eigenvalues --   -0.81816  -0.78896  -0.77348  -0.72217  -0.69207
 Alpha  occ. eigenvalues --   -0.67237  -0.63994  -0.63323  -0.62665  -0.60751
 Alpha  occ. eigenvalues --   -0.60302  -0.57248  -0.55693  -0.54729  -0.54258
 Alpha  occ. eigenvalues --   -0.53400  -0.53174  -0.52386  -0.52105  -0.51108
 Alpha  occ. eigenvalues --   -0.50640  -0.49642  -0.47774  -0.47037  -0.45938
 Alpha  occ. eigenvalues --   -0.45799  -0.45563  -0.44614  -0.44110  -0.43349
 Alpha  occ. eigenvalues --   -0.42936  -0.42262  -0.41008  -0.40574  -0.38824
 Alpha  occ. eigenvalues --   -0.38637  -0.38505  -0.37613  -0.36216  -0.36014
 Alpha  occ. eigenvalues --   -0.35144  -0.34518  -0.33896  -0.33278  -0.33050
 Alpha  occ. eigenvalues --   -0.32177  -0.31001  -0.30750  -0.30234  -0.29785
 Alpha  occ. eigenvalues --   -0.29626  -0.28501  -0.27864  -0.27135  -0.26169
 Alpha  occ. eigenvalues --   -0.25511
 Alpha virt. eigenvalues --   -0.03828  -0.02232  -0.01018  -0.00126   0.00368
 Alpha virt. eigenvalues --    0.00908   0.01588   0.02262   0.02526   0.03284
 Alpha virt. eigenvalues --    0.03486   0.04247   0.05071   0.05166   0.05951

 Mulliken atomic charges:
              1
     1  O   -0.554880
     2  C   -0.228060
     3  C    0.237564
     4  O   -0.580181
     5  H    0.338184
     6  C    0.033483
     7  O   -0.564680
     8  H    0.349020
     9  C   -0.325295
    10  O   -0.488536
    11  H    0.340143
    12  C    0.327988
    13  O   -0.279700
    14  C    0.088971
    15  O   -0.222058
    16  C    0.172179
    17  C    0.162193
    18  O   -0.601341
    19  H    0.389122
    20  C   -0.057209
    21  O   -0.521223
    22  H    0.349925
    23  C   -0.328034
    24  O   -0.515708
    25  H    0.326313
    26  C    0.194777
    27  O   -0.261387
    28  C    0.262698
    29  O   -0.506733
    30  H    0.324710
    31  H    0.119640
    32  H    0.123508
    33  H    0.123889
    34  H    0.122043
    35  H    0.109490
    36  H    0.130952
    37  H    0.157213
    38  H    0.337732
    39  H    0.138561
    40  H    0.163075
    41  H    0.113528
    42  H    0.130940
    43  H    0.118900
    44  H    0.120708
    45  H    0.127578
 Sum of Mulliken atomic charges =   0.00000

 Dipole moment (field-independent basis, Debye):
    X=              9.2169    Y=              0.3565    Z=              3.1187  Tot=              9.7368
 Quadrupole moment (field-independent basis, Debye-Ang):
   XX=           -126.5755   YY=           -134.4072   ZZ=           -136.6993
   XY=            -11.2031   XZ=              4.5354   YZ=             -5.3469

  Exact polarizability: 228.196   0.713 201.488   1.921  -1.224 143.829
 Approx polarizability: 271.827  -0.629 260.541   2.894  -1.514 238.542

 ******    6 imaginary frequencies (negative Signs) ******

                     1                      2                      3
                     A                      A                      A
 Frequencies --  -309.6485              -226.8323              -218.5479
 Red. masses --     1.6941                 1.0992                 1.9178
 Frc consts  --     0.0957                 0.0333                 0.0540
 IR Inten    --     2.6524                95.5433                 2.1696
 Raman Activ --     0.1169                 1.2522                 0.1334

                     4                      5                      6
                     A                      A                      A
 Frequencies --  -131.9983               -63.3216               -48.4606
 Red. masses --     1.3565                 6.5917                 6.0158
 Frc consts  --     0.0139                 0.0156                 0.0083
 IR Inten    --    99.8582                 0.3877                 1.1944
 Raman Activ --     0.7324                 0.1111                 0.0395

                     7                      8                      9
                     A                      A                      A
 Frequencies --    15.0440                43.5506                45.6158
 Red. masses --     6.3533                 6.2994                 7.1271
 Frc consts  --     0.0008                 0.0070                 0.0087
 IR Inten    --     1.9056                 0.1613                 0.1523
 Raman Activ --     0.0762                 0.0284                 0.0406

                    10                     11                     12
                     A                      A                      A
 Frequencies --    90.2803                98.3259               107.7347
 Red. masses --     6.3982                 6.0855                 5.9201
 Frc consts  --     0.0307                 0.0347                 0.0405
 IR Inten    --     0.2376                 0.9127                 3.1986
 Raman Activ --     0.0357                 0.0748                 0.3769

                    13                     14                     15
                     A                      A                      A
 Frequencies --   142.5863               148.2565               169.2829
 Red. masses --     5.9864                 6.6296                 6.4128
 Frc consts  --     0.0717                 0.0859                 0.1083
 IR Inten    --     0.3661                 0.2249                 1.8409
 Raman Activ --     0.1434                 0.6798                 0.3116

                    16                     17                     18
                     A                      A                      A
 Frequencies --   193.1537               208.4479               270.5188
 Red. masses --     6.1280                 6.5508                 4.2083
 Frc consts  --     0.1347                 0.1677                 0.1814
 IR Inten    --     2.4898                 1.0303                 3.2191
 Raman Activ --     0.8167                 2.2783                 0.3355

                    19                     20                     21
                     A                      A                      A
 Frequencies --   274.6896               288.6753               296.3815
 Red. masses --     4.4827                 5.2866                 5.4272
 Frc consts  --     0.1993                 0.2596                 0.2809
 IR Inten    --    11.0783                 3.9584                 4.0021
 Raman Activ --     0.3584                 0.0822                 0.5205

                    22                     23                     24
                     A                      A                      A
 Frequencies --   313.7463               324.5267               333.3993
 Red. masses --     5.0143                 5.3163                 6.1000
 Frc consts  --     0.2908                 0.3299                 0.3995
 IR Inten    --     1.9207                 3.0522                 3.8982
 Raman Activ --     1.5794                 0.2006                 3.0285

                    25                     26                     27
                     A                      A                      A
 Frequencies --   349.8582               364.5622               372.6422
 Red. masses --     5.2839                 4.0124                 5.9596
 Frc consts  --     0.3811                 0.3142                 0.4876
 IR Inten    --     4.5967                 8.5347                 0.0636
 Raman Activ --     5.8161                 0.1121                 0.7408

                    28                     29                     30
                     A                      A                      A
 Frequencies --   415.5096               418.4200               439.9339
 Red. masses --     3.8043                 6.8292                 6.6341
 Frc consts  --     0.3870                 0.7044                 0.7565
 IR Inten    --    16.5293                 6.0386                 1.2069
 Raman Activ --     2.6895                 6.1096                 0.5038

                    31                     32                     33
                     A                      A                      A
 Frequencies --   441.9280               483.3873               489.8703
 Red. masses --     5.7068                 4.1022                 4.1325
 Frc consts  --     0.6567                 0.5647                 0.5843
 IR Inten    --     3.3283                 7.1051                 4.3676
 Raman Activ --     1.6110                 1.4374                 1.9037

                    34                     35                     36
                     A                      A                      A
 Frequencies --   534.1493               543.7931               562.0014
 Red. masses --     4.1741                 3.7417                 6.3907
 Frc consts  --     0.7017                 0.6519                 1.1893
 IR Inten    --    20.8913                 7.9197                14.8859
 Raman Activ --     5.1172                 1.5946                 4.4910

                    37                     38                     39
                     A                      A                      A
 Frequencies --   593.3723               609.5039               621.5774
 Red. masses --     3.1739                 3.0210                 3.4487
 Frc consts  --     0.6584                 0.6612                 0.7850
 IR Inten    --    28.1862                26.1672                 8.3371
 Raman Activ --     0.9291                 0.3565                 0.7673

                    40                     41                     42
                     A                      A                      A
 Frequencies --   647.1315               650.6777               664.5412
 Red. masses --     3.4454                 2.4730                 1.1909
 Frc consts  --     0.8501                 0.6169                 0.3099
 IR Inten    --    41.7330                49.4392                67.8507
 Raman Activ --     0.1867                 0.8561                 1.5907

                    43                     44                     45
                     A                      A                      A
 Frequencies --   673.4934               700.6622               732.1048
 Red. masses --     1.1542                 1.1215                 1.1321
 Frc consts  --     0.3085                 0.3244                 0.3575
 IR Inten    --    80.7971               127.0084               114.7616
 Raman Activ --     1.5972                 3.2909                 2.0887

                    46                     47                     48
                     A                      A                      A
 Frequencies --   740.5941               757.5756               839.5483
 Red. masses --     1.0757                 1.1312                 2.4067
 Frc consts  --     0.3476                 0.3825                 0.9994
 IR Inten    --    88.9954               121.7812                 9.3182
 Raman Activ --     1.3198                 2.1523                 5.4963

                    49                     50                     51
                     A                      A                      A
 Frequencies --   846.2100               921.0046               948.8088
 Red. masses --     2.5519                 6.6516                 6.1280
 Frc consts  --     1.0766                 3.3243                 3.2503
 IR Inten    --    12.0779               209.7929               185.5193
 Raman Activ --     2.4639                 2.8858                 0.7349

                    52                     53                     54
                     A                      A                      A
 Frequencies --   966.6698               978.8377               985.3293
 Red. masses --     3.7955                 4.6286                 4.0361
 Frc consts  --     2.0896                 2.6129                 2.3087
 IR Inten    --    59.7376                47.5591                19.3828
 Raman Activ --     3.0407                 1.5766                 1.3103

                    55                     56                     57
                     A                      A                      A
 Frequencies --   992.9431              1004.2269              1027.4646
 Red. masses --     6.1555                 6.4111                 5.2396
 Frc consts  --     3.5757                 3.8093                 3.2590
 IR Inten    --   225.4999               211.3084               223.9668
 Raman Activ --     1.3759                 1.2978                 2.3152

                    58                     59                     60
                     A                      A                      A
 Frequencies --  1044.7448              1049.9535              1051.9524
 Red. masses --     3.9374                 2.9715                 2.5021
 Frc consts  --     2.5321                 1.9301                 1.6314
 IR Inten    --   227.6289                15.9442                 9.5271
 Raman Activ --     6.6595                 2.2888                 9.2660

                    61                     62                     63
                     A                      A                      A
 Frequencies --  1062.2577              1067.7217              1069.9199
 Red. masses --     4.8337                 3.2424                 4.4033
 Frc consts  --     3.2136                 2.1779                 2.9698
 IR Inten    --    51.9368                79.3050                35.7784
 Raman Activ --    17.2400                 3.9052                 2.2854

                    64                     65                     66
                     A                      A                      A
 Frequencies --  1081.6500              1096.1825              1100.0954
 Red. masses --     3.2778                 2.5960                 2.6195
 Frc consts  --     2.2595                 1.8379                 1.8678
 IR Inten    --    75.6444                68.6750                23.2044
 Raman Activ --    13.1567                 3.4733                 5.6790

                    67                     68                     69
                     A                      A                      A
 Frequencies --  1107.0602              1118.1894              1134.5840
 Red. masses --     3.0002                 2.2133                 1.9342
 Frc consts  --     2.1664                 1.6305                 1.4670
 IR Inten    --     6.8033                16.5636                15.7861
 Raman Activ --     7.9270                 2.5377                 3.2541

                    70                     71                     72
                     A                      A                      A
 Frequencies --  1137.4783              1147.7178              1151.8699
 Red. masses --     2.2717                 3.0123                 3.0017
 Frc consts  --     1.7318                 2.3379                 2.3465
 IR Inten    --    75.6482                45.5233                65.2701
 Raman Activ --     5.7109                 3.3401                 0.9499

                    73                     74                     75
                     A                      A                      A
 Frequencies --  1161.3304              1170.7367              1180.7400
 Red. masses --     2.0178                 1.7774                 2.4767
 Frc consts  --     1.6034                 1.4354                 2.0344
 IR Inten    --    50.4237                 2.6644                32.1906
 Raman Activ --     2.7955                 1.2064                 0.8773

                    76                     77                     78
                     A                      A                      A
 Frequencies --  1199.6124              1202.4182              1218.7085
 Red. masses --     1.5001                 1.4854                 1.2730
 Frc consts  --     1.2719                 1.2654                 1.1140
 IR Inten    --    15.0595                 1.0952                 8.1170
 Raman Activ --     3.8532                 1.0811                 1.4866

                    79                     80                     81
                     A                      A                      A
 Frequencies --  1230.9911              1249.1469              1255.2768
 Red. masses --     1.3383                 1.1775                 1.2680
 Frc consts  --     1.1948                 1.0826                 1.1772
 IR Inten    --     7.8922                 1.5706                 4.5382
 Raman Activ --     1.8339                 3.7844                 1.8389

                    82                     83                     84
                     A                      A                      A
 Frequencies --  1256.3486              1266.9530              1282.6330
 Red. masses --     1.2628                 1.2478                 1.2857
 Frc consts  --     1.1744                 1.1801                 1.2462
 IR Inten    --     7.1061                 4.4943                 4.5084
 Raman Activ --     2.0524                 4.8421                 2.8201

                    85                     86                     87
                     A                      A                      A
 Frequencies --  1289.2400              1310.7088              1311.6130
 Red. masses --     1.3146                 1.2104                 1.1377
 Frc consts  --     1.2874                 1.2252                 1.1531
 IR Inten    --    31.0565                10.9953                 7.2873
 Raman Activ --     1.6603                 1.8155                 6.3598

                    88                     89                     90
                     A                      A                      A
 Frequencies --  1326.5461              1332.9586              1334.8286
 Red. masses --     1.2488                 1.2332                 1.4043
 Frc consts  --     1.2947                 1.2909                 1.4742
 IR Inten    --    53.3868                16.7072                 6.2100
 Raman Activ --     3.5407                 1.9250                 5.7942

                    91                     92                     93
                     A                      A                      A
 Frequencies --  1338.7625              1344.7245              1346.7420
 Red. masses --     1.2827                 1.2946                 1.2570
 Frc consts  --     1.3545                 1.3793                 1.3433
 IR Inten    --    36.6708                18.2044                27.4363
 Raman Activ --     2.8178                 1.5366                 2.8622

                    94                     95                     96
                     A                      A                      A
 Frequencies --  1362.1891              1365.9572              1377.9592
 Red. masses --     1.2078                 1.2435                 1.3828
 Frc consts  --     1.3204                 1.3671                 1.5470
 IR Inten    --    10.7088                25.5842                 4.2343
 Raman Activ --     3.2606                14.8432                 3.5116

                    97                     98                     99
                     A                      A                      A
 Frequencies --  1380.9147              1388.5318              1391.8374
 Red. masses --     1.3132                 1.4788                 1.3754
 Frc consts  --     1.4755                 1.6798                 1.5698
 IR Inten    --    24.9041                12.5879                12.9901
 Raman Activ --     2.3931                 5.7892                 1.5446

                   100                    101                    102
                     A                      A                      A
 Frequencies --  1403.1129              1408.2912              1441.0203
 Red. masses --     1.4252                 1.6298                 1.4421
 Frc consts  --     1.6531                 1.9044                 1.7643
 IR Inten    --     8.5617                10.3655                68.2933
 Raman Activ --     3.3116                 3.4230                 1.5086

                   103                    104                    105
                     A                      A                      A
 Frequencies --  1459.4202              1466.4959              1472.1332
 Red. masses --     1.0845                 1.0825                 1.3538
 Frc consts  --     1.3609                 1.3716                 1.7286
 IR Inten    --     6.8545                 2.6818                 6.8923
 Raman Activ --     5.8139                 5.1762                 0.4300

                   106                    107                    108
                     A                      A                      A
 Frequencies --  1494.7321              1523.5305              3255.1816
 Red. masses --     1.3212                 1.3221                 1.0636
 Frc consts  --     1.7392                 1.8080                 6.6400
 IR Inten    --    22.9761                77.9236                33.3536
 Raman Activ --     1.5687                 1.8736                96.8219

                   109                    110                    111
                     A                      A                      A
 Frequencies --  3256.8890              3260.1050              3264.0493
 Red. masses --     1.0628                 1.0777                 1.0764
 Frc consts  --     6.6424                 6.7486                 6.7570
 IR Inten    --    35.4417                19.3070                13.1537
 Raman Activ --    93.6999                 8.6743                18.9929

                   112                    113                    114
                     A                      A                      A
 Frequencies --  3275.9780              3276.6129              3280.2302
 Red. masses --     1.0839                 1.0816                 1.0837
 Frc consts  --     6.8533                 6.8415                 6.8703
 IR Inten    --     2.9675                 5.9945                 6.9531
 Raman Activ --   123.9449               113.0424                14.3011

                   115                    116                    117
                     A                      A                      A
 Frequencies --  3282.9214              3291.9889              3294.3614
 Red. masses --     1.0854                 1.0862                 1.0859
 Frc consts  --     6.8920                 6.9353                 6.9433
 IR Inten    --    18.8559                27.4197                10.4387
 Raman Activ --    15.3906                 8.3406               138.9134

                   118                    119                    120
                     A                      A                      A
 Frequencies --  3303.5800              3305.5153              3312.0057
 Red. masses --     1.0881                 1.0959                 1.0952
 Frc consts  --     6.9967                 7.0549                 7.0782
 IR Inten    --    35.6158                 6.8785                84.0813
 Raman Activ --    11.5456                36.0952                14.1024

                   121                    122                    123
                     A                      A                      A
 Frequencies --  3318.7875              3352.7045              3367.2909
 Red. masses --     1.1065                 1.0675                 1.0647
 Frc consts  --     7.1806                 7.0696                 7.1128
 IR Inten    --    40.6538               402.8734                39.6298
 Raman Activ --    53.7316               214.3462                89.8712

                   124                    125                    126
                     A                      A                      A
 Frequencies --  3368.4038              3368.6559              3372.8717
 Red. masses --     1.0676                 1.0644                 1.0676
 Frc consts  --     7.1371                 7.1162                 7.1557
 IR Inten    --    61.8212                24.6409                51.9085
 Raman Activ --   119.6976                33.3897               149.3150

                   127                    128                    129
                     A                      A                      A
 Frequencies --  3375.9984              3885.6798              3889.8133
 Red. masses --     1.0658                 1.0676                 1.0673
 Frc consts  --     7.1568                 9.4971                 9.5144
 IR Inten    --    38.3456                70.9593                68.7999
 Raman Activ --   150.4547               107.2939               138.0538

 - Thermochemistry -
 -------------------
 Temperature   298.150 Kelvin.  Pressure   1.00000 Atm.
 Atom     1 has atomic number  8 and mass  15.99491

 Molecular mass:   342.11621 amu.
 Principal axes and moments of inertia in atomic units:
                           1         2         3
     Eigenvalues --  4642.03702********************
           X            0.99997  -0.00723   0.00049
           Y            0.00723   0.99997  -0.00271
           Z           -0.00047   0.00271   1.00000
 This molecule is an asymmetric top.
 Rotational symmetry number  1.
 Warning -- assumption of classical behavior for rotation
           may cause significant error
 Rotational temperatures (Kelvin)      0.01866     0.00710     0.00529
 Rotational constants (GHZ):           0.38878     0.14796     0.11030
    6 imaginary frequencies ignored.
 Zero-point vibrational energy     972627.9 (Joules/Mol)
                                  232.46366 (Kcal/Mol)
 Warning -- explicit consideration of  32 degrees of freedom as
           vibrations may cause significant error
 Vibrational temperatures:     21.64    62.66    65.63   129.89   141.47
          (Kelvin)            155.01   205.15   213.31   243.56   277.90
                              299.91   389.22   395.22   415.34   426.43
                              451.41   466.92   479.69   503.37   524.52
                              536.15   597.82   602.01   632.97   635.84
                              695.49   704.81   768.52   782.40   808.59
                              853.73   876.94   894.31   931.08   936.18
                              956.13   969.01  1008.10  1053.33  1065.55
                             1089.98  1207.92  1217.51  1325.12  1365.12
                             1390.82  1408.33  1417.67  1428.62  1444.86
                             1478.29  1503.15  1510.65  1513.52  1528.35
                             1536.21  1539.37  1556.25  1577.16  1582.79
                             1592.81  1608.82  1632.41  1636.58  1651.31
                             1657.28  1670.89  1684.43  1698.82  1725.97
                             1730.01  1753.45  1771.12  1797.24  1806.06
                             1807.60  1822.86  1845.42  1854.93  1885.82
                             1887.12  1908.60  1917.83  1920.52  1926.18
                             1934.76  1937.66  1959.88  1965.31  1982.57
                             1986.83  1997.79  2002.54  2018.76  2026.21
                             2073.30  2099.78  2109.96  2118.07  2150.58
                             2192.02  4683.47  4685.93  4690.56  4696.23
                             4713.40  4714.31  4719.51  4723.39  4736.43
                             4739.85  4753.11  4755.89  4765.23  4774.99
                             4823.79  4844.77  4846.38  4846.74  4852.80
                             4857.30  5590.62  5596.57

 Zero-point correction=                           0.370454 (Hartree/Particle)
 Thermal correction to Energy=                    0.389900
 Thermal correction to Enthalpy=                  0.390844
 Thermal correction to Gibbs Free Energy=         0.321891
 Sum of electronic and zero-point Energies=          -1297.616569
 Sum of electronic and thermal Energies=             -1297.597123
 Sum of electronic and thermal Enthalpies=           -1297.596179
 Sum of electronic and thermal Free Energies=        -1297.665132

                     E (Thermal)             CV                S
                      KCal/Mol        Cal/Mol-Kelvin    Cal/Mol-Kelvin
 Total                  244.666             78.455            145.124
 Electronic               0.000              0.000              0.000
 Translational            0.889              2.981             43.384
 Rotational               0.889              2.981             35.181
 Vibrational            242.888             72.494             66.558
 Vibration     1          0.593              1.986              7.200
 Vibration     2          0.595              1.980              5.091
 Vibration     3          0.595              1.979              4.999
 Vibration     4          0.602              1.956              3.654
 Vibration     5          0.604              1.950              3.487
 Vibration     6          0.606              1.943              3.309
 Vibration     7          0.616              1.911              2.769
 Vibration     8          0.618              1.905              2.694
 Vibration     9          0.625              1.880              2.443
 Vibration    10          0.635              1.849              2.197
 Vibration    11          0.642              1.828              2.057
 Vibration    12          0.674              1.728              1.593
 Vibration    13          0.677              1.720              1.567
 Vibration    14          0.685              1.695              1.482
 Vibration    15          0.690              1.680              1.437
 Vibration    16          0.702              1.647              1.343
 Vibration    17          0.709              1.626              1.287
 Vibration    18          0.715              1.609              1.244
 Vibration    19          0.727              1.576              1.167
 Vibration    20          0.738              1.545              1.103
 Vibration    21          0.744              1.528              1.069
 Vibration    22          0.779              1.437              0.907
 Vibration    23          0.781              1.430              0.897
 Vibration    24          0.800              1.383              0.827
 Vibration    25          0.802              1.379              0.821
 Vibration    26          0.840              1.287              0.701
 Vibration    27          0.846              1.273              0.684
 Vibration    28          0.889              1.174              0.578
 Vibration    29          0.899              1.153              0.557
 Vibration    30          0.918              1.114              0.520
 Vibration    31          0.951              1.046              0.461
 Vibration    32          0.968              1.012              0.434

 Normal termination of Gaussian 09 at Fri Apr  1 10:39:52 2016.
