 Gaussian 09, Revision B.01,
 Gaussian 09:  EM64L-G09RevB.01 12-Aug-2010

 -------------------------------------------------
 # freq=raman b3lyp/6-31+g(2d,p) geom=connectivity
 -------------------------------------------------

 -----------------
 550 9528/9528.com
 -----------------
 Symbolic Z-matrix:
 Charge =  0 Multiplicity = 1

                         Standard orientation:
 ---------------------------------------------------------------------
 Center     Atomic      Atomic             Coordinates (Angstroms)
 Number     Number       Type             X           Y           Z
 ---------------------------------------------------------------------
      1          8           0        5.083576   -0.238099   -0.539189
      2          6           0        3.903036    0.102822    0.202182
      3          6           0        3.316367    1.314951   -0.503824
      4          8           0        4.130819    2.482266   -0.681317
      5          1           0        5.037848    2.095463   -0.843230
      6          6           0        1.994569    1.516181    0.219367
      7          8           0        1.299145    2.764878    0.084364
      8          1           0        1.744218    3.604622    0.393948
      9          6           0        3.504240   -2.060135    0.930761
     10          8           0        4.721986   -2.797980    0.752397
     11          1           0        5.565516   -2.304205    0.540967
     12          6           0        2.933501   -1.042536   -0.042594
     13          8           0        1.515519   -0.897685    0.125156
     14          6           0        1.029851    0.414571   -0.190195
     15          8           0       -0.282286    0.566793    0.371300
     16          6           0       -1.511742    0.217489   -0.280131
     17          6           0       -1.835456   -1.266554   -0.235261
     18          8           0       -1.035318   -2.052926   -1.129800
     19          1           0       -0.083748   -1.755607   -1.056865
     20          6           0       -3.299752   -1.641797   -0.396363
     21          8           0       -3.402159   -2.975094    0.125685
     22          1           0       -2.778536   -3.482325   -0.470398
     23          6           0       -2.624656    2.425798    0.055174
     24          8           0       -3.678636    3.246943    0.577637
     25          1           0       -3.624304    3.135141    1.570083
     26          6           0       -2.663706    0.944086    0.394903
     27          8           0       -3.959970    0.506746   -0.039237
     28          6           0       -4.337408   -0.821710    0.351192
     29          8           0       -5.620248   -0.817430   -0.291744
     30          1           0        5.846435    0.185062   -0.138464
     31          1           0        2.737029   -2.792951    1.069571
     32          1           0        3.609319   -1.545049    1.862718
     33          1           0        3.103520   -1.404625   -1.035008
     34          1           0        4.095706    0.274542    1.240589
     35          1           0        3.067269    0.988075   -1.491753
     36          1           0        2.193507    1.386675    1.262704
     37          1           0        0.926609    0.466688   -1.253927
     38          1           0       -6.222873   -0.254917    0.200213
     39          1           0       -2.635605    2.517797   -1.010807
     40          1           0       -1.695656    2.819179    0.411700
     41          1           0       -2.585950    0.821975    1.455065
     42          1           0       -1.459663    0.527941   -1.302778
     43          1           0       -1.565151   -1.585588    0.749651
     44          1           0       -3.545891   -1.652535   -1.437612
     45          1           0       -4.362095   -0.971658    1.410346
 ---------------------------------------------------------------------

 SCF Done:  E(RB3LYP) =  -1297.94549818     A.U. after   13 cycles

 The electronic state is 1-A.
 Alpha  occ. eigenvalues --  -19.20750 -19.20544 -19.18948 -19.18044 -19.17313
 Alpha  occ. eigenvalues --  -19.16744 -19.16339 -19.15569 -19.15547 -19.15110
 Alpha  occ. eigenvalues --  -19.14776 -10.32434 -10.29431 -10.28179 -10.27229
 Alpha  occ. eigenvalues --  -10.27166 -10.26322 -10.25649 -10.24779 -10.24420
 Alpha  occ. eigenvalues --  -10.24286 -10.24191 -10.22385  -1.10738  -1.08973
 Alpha  occ. eigenvalues --   -1.07947  -1.05462  -1.04913  -1.03789  -1.03091
 Alpha  occ. eigenvalues --   -1.02611  -1.01794  -1.01238  -0.99889  -0.84497
 Alpha  occ. eigenvalues --   -0.82885  -0.79414  -0.77645  -0.72168  -0.69838
 Alpha  occ. eigenvalues --   -0.68594  -0.65349  -0.65037  -0.63517  -0.62276
 Alpha  occ. eigenvalues --   -0.60034  -0.58203  -0.56678  -0.55910  -0.55306
 Alpha  occ. eigenvalues --   -0.54867  -0.53391  -0.53178  -0.52810  -0.51066
 Alpha  occ. eigenvalues --   -0.50486  -0.50133  -0.48311  -0.47789  -0.46726
 Alpha  occ. eigenvalues --   -0.46298  -0.45862  -0.45305  -0.44271  -0.43316
 Alpha  occ. eigenvalues --   -0.43192  -0.42780  -0.41766  -0.41484  -0.40276
 Alpha  occ. eigenvalues --   -0.39988  -0.38281  -0.37961  -0.37343  -0.36604
 Alpha  occ. eigenvalues --   -0.36028  -0.35415  -0.35103  -0.34090  -0.32991
 Alpha  occ. eigenvalues --   -0.32656  -0.31847  -0.31207  -0.30135  -0.29988
 Alpha  occ. eigenvalues --   -0.29811  -0.29127  -0.29032  -0.27804  -0.27507
 Alpha  occ. eigenvalues --   -0.26536
 Alpha virt. eigenvalues --   -0.04994  -0.01561  -0.01217  -0.00423  -0.00155
 Alpha virt. eigenvalues --    0.00712   0.01649   0.01850   0.02475   0.03165
 Alpha virt. eigenvalues --    0.03419   0.04115   0.04388   0.04928   0.05197

 Mulliken atomic charges:
              1
     1  O   -0.576694
     2  C   -0.302899
     3  C    0.241761
     4  O   -0.576877
     5  H    0.320364
     6  C    0.134035
     7  O   -0.561905
     8  H    0.355118
     9  C   -0.265729
    10  O   -0.500459
    11  H    0.334427
    12  C    0.357860
    13  O   -0.296950
    14  C    0.041209
    15  O   -0.234299
    16  C    0.155624
    17  C    0.163587
    18  O   -0.589600
    19  H    0.360631
    20  C    0.077766
    21  O   -0.531264
    22  H    0.344521
    23  C   -0.162505
    24  O   -0.468377
    25  H    0.309391
    26  C   -0.110301
    27  O   -0.208186
    28  C    0.184118
    29  O   -0.506237
    30  H    0.337250
    31  H    0.153803
    32  H    0.120573
    33  H    0.135119
    34  H    0.136452
    35  H    0.113258
    36  H    0.114089
    37  H    0.118318
    38  H    0.327989
    39  H    0.145513
    40  H    0.165753
    41  H    0.104992
    42  H    0.115871
    43  H    0.137715
    44  H    0.145602
    45  H    0.139573
 Sum of Mulliken atomic charges =   0.00000

 Dipole moment (field-independent basis, Debye):
    X=              7.3220    Y=              2.4783    Z=              2.6943  Tot=              8.1861
 Quadrupole moment (field-independent basis, Debye-Ang):
   XX=           -125.8594   YY=           -160.0455   ZZ=           -134.0719
   XY=              7.5664   XZ=             -6.5183   YZ=              7.9366

  Exact polarizability: 234.463  -1.835 193.686  -3.431  -0.132 148.235
 Approx polarizability: 278.936  -2.540 255.837  -2.780   0.506 242.018

 ******    7 imaginary frequencies (negative Signs) ******

                     1                      2                      3
                     A                      A                      A
 Frequencies --  -306.9759              -219.6963              -185.1868
 Red. masses --     1.0702                 1.9614                 1.7533
 Frc consts  --     0.0594                 0.0558                 0.0354
 IR Inten    --   140.9852                 6.3320                 4.4310
 Raman Activ --     1.8526                 0.0912                 0.1027

                     4                      5                      6
                     A                      A                      A
 Frequencies --   -93.8600               -75.9130               -54.9103
 Red. masses --     6.1078                 6.3280                 6.6563
 Frc consts  --     0.0317                 0.0215                 0.0118
 IR Inten    --     2.4686                 2.0593                 1.5616
 Raman Activ --     0.0889                 0.0169                 0.1755

                     7                      8                      9
                     A                      A                      A
 Frequencies --   -14.9852                44.8493                58.0112
 Red. masses --     7.1135                 6.1415                 4.1904
 Frc consts  --     0.0009                 0.0073                 0.0083
 IR Inten    --     1.4696                 1.2942                16.0675
 Raman Activ --     0.0972                 0.1414                 0.2560

                    10                     11                     12
                     A                      A                      A
 Frequencies --    77.2568                94.6320               109.2208
 Red. masses --     2.5234                 4.1514                 5.4759
 Frc consts  --     0.0089                 0.0219                 0.0385
 IR Inten    --    48.6466                28.1659                 2.9183
 Raman Activ --     0.8518                 0.1827                 0.2831

                    13                     14                     15
                     A                      A                      A
 Frequencies --   115.7178               141.8548               163.8295
 Red. masses --     5.9185                 5.7180                 6.7435
 Frc consts  --     0.0467                 0.0678                 0.1066
 IR Inten    --     0.1490                 9.2832                 0.5878
 Raman Activ --     0.9246                 0.0515                 0.9021

                    16                     17                     18
                     A                      A                      A
 Frequencies --   186.9176               227.9074               252.5230
 Red. masses --     6.7817                 5.4642                 5.0168
 Frc consts  --     0.1396                 0.1672                 0.1885
 IR Inten    --     1.0674                 1.9163                 2.4275
 Raman Activ --     1.9055                 0.7951                 0.0765

                    19                     20                     21
                     A                      A                      A
 Frequencies --   268.3456               285.9724               294.9114
 Red. masses --     5.4176                 5.6176                 5.4988
 Frc consts  --     0.2299                 0.2707                 0.2818
 IR Inten    --    12.1953                 9.6754                 3.4462
 Raman Activ --     0.5817                 0.1569                 1.1423

                    22                     23                     24
                     A                      A                      A
 Frequencies --   297.3141               301.3537               332.0937
 Red. masses --     5.9393                 6.1225                 2.4652
 Frc consts  --     0.3093                 0.3276                 0.1602
 IR Inten    --     0.8782                 2.2505                22.6830
 Raman Activ --     2.2200                 1.7151                 0.6108

                    25                     26                     27
                     A                      A                      A
 Frequencies --   333.4092               374.9265               394.9914
 Red. masses --     6.4930                 6.8771                 3.9404
 Frc consts  --     0.4253                 0.5696                 0.3622
 IR Inten    --     0.9603                 5.6988                 1.9100
 Raman Activ --     3.8958                 2.7846                 1.5940

                    28                     29                     30
                     A                      A                      A
 Frequencies --   419.3366               425.7694               439.4414
 Red. masses --     5.4357                 5.0530                 4.8192
 Frc consts  --     0.5632                 0.5397                 0.5483
 IR Inten    --     7.0609                 1.5106                 4.5680
 Raman Activ --     3.7863                 1.2584                 1.6398

                    31                     32                     33
                     A                      A                      A
 Frequencies --   446.7114               482.0346               484.8812
 Red. masses --     4.2988                 5.6478                 3.3588
 Frc consts  --     0.5054                 0.7732                 0.4653
 IR Inten    --     4.8159                 9.5897                13.1406
 Raman Activ --     4.3843                 3.6895                 0.9002

                    34                     35                     36
                     A                      A                      A
 Frequencies --   539.2181               544.9812               559.2143
 Red. masses --     3.4230                 3.6184                 6.1540
 Frc consts  --     0.5864                 0.6332                 1.1339
 IR Inten    --     5.7371                17.3197                 4.8273
 Raman Activ --     1.5019                 4.0226                 1.6950

                    37                     38                     39
                     A                      A                      A
 Frequencies --   589.2658               593.9639               616.2698
 Red. masses --     2.4102                 1.8800                 3.4980
 Frc consts  --     0.4931                 0.3908                 0.7827
 IR Inten    --    69.4395                43.0071                34.5140
 Raman Activ --     1.3146                 0.5527                 3.2796

                    40                     41                     42
                     A                      A                      A
 Frequencies --   632.3679               648.3330               665.7713
 Red. masses --     1.9384                 2.5744                 1.1888
 Frc consts  --     0.4567                 0.6376                 0.3105
 IR Inten    --     2.1195                17.2415               126.0662
 Raman Activ --     1.1437                 0.8749                 1.6620

                    43                     44                     45
                     A                      A                      A
 Frequencies --   673.9320               702.2043               715.3802
 Red. masses --     4.1936                 1.1105                 1.0783
 Frc consts  --     1.1222                 0.3226                 0.3251
 IR Inten    --     1.9065                66.7934                73.4901
 Raman Activ --     0.2898                 1.2733                 1.2692

                    46                     47                     48
                     A                      A                      A
 Frequencies --   723.1537               785.0168               847.3101
 Red. masses --     1.0944                 1.1156                 2.7150
 Frc consts  --     0.3372                 0.4051                 1.1484
 IR Inten    --   116.1693               106.4532                16.6117
 Raman Activ --     1.1069                 1.2005                 4.1843

                    49                     50                     51
                     A                      A                      A
 Frequencies --   871.2754               916.4794               935.8910
 Red. masses --     1.7028                 7.2240                 6.0127
 Frc consts  --     0.7616                 3.5750                 3.1029
 IR Inten    --     4.5705               231.8321                85.7609
 Raman Activ --     0.7313                 5.7095                 2.3572

                    52                     53                     54
                     A                      A                      A
 Frequencies --   959.1070               974.0733               975.8378
 Red. masses --     6.4296                 5.4582                 4.9937
 Frc consts  --     3.4847                 3.0513                 2.8018
 IR Inten    --    49.0520               356.1947                11.9691
 Raman Activ --     0.9054                 3.2309                 0.8281

                    55                     56                     57
                     A                      A                      A
 Frequencies --   990.5650               996.7898              1008.2712
 Red. masses --     3.7368                 7.4872                 3.3296
 Frc consts  --     2.1603                 4.3831                 1.9943
 IR Inten    --    65.3776               369.2969               168.4793
 Raman Activ --     0.6675                 1.8811                 3.6855

                    58                     59                     60
                     A                      A                      A
 Frequencies --  1025.6423              1038.7708              1052.5807
 Red. masses --     2.8786                 5.2510                 4.5760
 Frc consts  --     1.7841                 3.3384                 2.9871
 IR Inten    --   126.9210                85.2292                39.5892
 Raman Activ --     2.7812                 3.2992                19.0186

                    61                     62                     63
                     A                      A                      A
 Frequencies --  1057.9838              1060.4843              1068.6874
 Red. masses --     4.7950                 4.0949                 5.3336
 Frc consts  --     3.1623                 2.7134                 3.5890
 IR Inten    --    73.9041                 3.9032                62.8442
 Raman Activ --    16.6016                 4.1583                 4.1550

                    64                     65                     66
                     A                      A                      A
 Frequencies --  1077.4190              1103.0899              1109.8833
 Red. masses --     3.8794                 2.6118                 2.8704
 Frc consts  --     2.6533                 1.8725                 2.0833
 IR Inten    --    45.7094                56.0017                 3.5167
 Raman Activ --     5.9652                 4.0967                 4.8148

                    67                     68                     69
                     A                      A                      A
 Frequencies --  1112.6549              1118.8797              1126.3149
 Red. masses --     2.9514                 2.5991                 2.1880
 Frc consts  --     2.1528                 1.9171                 1.6354
 IR Inten    --    37.0399                49.6595                12.0587
 Raman Activ --     0.4002                 2.5470                 1.4576

                    70                     71                     72
                     A                      A                      A
 Frequencies --  1139.2056              1144.3925              1150.4025
 Red. masses --     1.7133                 1.9292                 2.0177
 Frc consts  --     1.3100                 1.4886                 1.5733
 IR Inten    --     8.9289                 0.6760                31.0926
 Raman Activ --     2.2289                 1.8344                 2.7073

                    73                     74                     75
                     A                      A                      A
 Frequencies --  1156.6966              1173.5004              1179.4629
 Red. masses --     1.6662                 1.6832                 1.5893
 Frc consts  --     1.3135                 1.3657                 1.3027
 IR Inten    --     3.5276                18.8333                11.2716
 Raman Activ --     3.4772                 1.5623                 1.0448

                    76                     77                     78
                     A                      A                      A
 Frequencies --  1182.8952              1194.5734              1202.7133
 Red. masses --     1.4087                 2.3925                 1.4434
 Frc consts  --     1.1613                 2.0115                 1.2302
 IR Inten    --    74.3329                26.0655                 8.8486
 Raman Activ --     4.6930                 1.2388                 3.0037

                    79                     80                     81
                     A                      A                      A
 Frequencies --  1226.4934              1239.5063              1253.8048
 Red. masses --     1.2652                 1.3015                 1.2799
 Frc consts  --     1.1214                 1.1781                 1.1855
 IR Inten    --    26.7082                 3.1722                12.1781
 Raman Activ --     3.8180                 0.7844                 2.2741

                    82                     83                     84
                     A                      A                      A
 Frequencies --  1262.8439              1272.9142              1282.0699
 Red. masses --     1.2576                 1.2204                 1.2834
 Frc consts  --     1.1817                 1.1651                 1.2429
 IR Inten    --     5.7310                 9.0467                42.2471
 Raman Activ --     4.5210                 2.9607                 1.1108

                    85                     86                     87
                     A                      A                      A
 Frequencies --  1288.5510              1305.0259              1313.5523
 Red. masses --     1.4061                 1.2170                 1.2968
 Frc consts  --     1.3755                 1.2212                 1.3183
 IR Inten    --    15.7369                 3.8095                13.0877
 Raman Activ --     0.9156                 1.3086                 2.7246

                    88                     89                     90
                     A                      A                      A
 Frequencies --  1314.5463              1315.7731              1330.4773
 Red. masses --     1.4052                 1.4518                 1.3038
 Frc consts  --     1.4307                 1.4808                 1.3599
 IR Inten    --     4.6150                 8.8698                15.7615
 Raman Activ --     8.6319                 2.8256                 7.4550

                    91                     92                     93
                     A                      A                      A
 Frequencies --  1335.0810              1344.7542              1360.9250
 Red. masses --     1.2290                 1.3322                 1.3523
 Frc consts  --     1.2907                 1.4194                 1.4757
 IR Inten    --    12.7883                59.3696                10.8437
 Raman Activ --     0.8268                 1.4746                 2.6155

                    94                     95                     96
                     A                      A                      A
 Frequencies --  1369.4359              1373.1418              1378.5246
 Red. masses --     1.3768                 1.2427                 1.3843
 Frc consts  --     1.5212                 1.3806                 1.5499
 IR Inten    --     4.6937                12.3581                39.8898
 Raman Activ --     1.6005                 4.5056                 4.6992

                    97                     98                     99
                     A                      A                      A
 Frequencies --  1381.5346              1383.8565              1396.4989
 Red. masses --     1.5845                 1.2038                 1.2892
 Frc consts  --     1.7818                 1.3582                 1.4814
 IR Inten    --    20.5257                 9.4676                 5.6020
 Raman Activ --     4.8695                 6.0940                 2.7206

                   100                    101                    102
                     A                      A                      A
 Frequencies --  1404.0865              1411.2009              1458.0423
 Red. masses --     1.2256                 1.4005                 1.0664
 Frc consts  --     1.4236                 1.6433                 1.3357
 IR Inten    --    20.6715                44.5918                23.4146
 Raman Activ --     1.8593                 4.4317                 4.9097

                   103                    104                    105
                     A                      A                      A
 Frequencies --  1461.3208              1462.8900              1473.8610
 Red. masses --     1.3695                 1.3702                 1.2070
 Frc consts  --     1.7231                 1.7277                 1.5448
 IR Inten    --    32.8618                31.4685                56.0694
 Raman Activ --     1.5386                 2.0489                 3.3782

                   106                    107                    108
                     A                      A                      A
 Frequencies --  1490.0160              1504.9305              3250.1868
 Red. masses --     1.0819                 1.3810                 1.0640
 Frc consts  --     1.4153                 1.8427                 6.6222
 IR Inten    --     4.9137                68.3879                26.7070
 Raman Activ --     3.7751                 3.3304                59.4272

                   109                    110                    111
                     A                      A                      A
 Frequencies --  3259.6431              3261.7483              3268.5427
 Red. masses --     1.0801                 1.0830                 1.0736
 Frc consts  --     6.7619                 6.7886                 6.7577
 IR Inten    --     7.2567                16.1504                13.1789
 Raman Activ --    88.4310                14.7240                10.9323

                   112                    113                    114
                     A                      A                      A
 Frequencies --  3270.4219              3271.2259              3278.1553
 Red. masses --     1.0819                 1.0671                 1.0856
 Frc consts  --     6.8176                 6.7280                 6.8735
 IR Inten    --    10.1874                 9.9854                30.5264
 Raman Activ --    47.4580               200.5507                41.4623

                   115                    116                    117
                     A                      A                      A
 Frequencies --  3283.4617              3285.9233              3296.1362
 Red. masses --     1.0830                 1.0848                 1.0860
 Frc consts  --     6.8792                 6.9012                 6.9519
 IR Inten    --    10.3357                33.9858                 2.7440
 Raman Activ --   112.5413                 5.7465                94.0864

                   118                    119                    120
                     A                      A                      A
 Frequencies --  3297.8477              3306.4638              3315.1128
 Red. masses --     1.0868                 1.0869                 1.1007
 Frc consts  --     6.9638                 7.0013                 7.1272
 IR Inten    --    49.4312                48.8289                37.3614
 Raman Activ --    26.3434                29.6892                60.3491

                   121                    122                    123
                     A                      A                      A
 Frequencies --  3329.7824              3356.5305              3359.9735
 Red. masses --     1.1021                 1.0668                 1.0649
 Frc consts  --     7.1994                 7.0810                 7.0835
 IR Inten    --    30.3552               225.1996                31.4862
 Raman Activ --    50.2175               194.4670                54.4944

                   124                    125                    126
                     A                      A                      A
 Frequencies --  3364.9462              3374.4895              3376.3487
 Red. masses --     1.0702                 1.0675                 1.0647
 Frc consts  --     7.1393                 7.1622                 7.1510
 IR Inten    --     8.1392                25.2222                33.2096
 Raman Activ --    46.9806                41.2488               107.5089

                   127                    128                    129
                     A                      A                      A
 Frequencies --  3382.2000              3880.6467              3891.4871
 Red. masses --     1.0682                 1.0671                 1.0667
 Frc consts  --     7.1997                 9.4681                 9.5175
 IR Inten    --    75.0673                51.4253                67.3229
 Raman Activ --   132.4912               107.0464               118.7847

 - Thermochemistry -
 -------------------
 Temperature   298.150 Kelvin.  Pressure   1.00000 Atm.
 Atom     1 has atomic number  8 and mass  15.99491

 Molecular mass:   342.11621 amu.
 Principal axes and moments of inertia in atomic units:
                           1         2         3
     Eigenvalues --  4282.12820********************
           X            1.00000  -0.00242  -0.00012
           Y            0.00242   1.00000   0.00131
           Z            0.00012  -0.00131   1.00000
 This molecule is an asymmetric top.
 Rotational symmetry number  1.
 Warning -- assumption of classical behavior for rotation
           may cause significant error
 Rotational temperatures (Kelvin)      0.02023     0.00627     0.00498
 Rotational constants (GHZ):           0.42146     0.13056     0.10379
    7 imaginary frequencies ignored.
 Zero-point vibrational energy     971080.9 (Joules/Mol)
                                  232.09391 (Kcal/Mol)
 Warning -- explicit consideration of  32 degrees of freedom as
           vibrations may cause significant error
 Vibrational temperatures:     64.53    83.47   111.16   136.15   157.14
          (Kelvin)            166.49   204.10   235.71   268.93   327.91
                              363.32   386.09   411.45   424.31   427.77
                              433.58   477.81   479.70   539.43   568.30
                              603.33   612.59   632.26   642.72   693.54
                              697.64   775.81   784.11   804.58   847.82
                              854.58   886.67   909.84   932.81   957.90
                              969.64  1010.31  1029.27  1040.46  1129.46
                             1219.09  1253.57  1318.61  1346.54  1379.94
                             1401.47  1404.01  1425.20  1434.16  1450.68
                             1475.67  1494.56  1514.43  1522.20  1525.80
                             1537.60  1550.16  1587.10  1596.87  1600.86
                             1609.82  1620.51  1639.06  1646.52  1655.17
                             1664.23  1688.40  1696.98  1701.92  1718.72
                             1730.43  1764.65  1783.37  1803.94  1816.95
                             1831.44  1844.61  1853.94  1877.64  1889.91
                             1891.34  1893.10  1914.26  1920.88  1934.80
                             1958.07  1970.31  1975.64  1983.39  1987.72
                             1991.06  2009.25  2020.16  2030.40  2097.80
                             2102.51  2104.77  2120.55  2143.80  2165.26
                             4676.29  4689.89  4692.92  4702.70  4705.40
                             4706.56  4716.53  4724.16  4727.70  4742.40
                             4744.86  4757.26  4769.70  4790.81  4829.29
                             4834.25  4841.40  4855.13  4857.81  4866.23
                             5583.38  5598.97

 Zero-point correction=                           0.369865 (Hartree/Particle)
 Thermal correction to Energy=                    0.388548
 Thermal correction to Enthalpy=                  0.389492
 Thermal correction to Gibbs Free Energy=         0.323589
 Sum of electronic and zero-point Energies=          -1297.575633
 Sum of electronic and thermal Energies=             -1297.556950
 Sum of electronic and thermal Enthalpies=           -1297.556006
 Sum of electronic and thermal Free Energies=        -1297.621909

                     E (Thermal)             CV                S
                      KCal/Mol        Cal/Mol-Kelvin    Cal/Mol-Kelvin
 Total                  243.818             76.756            138.704
 Electronic               0.000              0.000              0.000
 Translational            0.889              2.981             43.384
 Rotational               0.889              2.981             35.286
 Vibrational            242.040             70.794             60.034
 Vibration     1          0.595              1.979              5.032
 Vibration     2          0.596              1.974              4.524
 Vibration     3          0.599              1.964              3.959
 Vibration     4          0.603              1.953              3.562
 Vibration     5          0.606              1.942              3.283
 Vibration     6          0.608              1.936              3.171
 Vibration     7          0.615              1.911              2.779
 Vibration     8          0.623              1.887              2.505
 Vibration     9          0.632              1.858              2.258
 Vibration    10          0.651              1.798              1.895
 Vibration    11          0.664              1.759              1.713
 Vibration    12          0.673              1.731              1.607
 Vibration    13          0.684              1.700              1.498
 Vibration    14          0.689              1.683              1.446
 Vibration    15          0.691              1.679              1.432
 Vibration    16          0.693              1.671              1.409
 Vibration    17          0.714              1.611              1.250
 Vibration    18          0.715              1.609              1.244
 Vibration    19          0.746              1.524              1.060
 Vibration    20          0.762              1.481              0.981
 Vibration    21          0.782              1.428              0.894
 Vibration    22          0.788              1.414              0.873
 Vibration    23          0.799              1.384              0.828
 Vibration    24          0.806              1.368              0.806
 Vibration    25          0.838              1.290              0.705
 Vibration    26          0.841              1.284              0.697
 Vibration    27          0.894              1.163              0.567
 Vibration    28          0.900              1.151              0.555
 Vibration    29          0.915              1.120              0.525
 Vibration    30          0.947              1.055              0.468
 Vibration    31          0.952              1.045              0.460
 Vibration    32          0.976              0.997              0.423

 Normal termination of Gaussian 09 at Mon Apr  4 19:26:00 2016.
