 Gaussian 09, Revision B.01,
 Gaussian 09:  EM64L-G09RevB.01 12-Aug-2010

 ------------------------------------------------
 # freq=raman b3lyp/6-31+g(d,p) geom=connectivity
 ------------------------------------------------

 ------------
 500 6000.com
 ------------
 Symbolic Z-matrix:
 Charge =  0 Multiplicity = 1

                         Standard orientation:
 ---------------------------------------------------------------------
 Center     Atomic      Atomic             Coordinates (Angstroms)
 Number     Number       Type             X           Y           Z
 ---------------------------------------------------------------------
      1          8           0       -4.960231   -0.554971    0.726139
      2          6           0       -3.855437   -0.040864   -0.032433
      3          6           0       -3.357720    1.288834    0.509947
      4          8           0       -4.351801    2.124223   -0.100015
      5          1           0       -5.219586    1.887881    0.335966
      6          6           0       -2.022657    1.719383   -0.075916
      7          8           0       -1.462497    2.937527    0.435048
      8          1           0       -1.889383    3.814574    0.211908
      9          6           0       -3.161180   -2.317092   -0.664487
     10          8           0       -2.489821   -3.530682   -0.295942
     11          1           0       -3.181745   -4.253511   -0.304363
     12          6           0       -2.788473   -1.104045    0.171409
     13          8           0       -1.561979   -0.635371   -0.408607
     14          6           0       -1.069310    0.567322    0.198442
     15          8           0        0.132985    0.526937   -0.584438
     16          6           0        1.370161    0.241625    0.082746
     17          6           0        1.825167   -1.180528   -0.206287
     18          8           0        0.886886   -2.233648    0.058057
     19          1           0       -0.014921   -1.975923   -0.288330
     20          6           0        3.102401   -1.514333    0.547250
     21          8           0        3.456125   -2.818783    0.065171
     22          1           0        2.670941   -3.342054    0.398577
     23          6           0        2.025670    2.568878   -0.264122
     24          8           0        3.127357    3.432549   -0.579495
     25          1           0        2.896915    4.334905   -0.215487
     26          6           0        2.537017    1.138123   -0.298667
     27          8           0        3.744222    0.745881    0.369496
     28          6           0        4.156530   -0.574428   -0.013350
     29          8           0        5.480587   -0.650528    0.534995
     30          1           0        6.122771   -0.453174   -0.150754
     31          1           0        4.193044   -0.653215   -1.079821
     32          1           0        2.999888   -1.462272    1.611055
     33          1           0        2.055761   -1.224734   -1.250209
     34          1           0        1.208727    0.334175    1.136441
     35          1           0        2.723265    0.938446   -1.333240
     36          1           0        1.247709    2.693856   -0.988040
     37          1           0        1.653108    2.797686    0.712476
     38          1           0       -5.728407   -0.638246    0.156428
     39          1           0       -2.934195   -2.103753   -1.688139
     40          1           0       -4.215808   -2.475415   -0.577344
     41          1           0       -2.668333   -1.355744    1.204421
     42          1           0       -4.112899    0.042688   -1.067629
     43          1           0       -3.383458    1.337195    1.578543
     44          1           0       -2.136305    1.820083   -1.135088
     45          1           0       -0.874771    0.434225    1.242157
 ---------------------------------------------------------------------

 SCF Done:  E(RB3LYP) =  -1297.91824066     A.U. after   14 cycles

 The electronic state is 1-A.
 Alpha  occ. eigenvalues --  -19.20232 -19.19008 -19.18815 -19.18695 -19.17824
 Alpha  occ. eigenvalues --  -19.17474 -19.15948 -19.15876 -19.15362 -19.15181
 Alpha  occ. eigenvalues --  -19.14588 -10.31862 -10.28907 -10.27626 -10.27153
 Alpha  occ. eigenvalues --  -10.27064 -10.25546 -10.24836 -10.24586 -10.23939
 Alpha  occ. eigenvalues --  -10.23593 -10.23296 -10.22929  -1.10595  -1.07964
 Alpha  occ. eigenvalues --   -1.06728  -1.05387  -1.03752  -1.03555  -1.02860
 Alpha  occ. eigenvalues --   -1.02259  -1.01315  -0.99934  -0.99462  -0.82217
 Alpha  occ. eigenvalues --   -0.82017  -0.78745  -0.77157  -0.71902  -0.69559
 Alpha  occ. eigenvalues --   -0.67569  -0.64656  -0.63192  -0.62548  -0.60729
 Alpha  occ. eigenvalues --   -0.60247  -0.57717  -0.56842  -0.55101  -0.54156
 Alpha  occ. eigenvalues --   -0.53547  -0.53282  -0.52379  -0.51904  -0.51406
 Alpha  occ. eigenvalues --   -0.50604  -0.49566  -0.47880  -0.47197  -0.46637
 Alpha  occ. eigenvalues --   -0.46415  -0.44662  -0.44467  -0.43511  -0.43303
 Alpha  occ. eigenvalues --   -0.42921  -0.41931  -0.40807  -0.40360  -0.39297
 Alpha  occ. eigenvalues --   -0.38431  -0.37999  -0.36653  -0.36261  -0.36089
 Alpha  occ. eigenvalues --   -0.35197  -0.34939  -0.34206  -0.33751  -0.33687
 Alpha  occ. eigenvalues --   -0.32103  -0.31975  -0.30479  -0.30228  -0.29946
 Alpha  occ. eigenvalues --   -0.29528  -0.28085  -0.27916  -0.27449  -0.26407
 Alpha  occ. eigenvalues --   -0.25306
 Alpha virt. eigenvalues --   -0.03652  -0.02102  -0.01236  -0.00468   0.00310
 Alpha virt. eigenvalues --    0.00769   0.01385   0.01932   0.02460   0.02969
 Alpha virt. eigenvalues --    0.03642   0.04174   0.05160   0.05644   0.05676

 Mulliken atomic charges:
              1
     1  O   -0.557445
     2  C   -0.195594
     3  C    0.225293
     4  O   -0.516150
     5  H    0.352387
     6  C   -0.230751
     7  O   -0.547142
     8  H    0.379931
     9  C   -0.304689
    10  O   -0.532841
    11  H    0.352654
    12  C    0.293169
    13  O   -0.397918
    14  C    0.509850
    15  O   -0.318166
    16  C    0.010392
    17  C   -0.069980
    18  O   -0.575790
    19  H    0.422006
    20  C    0.014350
    21  O   -0.460598
    22  H    0.366135
    23  C    0.058835
    24  O   -0.518222
    25  H    0.335484
    26  C   -0.140353
    27  O   -0.317930
    28  C    0.192619
    29  O   -0.505622
    30  H    0.350986
    31  H    0.118498
    32  H    0.146603
    33  H    0.136758
    34  H    0.116442
    35  H    0.120977
    36  H    0.161717
    37  H    0.133411
    38  H    0.367158
    39  H    0.156708
    40  H    0.116240
    41  H    0.152472
    42  H    0.159428
    43  H    0.159919
    44  H    0.154772
    45  H    0.123996
 Sum of Mulliken atomic charges =   0.00000

 Dipole moment (field-independent basis, Debye):
    X=             -9.8755    Y=              2.1201    Z=             -0.9441  Tot=             10.1445
 Quadrupole moment (field-independent basis, Debye-Ang):
   XX=           -125.2781   YY=           -134.4103   ZZ=           -139.0357
   XY=             10.2186   XZ=             -3.4864   YZ=              4.2143

  Exact polarizability: 221.168  -0.417 196.730  -0.633   0.503 140.762
 Approx polarizability: 261.965   0.888 250.616  -0.797   0.601 230.595

 ******    8 imaginary frequencies (negative Signs) ******

                     1                      2                      3
                     A                      A                      A
 Frequencies --  -351.8066              -217.7739              -188.6056
 Red. masses --     1.0866                 1.8641                 1.2413
 Frc consts  --     0.0792                 0.0521                 0.0260
 IR Inten    --   105.3157                 6.3684               127.4383
 Raman Activ --     1.2847                 0.0511                 1.1478

                     4                      5                      6
                     A                      A                      A
 Frequencies --  -182.0109               -88.2757               -59.5317
 Red. masses --     1.9741                 6.2205                 6.5644
 Frc consts  --     0.0385                 0.0286                 0.0137
 IR Inten    --     3.5042                 0.2041                 0.0983
 Raman Activ --     0.1970                 0.0479                 0.0177

                     7                      8                      9
                     A                      A                      A
 Frequencies --   -49.1679               -10.0740                31.5621
 Red. masses --     5.5821                 6.9090                 5.9689
 Frc consts  --     0.0080                 0.0004                 0.0035
 IR Inten    --     0.3127                 0.0184                 0.2623
 Raman Activ --     0.0426                 0.0371                 0.0365

                    10                     11                     12
                     A                      A                      A
 Frequencies --    53.7558                67.0986               118.7343
 Red. masses --     6.8395                 6.6440                 5.6736
 Frc consts  --     0.0116                 0.0176                 0.0471
 IR Inten    --     0.7349                 1.8939                 2.7217
 Raman Activ --     0.0568                 0.1100                 0.4957

                    13                     14                     15
                     A                      A                      A
 Frequencies --   133.9857               152.0100               173.7483
 Red. masses --     6.7277                 5.3545                 6.0621
 Frc consts  --     0.0712                 0.0729                 0.1078
 IR Inten    --     0.3073                 2.6478                 2.4641
 Raman Activ --     0.2691                 0.2529                 0.6084

                    16                     17                     18
                     A                      A                      A
 Frequencies --   188.1468               204.2609               259.4075
 Red. masses --     6.0007                 6.5800                 5.6279
 Frc consts  --     0.1252                 0.1618                 0.2231
 IR Inten    --     3.8130                 0.7740                 7.3202
 Raman Activ --     0.6421                 1.9630                 1.0244

                    19                     20                     21
                     A                      A                      A
 Frequencies --   272.4411               280.9715               288.8058
 Red. masses --     4.3403                 5.9584                 6.2059
 Frc consts  --     0.1898                 0.2771                 0.3050
 IR Inten    --     3.4888                 0.0075                 4.9101
 Raman Activ --     0.2493                 0.0970                 0.6134

                    22                     23                     24
                     A                      A                      A
 Frequencies --   313.6997               328.9556               334.4722
 Red. masses --     4.6178                 5.4562                 6.3829
 Frc consts  --     0.2677                 0.3479                 0.4207
 IR Inten    --     3.3790                 1.9521                 2.1510
 Raman Activ --     0.7467                 0.3772                 3.3005

                    25                     26                     27
                     A                      A                      A
 Frequencies --   348.8878               363.1116               384.1570
 Red. masses --     5.5108                 5.3224                 4.5918
 Frc consts  --     0.3952                 0.4135                 0.3993
 IR Inten    --     3.8882                 9.1787                 5.5488
 Raman Activ --     4.7712                 0.9472                 0.4365

                    28                     29                     30
                     A                      A                      A
 Frequencies --   418.3650               424.4240               438.0635
 Red. masses --     5.0233                 4.6564                 6.3254
 Frc consts  --     0.5180                 0.4942                 0.7152
 IR Inten    --     2.5905                 6.4792                 5.5823
 Raman Activ --     4.0876                 5.8676                 1.0705

                    31                     32                     33
                     A                      A                      A
 Frequencies --   458.3556               490.3288               494.6258
 Red. masses --     4.0080                 3.6411                 4.0613
 Frc consts  --     0.4961                 0.5158                 0.5854
 IR Inten    --    11.0388                15.8357                 6.7543
 Raman Activ --     3.0888                 0.7025                 0.5237

                    34                     35                     36
                     A                      A                      A
 Frequencies --   546.8507               561.3757               574.9246
 Red. masses --     3.7122                 3.5965                 4.7971
 Frc consts  --     0.6541                 0.6678                 0.9342
 IR Inten    --    36.3012                26.3609                12.5155
 Raman Activ --     5.1565                 1.1130                 0.7772

                    37                     38                     39
                     A                      A                      A
 Frequencies --   591.6685               610.9277               621.0515
 Red. masses --     3.0968                 2.8616                 2.0851
 Frc consts  --     0.6387                 0.6293                 0.4738
 IR Inten    --    34.1405                21.8021                 1.7116
 Raman Activ --     0.8522                 0.8313                 1.3967

                    40                     41                     42
                     A                      A                      A
 Frequencies --   634.3748               642.3266               673.1399
 Red. masses --     1.6740                 2.3234                 1.1362
 Frc consts  --     0.3969                 0.5648                 0.3033
 IR Inten    --    74.5952                53.2559                82.3344
 Raman Activ --     0.4214                 1.4800                 1.6201

                    43                     44                     45
                     A                      A                      A
 Frequencies --   694.1982               699.5855               745.5683
 Red. masses --     2.5563                 1.3016                 1.1319
 Frc consts  --     0.7258                 0.3753                 0.3707
 IR Inten    --    49.2205                82.4716               136.4331
 Raman Activ --     0.6438                 1.7233                 1.3887

                    46                     47                     48
                     A                      A                      A
 Frequencies --   760.4685               774.0277               839.1995
 Red. masses --     1.0915                 1.0863                 2.4371
 Frc consts  --     0.3719                 0.3835                 1.0113
 IR Inten    --   125.4203               104.5060                 7.7362
 Raman Activ --     1.9842                 2.8418                 2.8186

                    49                     50                     51
                     A                      A                      A
 Frequencies --   863.3823               939.8842               954.7473
 Red. masses --     2.5998                 5.6779                 5.9572
 Frc consts  --     1.1418                 2.9552                 3.1994
 IR Inten    --     2.0384               180.7529               155.6232
 Raman Activ --     6.7929                 3.3026                 1.3689

                    52                     53                     54
                     A                      A                      A
 Frequencies --   986.6574               990.5962              1000.2377
 Red. masses --     6.2043                 3.0449                 3.4557
 Frc consts  --     3.5586                 1.7604                 2.0370
 IR Inten    --    58.2171                 2.3287                53.9625
 Raman Activ --     2.8604                 2.9077                 1.7761

                    55                     56                     57
                     A                      A                      A
 Frequencies --  1002.4313              1021.6981              1034.2876
 Red. masses --     4.4444                 4.7794                 3.3966
 Frc consts  --     2.6313                 2.9395                 2.1408
 IR Inten    --   170.8273               299.4102               209.2044
 Raman Activ --     5.2886                 0.4649                 2.3999

                    58                     59                     60
                     A                      A                      A
 Frequencies --  1050.9393              1052.7206              1059.2434
 Red. masses --     2.4141                 2.6693                 3.1253
 Frc consts  --     1.5709                 1.7429                 2.0660
 IR Inten    --   106.7833                31.3846               142.2253
 Raman Activ --     2.1252                 4.4536                12.9252

                    61                     62                     63
                     A                      A                      A
 Frequencies --  1070.4197              1075.8728              1077.6855
 Red. masses --     3.3609                 4.1349                 4.1809
 Frc consts  --     2.2689                 2.8199                 2.8609
 IR Inten    --    13.0600                44.9893                77.2213
 Raman Activ --     1.9097                28.5694                 6.1011

                    64                     65                     66
                     A                      A                      A
 Frequencies --  1088.0301              1098.1564              1108.3312
 Red. masses --     2.8355                 2.6045                 2.9444
 Frc consts  --     1.9777                 1.8506                 2.1310
 IR Inten    --    57.9946                 2.1773                54.5140
 Raman Activ --     2.8306                 4.9024                 5.7423

                    67                     68                     69
                     A                      A                      A
 Frequencies --  1112.3510              1115.7100              1128.1221
 Red. masses --     3.5357                 2.4397                 1.9204
 Frc consts  --     2.5776                 1.7893                 1.4399
 IR Inten    --    69.2038                36.0068                20.3570
 Raman Activ --     3.2134                 9.3250                 2.8981

                    70                     71                     72
                     A                      A                      A
 Frequencies --  1136.2517              1143.2180              1153.2356
 Red. masses --     1.4745                 2.4732                 3.2250
 Frc consts  --     1.1216                 1.9044                 2.5271
 IR Inten    --    16.4461                11.1905                31.0022
 Raman Activ --     2.0061                 3.4416                 0.2705

                    73                     74                     75
                     A                      A                      A
 Frequencies --  1168.6558              1180.8905              1183.5564
 Red. masses --     1.7219                 1.5675                 2.3870
 Frc consts  --     1.3856                 1.2878                 1.9701
 IR Inten    --    12.9772                22.6302                 5.5207
 Raman Activ --     1.7429                 2.4143                 2.0055

                    76                     77                     78
                     A                      A                      A
 Frequencies --  1189.7765              1202.2833              1206.9194
 Red. masses --     2.4084                 1.4501                 1.4815
 Frc consts  --     2.0087                 1.2350                 1.2715
 IR Inten    --    43.0743                 3.8271                15.3975
 Raman Activ --     1.2092                 1.4576                 2.2919

                    79                     80                     81
                     A                      A                      A
 Frequencies --  1208.2583              1226.7514              1236.7567
 Red. masses --     1.3296                 1.2298                 1.3990
 Frc consts  --     1.1437                 1.0905                 1.2608
 IR Inten    --    26.3250                17.8809                13.3072
 Raman Activ --     3.8420                 1.9271                 1.7055

                    82                     83                     84
                     A                      A                      A
 Frequencies --  1252.2716              1255.5634              1268.9459
 Red. masses --     1.2004                 1.1949                 1.4141
 Frc consts  --     1.1091                 1.1099                 1.3416
 IR Inten    --     3.7825                13.1299                40.6213
 Raman Activ --     4.6550                 5.2885                 1.7032

                    85                     86                     87
                     A                      A                      A
 Frequencies --  1274.1447              1275.3630              1295.2919
 Red. masses --     1.3011                 1.4941                 1.2473
 Frc consts  --     1.2445                 1.4318                 1.2330
 IR Inten    --     7.7060                28.3252                29.7227
 Raman Activ --     3.8464                 2.5560                 6.0387

                    88                     89                     90
                     A                      A                      A
 Frequencies --  1303.4407              1308.2064              1318.8867
 Red. masses --     1.3041                 1.2875                 1.3753
 Frc consts  --     1.3054                 1.2983                 1.4095
 IR Inten    --    37.3515                 4.5134                17.9608
 Raman Activ --     0.7472                 4.6708                 4.1570

                    91                     92                     93
                     A                      A                      A
 Frequencies --  1326.8079              1339.3749              1344.7904
 Red. masses --     1.4751                 1.4270                 1.3171
 Frc consts  --     1.5300                 1.5083                 1.4034
 IR Inten    --    35.7588                29.8564                37.0657
 Raman Activ --     0.6027                 2.1666                10.3756

                    94                     95                     96
                     A                      A                      A
 Frequencies --  1359.8036              1365.8497              1375.1634
 Red. masses --     1.4393                 1.3657                 1.3345
 Frc consts  --     1.5680                 1.5011                 1.4869
 IR Inten    --     5.1386                35.2847                21.8900
 Raman Activ --     6.5130                 3.1275                 6.2028

                    97                     98                     99
                     A                      A                      A
 Frequencies --  1378.0588              1397.0228              1399.3449
 Red. masses --     1.3766                 1.3982                 1.4136
 Frc consts  --     1.5403                 1.6078                 1.6310
 IR Inten    --     8.7249                12.6373                10.7948
 Raman Activ --     3.1124                 5.2695                10.1984

                   100                    101                    102
                     A                      A                      A
 Frequencies --  1410.0312              1427.0721              1437.5583
 Red. masses --     1.2009                 1.4797                 1.4111
 Frc consts  --     1.4067                 1.7755                 1.7181
 IR Inten    --    13.7266                12.5995                36.5173
 Raman Activ --     3.2350                 4.8631                 3.1419

                   103                    104                    105
                     A                      A                      A
 Frequencies --  1453.5159              1456.3315              1467.7124
 Red. masses --     1.3011                 1.4086                 1.0912
 Frc consts  --     1.6195                 1.7602                 1.3850
 IR Inten    --    18.8616                15.9533                 2.5087
 Raman Activ --     0.6966                 1.9328                 5.7878

                   106                    107                    108
                     A                      A                      A
 Frequencies --  1467.9127              1509.1453              3264.7767
 Red. masses --     1.1042                 1.3515                 1.0798
 Frc consts  --     1.4018                 1.8135                 6.7810
 IR Inten    --     6.8076                70.6050                 9.5712
 Raman Activ --     5.8143                 2.1398                72.4300

                   109                    110                    111
                     A                      A                      A
 Frequencies --  3272.8381              3273.2298              3280.6998
 Red. masses --     1.0573                 1.0584                 1.0826
 Frc consts  --     6.6729                 6.6809                 6.8650
 IR Inten    --    37.1277                34.2654                 7.5060
 Raman Activ --    78.3923                35.0679                61.6245

                   112                    113                    114
                     A                      A                      A
 Frequencies --  3293.5043              3302.3195              3305.6569
 Red. masses --     1.0861                 1.0861                 1.0857
 Frc consts  --     6.9415                 6.9787                 6.9897
 IR Inten    --    13.4214                37.4628                 5.9268
 Raman Activ --     4.3606               130.1407                22.3023

                   115                    116                    117
                     A                      A                      A
 Frequencies --  3309.9628              3311.7297              3316.0866
 Red. masses --     1.0872                 1.0860                 1.0877
 Frc consts  --     7.0181                 7.0174                 7.0471
 IR Inten    --     0.8297                 8.8994                 0.1047
 Raman Activ --   177.0614                 9.9409                10.1046

                   118                    119                    120
                     A                      A                      A
 Frequencies --  3323.9870              3325.7646              3330.6490
 Red. masses --     1.0873                 1.0909                 1.1003
 Frc consts  --     7.0779                 7.1092                 7.1912
 IR Inten    --    31.6569                30.5897                60.7495
 Raman Activ --    24.7567                33.8719                10.5296

                   121                    122                    123
                     A                      A                      A
 Frequencies --  3344.4484              3368.7699              3382.6679
 Red. masses --     1.1095                 1.0672                 1.0644
 Frc consts  --     7.3117                 7.1360                 7.1760
 IR Inten    --    27.2343               349.7558                33.0749
 Raman Activ --    38.2450               197.3976                40.2085

                   124                    125                    126
                     A                      A                      A
 Frequencies --  3385.0181              3388.0938              3388.8488
 Red. masses --     1.0695                 1.0675                 1.0683
 Frc consts  --     7.2199                 7.2196                 7.2283
 IR Inten    --    31.6494                 4.9181                84.3446
 Raman Activ --   153.2978                92.3658               209.4976

                   127                    128                    129
                     A                      A                      A
 Frequencies --  3391.2537              3914.1525              3919.2811
 Red. masses --     1.0657                 1.0678                 1.0675
 Frc consts  --     7.2213                 9.6383                 9.6615
 IR Inten    --    29.5090                58.5208                69.2483
 Raman Activ --   151.7920               103.7805               124.7099

 - Thermochemistry -
 -------------------
 Temperature   298.150 Kelvin.  Pressure   1.00000 Atm.
 Atom     1 has atomic number  8 and mass  15.99491

 Molecular mass:   342.11621 amu.
 Principal axes and moments of inertia in atomic units:
                           1         2         3
     Eigenvalues --  4636.05261********************
           X            0.99998   0.00657  -0.00077
           Y           -0.00657   0.99997   0.00276
           Z            0.00079  -0.00276   1.00000
 This molecule is an asymmetric top.
 Rotational symmetry number  1.
 Warning -- assumption of classical behavior for rotation
           may cause significant error
 Rotational temperatures (Kelvin)      0.01868     0.00725     0.00539
 Rotational constants (GHZ):           0.38928     0.15106     0.11224
    8 imaginary frequencies ignored.
 Zero-point vibrational energy     974486.8 (Joules/Mol)
                                  232.90793 (Kcal/Mol)
 Warning -- explicit consideration of  30 degrees of freedom as
           vibrations may cause significant error
 Vibrational temperatures:     45.41    77.34    96.54   170.83   192.78
          (Kelvin)            218.71   249.98   270.70   293.89   373.23
                              391.98   404.25   415.53   451.34   473.29
                              481.23   501.97   522.44   552.72   601.93
                              610.65   630.27   659.47   705.47   711.66
                              786.80   807.69   827.19   851.28   878.99
                              893.55   912.72   924.16   968.50   998.80
                             1006.55  1072.71  1094.14  1113.65  1207.42
                             1242.21  1352.28  1373.67  1419.58  1425.25
                             1439.12  1442.27  1469.99  1488.11  1512.07
                             1514.63  1524.01  1540.09  1547.94  1550.55
                             1565.43  1580.00  1594.64  1600.42  1605.26
                             1623.11  1634.81  1644.83  1659.25  1681.43
                             1699.04  1702.87  1711.82  1729.82  1736.49
                             1738.41  1765.02  1779.41  1801.74  1806.47
                             1825.73  1833.21  1834.96  1863.63  1875.36
                             1882.21  1897.58  1908.98  1927.06  1934.85
                             1956.45  1965.15  1978.55  1982.72  2010.00
                             2013.34  2028.72  2053.24  2068.32  2091.28
                             2095.33  2111.71  2112.00  2171.32  4697.28
                             4708.88  4709.44  4720.19  4738.61  4751.30
                             4756.10  4762.29  4764.83  4771.10  4782.47
                             4785.03  4792.06  4811.91  4846.90  4866.90
                             4870.28  4874.71  4875.79  4879.25  5631.59
                             5638.96

 Zero-point correction=                           0.371162 (Hartree/Particle)
 Thermal correction to Energy=                    0.388943
 Thermal correction to Enthalpy=                  0.389887
 Thermal correction to Gibbs Free Energy=         0.325723
 Sum of electronic and zero-point Energies=          -1297.547078
 Sum of electronic and thermal Energies=             -1297.529298
 Sum of electronic and thermal Enthalpies=           -1297.528353
 Sum of electronic and thermal Free Energies=        -1297.592518

                     E (Thermal)             CV                S
                      KCal/Mol        Cal/Mol-Kelvin    Cal/Mol-Kelvin
 Total                  244.065             74.225            135.045
 Electronic               0.000              0.000              0.000
 Translational            0.889              2.981             43.384
 Rotational               0.889              2.981             35.142
 Vibrational            242.288             68.264             56.519
 Vibration     1          0.594              1.983              5.729
 Vibration     2          0.596              1.976              4.674
 Vibration     3          0.598              1.970              4.237
 Vibration     4          0.609              1.934              3.121
 Vibration     5          0.613              1.919              2.888
 Vibration     6          0.619              1.900              2.647
 Vibration     7          0.627              1.875              2.395
 Vibration     8          0.633              1.856              2.246
 Vibration     9          0.640              1.834              2.094
 Vibration    10          0.668              1.747              1.666
 Vibration    11          0.675              1.724              1.581
 Vibration    12          0.681              1.709              1.528
 Vibration    13          0.685              1.695              1.481
 Vibration    14          0.702              1.648              1.343
 Vibration    15          0.712              1.618              1.265
 Vibration    16          0.716              1.607              1.238
 Vibration    17          0.726              1.578              1.171
 Vibration    18          0.737              1.548              1.109
 Vibration    19          0.753              1.504              1.023
 Vibration    20          0.781              1.430              0.898
 Vibration    21          0.786              1.417              0.877
 Vibration    22          0.798              1.387              0.833
 Vibration    23          0.816              1.342              0.771
 Vibration    24          0.846              1.271              0.683
 Vibration    25          0.850              1.262              0.672
 Vibration    26          0.902              1.147              0.551
 Vibration    27          0.917              1.115              0.521
 Vibration    28          0.931              1.085              0.495
 Vibration    29          0.949              1.050              0.464
 Vibration    30          0.970              1.009              0.431

 Normal termination of Gaussian 09 at Tue Mar  1 16:49:09 2016.
