 Gaussian 09, Revision B.01,
 Gaussian 09:  EM64L-G09RevB.01 12-Aug-2010

 -------------------------------------------------
 # freq=raman b3lyp/6-31+g(2d,p) geom=connectivity
 -------------------------------------------------

 -----------------
 450 5408/5408.com
 -----------------
 Symbolic Z-matrix:
 Charge =  0 Multiplicity = 1

                         Standard orientation:
 ---------------------------------------------------------------------
 Center     Atomic      Atomic             Coordinates (Angstroms)
 Number     Number       Type             X           Y           Z
 ---------------------------------------------------------------------
      1          8           0        5.008399   -0.172521   -0.748430
      2          6           0        3.879252    0.041682    0.111590
      3          6           0        3.237248    1.276217   -0.499166
      4          8           0        3.967060    2.260148    0.248803
      5          1           0        4.889646    2.364441   -0.121401
      6          6           0        1.885122    1.608703    0.109520
      7          8           0        1.299000    2.764911   -0.503885
      8          1           0        2.003752    3.466397   -0.395417
      9          6           0        3.453722   -2.211036    0.575177
     10          8           0        2.877392   -3.514243    0.408358
     11          1           0        3.523139   -4.276766    0.383505
     12          6           0        2.834484   -1.029795   -0.154338
     13          8           0        1.608317   -0.786290    0.550111
     14          6           0        1.029226    0.366420   -0.078404
     15          8           0       -0.221422    0.562030    0.597484
     16          6           0       -1.364023    0.188976   -0.187470
     17          6           0       -1.750641   -1.236378    0.169882
     18          8           0       -0.975999   -2.074797   -0.699114
     19          1           0       -0.064804   -2.124424   -0.288887
     20          6           0       -3.098474   -1.619528   -0.419492
     21          8           0       -3.341918   -2.918516    0.140675
     22          1           0       -2.729790   -3.502997   -0.391805
     23          6           0       -2.203534    2.619851   -0.085169
     24          8           0       -3.126895    3.500978    0.568930
     25          1           0       -3.241917    3.364803    1.553212
     26          6           0       -2.472206    1.152609    0.206524
     27          8           0       -3.772547    0.677665   -0.171065
     28          6           0       -4.127098   -0.669251    0.172391
     29          8           0       -5.421675   -0.718489   -0.444239
     30          1           0       -6.057803   -0.260662    0.110139
     31          1           0       -4.200496   -0.787293    1.233324
     32          1           0       -3.098030   -1.621944   -1.489489
     33          1           0       -1.642971   -1.479880    1.206228
     34          1           0       -1.146538    0.270941   -1.231923
     35          1           0       -2.483299    1.105893    1.275446
     36          1           0       -1.212209    2.858727    0.239044
     37          1           0       -2.267681    2.777533   -1.141541
     38          1           0        5.785932    0.239077   -0.364204
     39          1           0        3.437276   -1.985463    1.621000
     40          1           0        4.477992   -2.273026    0.271978
     41          1           0        2.689058   -1.221913   -1.196855
     42          1           0        4.132973    0.157165    1.144639
     43          1           0        3.316484    1.377959   -1.561367
     44          1           0        2.008568    1.793346    1.156213
     45          1           0        0.864534    0.180255   -1.119134
 ---------------------------------------------------------------------

 SCF Done:  E(RB3LYP) =  -1297.95210000     A.U. after   13 cycles

 The electronic state is 1-A.
 Alpha  occ. eigenvalues --  -19.19258 -19.19185 -19.18150 -19.17375 -19.16951
 Alpha  occ. eigenvalues --  -19.15981 -19.15557 -19.14581 -19.14535 -19.14428
 Alpha  occ. eigenvalues --  -19.14008 -10.30322 -10.28276 -10.26773 -10.26202
 Alpha  occ. eigenvalues --  -10.25878 -10.25399 -10.24184 -10.24058 -10.23525
 Alpha  occ. eigenvalues --  -10.23405 -10.23167 -10.22168  -1.10270  -1.08091
 Alpha  occ. eigenvalues --   -1.06577  -1.05703  -1.04508  -1.03649  -1.03046
 Alpha  occ. eigenvalues --   -1.02119  -1.00622  -1.00372  -0.98975  -0.82535
 Alpha  occ. eigenvalues --   -0.81206  -0.78011  -0.77088  -0.71281  -0.69310
 Alpha  occ. eigenvalues --   -0.67300  -0.64711  -0.63214  -0.62954  -0.61874
 Alpha  occ. eigenvalues --   -0.59778  -0.57185  -0.56856  -0.54751  -0.54058
 Alpha  occ. eigenvalues --   -0.53664  -0.53247  -0.52702  -0.51428  -0.50450
 Alpha  occ. eigenvalues --   -0.50227  -0.48934  -0.47739  -0.47329  -0.46834
 Alpha  occ. eigenvalues --   -0.45596  -0.44997  -0.44315  -0.43341  -0.43099
 Alpha  occ. eigenvalues --   -0.42712  -0.42121  -0.41063  -0.40134  -0.39660
 Alpha  occ. eigenvalues --   -0.39243  -0.37922  -0.37350  -0.36856  -0.36306
 Alpha  occ. eigenvalues --   -0.35638  -0.34733  -0.33975  -0.33567  -0.33299
 Alpha  occ. eigenvalues --   -0.31776  -0.31229  -0.31182  -0.30211  -0.29577
 Alpha  occ. eigenvalues --   -0.29234  -0.28808  -0.27632  -0.27193  -0.25794
 Alpha  occ. eigenvalues --   -0.25505
 Alpha virt. eigenvalues --   -0.04057  -0.01466  -0.00727  -0.00183   0.00540
 Alpha virt. eigenvalues --    0.01549   0.01555   0.02138   0.02597   0.03365
 Alpha virt. eigenvalues --    0.03789   0.04199   0.04957   0.05089   0.05557

 Mulliken atomic charges:
              1
     1  O   -0.542069
     2  C   -0.117062
     3  C    0.280863
     4  O   -0.601437
     5  H    0.321875
     6  C   -0.258227
     7  O   -0.544182
     8  H    0.355551
     9  C   -0.410834
    10  O   -0.566639
    11  H    0.337177
    12  C    0.504366
    13  O   -0.309223
    14  C    0.151993
    15  O   -0.217427
    16  C    0.460217
    17  C    0.131298
    18  O   -0.586304
    19  H    0.363007
    20  C   -0.054905
    21  O   -0.511255
    22  H    0.345094
    23  C   -0.215505
    24  O   -0.484302
    25  H    0.316547
    26  C   -0.187354
    27  O   -0.279416
    28  C    0.211183
    29  O   -0.498728
    30  H    0.322858
    31  H    0.125117
    32  H    0.146053
    33  H    0.151859
    34  H    0.110521
    35  H    0.080982
    36  H    0.180399
    37  H    0.147837
    38  H    0.329370
    39  H    0.148244
    40  H    0.151962
    41  H    0.134656
    42  H    0.153758
    43  H    0.150829
    44  H    0.145087
    45  H    0.126165
 Sum of Mulliken atomic charges =   0.00000

 Dipole moment (field-independent basis, Debye):
    X=              9.5531    Y=              0.4362    Z=              1.4525  Tot=              9.6727
 Quadrupole moment (field-independent basis, Debye-Ang):
   XX=           -118.9167   YY=           -146.3724   ZZ=           -134.9812
   XY=              0.6427   XZ=             -9.0036   YZ=              1.9177

  Exact polarizability: 223.647   0.356 199.509  -2.281   0.328 145.558
 Approx polarizability: 267.293  -0.488 257.222  -2.582   2.018 244.765

 ******    8 imaginary frequencies (negative Signs) ******

                     1                      2                      3
                     A                      A                      A
 Frequencies --  -271.3080              -252.6012              -217.2710
 Red. masses --     1.0768                 1.1771                 1.8042
 Frc consts  --     0.0467                 0.0443                 0.0502
 IR Inten    --   110.4825               126.2076                 7.6288
 Raman Activ --     1.7434                 0.8990                 0.0833

                     4                      5                      6
                     A                      A                      A
 Frequencies --  -149.2202              -105.3262               -57.9449
 Red. masses --     1.8901                 5.7100                 5.9336
 Frc consts  --     0.0248                 0.0373                 0.0117
 IR Inten    --     6.4551                 0.2969                 0.1696
 Raman Activ --     0.1986                 0.0413                 0.0777

                     7                      8                      9
                     A                      A                      A
 Frequencies --   -51.8536               -40.0895                22.3493
 Red. masses --     6.5561                 6.8935                 6.0794
 Frc consts  --     0.0104                 0.0065                 0.0018
 IR Inten    --     0.4600                 0.7498                 0.3128
 Raman Activ --     0.0210                 0.0980                 0.1090

                    10                     11                     12
                     A                      A                      A
 Frequencies --    55.1209                99.0583               103.8461
 Red. masses --     6.3787                 5.8130                 6.7545
 Frc consts  --     0.0114                 0.0336                 0.0429
 IR Inten    --     0.9613                 0.9200                 1.3572
 Raman Activ --     0.1173                 0.1212                 0.1613

                    13                     14                     15
                     A                      A                      A
 Frequencies --   115.8223               139.2880               178.3967
 Red. masses --     5.9213                 6.7180                 6.3887
 Frc consts  --     0.0468                 0.0768                 0.1198
 IR Inten    --     0.9051                 2.7145                 2.3168
 Raman Activ --     0.4775                 0.2456                 0.8640

                    16                     17                     18
                     A                      A                      A
 Frequencies --   191.2769               205.9514               272.0734
 Red. masses --     5.0737                 6.2051                 4.6704
 Frc consts  --     0.1094                 0.1551                 0.2037
 IR Inten    --     1.3918                 3.0801                 8.9644
 Raman Activ --     0.0879                 1.7152                 0.8733

                    19                     20                     21
                     A                      A                      A
 Frequencies --   278.8278               281.6572               298.0138
 Red. masses --     5.9887                 5.3563                 6.0590
 Frc consts  --     0.2743                 0.2504                 0.3170
 IR Inten    --     3.6986                 0.9967                 7.4385
 Raman Activ --     0.1551                 0.5588                 0.4270

                    22                     23                     24
                     A                      A                      A
 Frequencies --   319.0781               330.0804               332.5394
 Red. masses --     4.8960                 5.4388                 7.0339
 Frc consts  --     0.2937                 0.3491                 0.4583
 IR Inten    --     2.2914                 3.8004                 0.5105
 Raman Activ --     0.1055                 0.6830                 4.6303

                    25                     26                     27
                     A                      A                      A
 Frequencies --   351.7418               369.9400               379.9270
 Red. masses --     5.7209                 6.0173                 4.4170
 Frc consts  --     0.4170                 0.4852                 0.3756
 IR Inten    --     9.6857                 1.5638                 1.4574
 Raman Activ --     3.7430                 0.3011                 1.1570

                    28                     29                     30
                     A                      A                      A
 Frequencies --   432.1923               443.0222               456.1000
 Red. masses --     4.0472                 5.8907                 4.7327
 Frc consts  --     0.4454                 0.6812                 0.5801
 IR Inten    --    24.3180                 1.2218                 0.1827
 Raman Activ --     6.6340                 3.9369                 0.1520

                    31                     32                     33
                     A                      A                      A
 Frequencies --   465.1779               492.3222               513.0000
 Red. masses --     5.3651                 4.5000                 3.9536
 Frc consts  --     0.6840                 0.6426                 0.6130
 IR Inten    --     6.8549                12.6487                 2.9631
 Raman Activ --     0.6680                 0.5758                 0.6684

                    34                     35                     36
                     A                      A                      A
 Frequencies --   552.2437               561.5738               577.5640
 Red. masses --     3.9207                 4.0485                 5.1847
 Frc consts  --     0.7045                 0.7522                 1.0190
 IR Inten    --    14.0924                16.1595                 2.3134
 Raman Activ --     0.6371                 2.1027                 5.4314

                    37                     38                     39
                     A                      A                      A
 Frequencies --   613.8435               620.5817               624.0648
 Red. masses --     1.7626                 2.7517                 2.5590
 Frc consts  --     0.3913                 0.6244                 0.5872
 IR Inten    --    46.6711                22.4572                35.6857
 Raman Activ --     0.7497                 0.3032                 0.2438

                    40                     41                     42
                     A                      A                      A
 Frequencies --   641.0179               647.5024               675.2243
 Red. masses --     1.2156                 1.7777                 2.6241
 Frc consts  --     0.2943                 0.4391                 0.7049
 IR Inten    --   117.6936                24.1487                29.4707
 Raman Activ --     0.6433                 0.9933                 0.5731

                    43                     44                     45
                     A                      A                      A
 Frequencies --   691.0546               739.4689               760.3044
 Red. masses --     3.4064                 1.1368                 1.1037
 Frc consts  --     0.9584                 0.3663                 0.3759
 IR Inten    --     9.2602               140.7806                93.4908
 Raman Activ --     0.4861                 1.2549                 1.3500

                    46                     47                     48
                     A                      A                      A
 Frequencies --   776.0894               829.2509               840.3885
 Red. masses --     1.0962                 2.6111                 1.1853
 Frc consts  --     0.3890                 1.0579                 0.4932
 IR Inten    --    98.0338                 5.5013                89.4230
 Raman Activ --     2.0314                 4.0993                 1.6051

                    49                     50                     51
                     A                      A                      A
 Frequencies --   857.5579               947.8966               966.9576
 Red. masses --     2.2293                 6.6025                 5.0400
 Frc consts  --     0.9659                 3.4953                 2.7765
 IR Inten    --     9.4200               309.1780                24.7211
 Raman Activ --     3.2005                 6.2189                 2.8382

                    52                     53                     54
                     A                      A                      A
 Frequencies --   980.7787               986.5164               999.6547
 Red. masses --     6.0241                 5.2231                 6.2107
 Frc consts  --     3.4142                 2.9949                 3.6567
 IR Inten    --    57.0538               187.2641               329.1965
 Raman Activ --     0.8322                 1.1672                 2.3782

                    55                     56                     57
                     A                      A                      A
 Frequencies --  1012.0991              1016.9226              1024.3568
 Red. masses --     4.3174                 4.1433                 3.3271
 Frc consts  --     2.6057                 2.5245                 2.0569
 IR Inten    --     8.5779                48.4376                92.1710
 Raman Activ --     3.9461                 3.3930                17.5204

                    58                     59                     60
                     A                      A                      A
 Frequencies --  1027.0824              1032.4996              1041.1808
 Red. masses --     3.0458                 3.7828                 3.2991
 Frc consts  --     1.8931                 2.3760                 2.1072
 IR Inten    --   152.1743               259.9436                37.8077
 Raman Activ --     3.1117                13.7372                 2.4468

                    61                     62                     63
                     A                      A                      A
 Frequencies --  1046.6154              1055.8800              1062.3278
 Red. masses --     3.4585                 2.8529                 3.0854
 Frc consts  --     2.2321                 1.8740                 2.0516
 IR Inten    --    71.1960                 8.0173                17.6280
 Raman Activ --     1.7703                 7.1118                 1.3349

                    64                     65                     66
                     A                      A                      A
 Frequencies --  1074.5607              1078.6486              1082.1819
 Red. masses --     2.3473                 2.7309                 2.1507
 Frc consts  --     1.5969                 1.8720                 1.4840
 IR Inten    --    32.0845                16.1899                38.1520
 Raman Activ --     3.3059                 2.5573                 7.9416

                    67                     68                     69
                     A                      A                      A
 Frequencies --  1086.9838              1097.9233              1108.4671
 Red. masses --     2.5091                 2.9603                 3.1703
 Frc consts  --     1.7467                 2.1025                 2.2951
 IR Inten    --     9.9727                20.2494                 5.1754
 Raman Activ --     3.0927                 2.6803                 7.6433

                    70                     71                     72
                     A                      A                      A
 Frequencies --  1112.4207              1125.6102              1140.2814
 Red. masses --     2.4026                 1.9838                 2.2867
 Frc consts  --     1.7517                 1.4809                 1.7518
 IR Inten    --     6.7903                25.9228                60.6849
 Raman Activ --    13.9350                 1.8583                 2.9194

                    73                     74                     75
                     A                      A                      A
 Frequencies --  1150.8261              1156.1161              1162.6143
 Red. masses --     1.4953                 2.0056                 1.4105
 Frc consts  --     1.1668                 1.5795                 1.1233
 IR Inten    --    10.3729                15.6145                11.2550
 Raman Activ --     2.4683                 1.8542                 2.6609

                    76                     77                     78
                     A                      A                      A
 Frequencies --  1167.3629              1184.3107              1196.1540
 Red. masses --     1.4811                 1.8281                 1.4046
 Frc consts  --     1.1892                 1.5107                 1.1841
 IR Inten    --    14.2253                 1.4842                21.5937
 Raman Activ --     3.0239                 4.1863                 0.9242

                    79                     80                     81
                     A                      A                      A
 Frequencies --  1202.4917              1215.5091              1242.2346
 Red. masses --     1.2194                 1.2503                 1.3042
 Frc consts  --     1.0388                 1.0883                 1.1857
 IR Inten    --    13.4401                 3.7635                44.4052
 Raman Activ --     0.8854                 2.7173                 2.3772

                    82                     83                     84
                     A                      A                      A
 Frequencies --  1245.1871              1252.5881              1263.6659
 Red. masses --     1.3663                 1.3117                 1.3820
 Frc consts  --     1.2482                 1.2125                 1.3002
 IR Inten    --     1.0114                 8.7582                16.8964
 Raman Activ --     3.9156                 2.4146                 3.7281

                    85                     86                     87
                     A                      A                      A
 Frequencies --  1273.7188              1278.6357              1294.1197
 Red. masses --     1.3232                 1.2895                 1.2264
 Frc consts  --     1.2648                 1.2422                 1.2101
 IR Inten    --    13.6997                28.6026                11.9497
 Raman Activ --     3.7321                 1.2482                 4.3928

                    88                     89                     90
                     A                      A                      A
 Frequencies --  1300.0995              1307.0594              1318.8400
 Red. masses --     1.5768                 1.9027                 1.2572
 Frc consts  --     1.5703                 1.9152                 1.2884
 IR Inten    --    17.4862                 1.3140                25.0971
 Raman Activ --     3.8501                 7.9994                 8.1332

                    91                     92                     93
                     A                      A                      A
 Frequencies --  1323.4230              1325.4671              1339.2302
 Red. masses --     1.2784                 1.4904                 1.2216
 Frc consts  --     1.3192                 1.5428                 1.2908
 IR Inten    --    12.8988                41.4322                32.3103
 Raman Activ --     2.1993                 1.1680                 3.0039

                    94                     95                     96
                     A                      A                      A
 Frequencies --  1345.1870              1347.4409              1372.5165
 Red. masses --     1.2035                 1.2122                 1.4394
 Frc consts  --     1.2831                 1.2967                 1.5976
 IR Inten    --     8.7302                31.7298                 1.3105
 Raman Activ --     3.7714                 1.0358                10.5897

                    97                     98                     99
                     A                      A                      A
 Frequencies --  1380.4318              1381.4219              1389.6295
 Red. masses --     1.6061                 1.4365                 1.2378
 Frc consts  --     1.8032                 1.6151                 1.4083
 IR Inten    --     4.0804                28.5008                80.4304
 Raman Activ --     6.3112                 1.3369                 2.5446

                   100                    101                    102
                     A                      A                      A
 Frequencies --  1391.2530              1414.9038              1428.6523
 Red. masses --     1.5006                 1.4221                 1.3198
 Frc consts  --     1.7113                 1.6774                 1.5872
 IR Inten    --    12.7665                40.7290                 7.3774
 Raman Activ --     8.6830                 3.4139                 0.4150

                   103                    104                    105
                     A                      A                      A
 Frequencies --  1459.2018              1462.0143              1465.3836
 Red. masses --     1.0883                 1.1435                 1.2364
 Frc consts  --     1.3653                 1.4401                 1.5642
 IR Inten    --     4.9299                13.2742                18.8804
 Raman Activ --     4.9609                 6.4738                 1.9645

                   106                    107                    108
                     A                      A                      A
 Frequencies --  1474.0834              1495.9005              3242.6644
 Red. masses --     1.4768                 1.3933                 1.0803
 Frc consts  --     1.8907                 1.8369                 6.6925
 IR Inten    --    51.1218                61.2447                33.7792
 Raman Activ --     1.6221                 2.0448                87.8636

                   109                    110                    111
                     A                      A                      A
 Frequencies --  3261.9486              3277.1180              3278.5638
 Red. masses --     1.0578                 1.0628                 1.0801
 Frc consts  --     6.6314                 6.7252                 6.8407
 IR Inten    --    29.3901                17.2244                 1.2528
 Raman Activ --    76.4922                98.6465                 7.0902

                   112                    113                    114
                     A                      A                      A
 Frequencies --  3285.9302              3292.3134              3297.4468
 Red. masses --     1.0859                 1.0854                 1.0859
 Frc consts  --     6.9082                 6.9320                 6.9564
 IR Inten    --    28.3514                 8.4129                10.1341
 Raman Activ --    65.7424                73.9235                34.8412

                   115                    116                    117
                     A                      A                      A
 Frequencies --  3298.7913              3309.7498              3309.9092
 Red. masses --     1.0868                 1.0930                 1.0878
 Frc consts  --     6.9682                 7.0546                 7.0216
 IR Inten    --     9.7857                 3.3625                 4.0754
 Raman Activ --    57.5447                52.7998                66.8199

                   118                    119                    120
                     A                      A                      A
 Frequencies --  3316.0465              3318.5723              3321.5146
 Red. masses --     1.0960                 1.0869                 1.0910
 Frc consts  --     7.1009                 7.0523                 7.0920
 IR Inten    --    11.1806                18.3602                37.0090
 Raman Activ --    55.6468                 7.2505                 7.6349

                   121                    122                    123
                     A                      A                      A
 Frequencies --  3337.7204              3344.8370              3359.7902
 Red. masses --     1.1027                 1.0662                 1.0658
 Frc consts  --     7.2376                 7.0279                 7.0881
 IR Inten    --    20.0110               118.7667                 5.4698
 Raman Activ --    64.8147               168.1055               199.8710

                   124                    125                    126
                     A                      A                      A
 Frequencies --  3361.7953              3368.7122              3373.5715
 Red. masses --     1.0730                 1.0650                 1.0696
 Frc consts  --     7.1450                 7.1209                 7.1720
 IR Inten    --    16.9319                51.5948                46.1669
 Raman Activ --    56.9840                87.8145               212.9978

                   127                    128                    129
                     A                      A                      A
 Frequencies --  3376.8721              3884.0791              3888.9756
 Red. masses --     1.0646                 1.0672                 1.0669
 Frc consts  --     7.1525                 9.4854                 9.5070
 IR Inten    --    40.8555                51.7538                59.1685
 Raman Activ --    69.7044               107.9316               127.5956

 - Thermochemistry -
 -------------------
 Temperature   298.150 Kelvin.  Pressure   1.00000 Atm.
 Atom     1 has atomic number  8 and mass  15.99491

 Molecular mass:   342.11621 amu.
 Principal axes and moments of inertia in atomic units:
                           1         2         3
     Eigenvalues --  4619.51401********************
           X            0.99999  -0.00395  -0.00133
           Y            0.00395   0.99999  -0.00036
           Z            0.00133   0.00035   1.00000
 This molecule is an asymmetric top.
 Rotational symmetry number  1.
 Warning -- assumption of classical behavior for rotation
           may cause significant error
 Rotational temperatures (Kelvin)      0.01875     0.00726     0.00542
 Rotational constants (GHZ):           0.39068     0.15134     0.11294
    8 imaginary frequencies ignored.
 Zero-point vibrational energy     971110.4 (Joules/Mol)
                                  232.10095 (Kcal/Mol)
 Warning -- explicit consideration of  30 degrees of freedom as
           vibrations may cause significant error
 Vibrational temperatures:     32.16    79.31   142.52   149.41   166.64
          (Kelvin)            200.40   256.67   275.20   296.32   391.45
                              401.17   405.24   428.77   459.08   474.91
                              478.45   506.08   532.26   546.63   621.83
                              637.41   656.23   669.29   708.34   738.09
                              794.55   807.98   830.98   883.18   892.88
                              897.89   922.28   931.61   971.50   994.27
                             1063.93  1093.91  1116.62  1193.11  1209.13
                             1233.83  1363.81  1391.23  1411.12  1419.38
                             1438.28  1456.18  1463.12  1473.82  1477.74
                             1485.53  1498.03  1505.84  1519.17  1528.45
                             1546.05  1551.93  1557.02  1563.93  1579.66
                             1594.83  1600.52  1619.50  1640.61  1655.78
                             1663.39  1672.74  1679.57  1703.96  1721.00
                             1730.12  1748.84  1787.30  1791.54  1802.19
                             1818.13  1832.59  1839.67  1861.95  1870.55
                             1880.56  1897.51  1904.11  1907.05  1926.85
                             1935.42  1938.66  1974.74  1986.13  1987.56
                             1999.36  2001.70  2035.73  2055.51  2099.46
                             2103.51  2108.36  2120.87  2152.26  4665.46
                             4693.21  4715.04  4717.12  4727.71  4736.90
                             4744.28  4746.22  4761.99  4762.22  4771.05
                             4774.68  4778.91  4802.23  4812.47  4833.98
                             4836.87  4846.82  4853.81  4858.56  5588.32
                             5595.36

 Zero-point correction=                           0.369876 (Hartree/Particle)
 Thermal correction to Energy=                    0.387539
 Thermal correction to Enthalpy=                  0.388483
 Thermal correction to Gibbs Free Energy=         0.324357
 Sum of electronic and zero-point Energies=          -1297.582224
 Sum of electronic and thermal Energies=             -1297.564561
 Sum of electronic and thermal Enthalpies=           -1297.563617
 Sum of electronic and thermal Free Energies=        -1297.627743

                     E (Thermal)             CV                S
                      KCal/Mol        Cal/Mol-Kelvin    Cal/Mol-Kelvin
 Total                  243.184             74.068            134.965
 Electronic               0.000              0.000              0.000
 Translational            0.889              2.981             43.384
 Rotational               0.889              2.981             35.131
 Vibrational            241.407             68.106             56.450
 Vibration     1          0.593              1.985              6.414
 Vibration     2          0.596              1.976              4.625
 Vibration     3          0.604              1.950              3.473
 Vibration     4          0.605              1.946              3.381
 Vibration     5          0.608              1.936              3.169
 Vibration     6          0.615              1.914              2.814
 Vibration     7          0.629              1.869              2.345
 Vibration     8          0.634              1.852              2.215
 Vibration     9          0.640              1.831              2.079
 Vibration    10          0.675              1.725              1.583
 Vibration    11          0.679              1.713              1.541
 Vibration    12          0.681              1.708              1.524
 Vibration    13          0.691              1.677              1.428
 Vibration    14          0.705              1.637              1.315
 Vibration    15          0.713              1.615              1.260
 Vibration    16          0.714              1.611              1.248
 Vibration    17          0.728              1.572              1.158
 Vibration    18          0.742              1.534              1.080
 Vibration    19          0.750              1.513              1.039
 Vibration    20          0.793              1.400              0.852
 Vibration    21          0.803              1.376              0.817
 Vibration    22          0.814              1.347              0.778
 Vibration    23          0.823              1.327              0.751
 Vibration    24          0.848              1.267              0.678
 Vibration    25          0.868              1.221              0.626
 Vibration    26          0.908              1.135              0.540
 Vibration    27          0.917              1.114              0.521
 Vibration    28          0.934              1.080              0.490
 Vibration    29          0.973              1.003              0.426
 Vibration    30          0.981              0.988              0.416

 Normal termination of Gaussian 09 at Mon Mar 28 10:13:55 2016.
