 Gaussian 09, Revision B.01,
 Gaussian 09:  EM64L-G09RevB.01 12-Aug-2010

 -------------------------------------------------
 # freq=raman b3lyp/6-31+g(2d,p) geom=connectivity
 -------------------------------------------------

 -----------------
 350 6345/6345.com
 -----------------
 Symbolic Z-matrix:
 Charge =  0 Multiplicity = 1

                         Standard orientation:
 ---------------------------------------------------------------------
 Center     Atomic      Atomic             Coordinates (Angstroms)
 Number     Number       Type             X           Y           Z
 ---------------------------------------------------------------------
      1          8           0       -4.973728   -0.462173    0.539681
      2          6           0       -3.762824   -0.088115   -0.133884
      3          6           0       -3.322307    1.278855    0.363451
      4          8           0       -4.276310    2.317211    0.092955
      5          1           0       -5.197638    1.985167    0.297275
      6          6           0       -1.938972    1.519949   -0.217479
      7          8           0       -1.323549    2.768572    0.129450
      8          1           0       -0.404343    2.880130   -0.245841
      9          6           0       -2.962772   -2.406728   -0.370036
     10          8           0       -3.995906   -3.318859    0.029101
     11          1           0       -3.685619   -4.266335    0.114810
     12          6           0       -2.713367   -1.082998    0.333984
     13          8           0       -1.417688   -0.856658   -0.238711
     14          6           0       -0.940675    0.437629    0.159381
     15          8           0        0.231310    0.492274   -0.666702
     16          6           0        1.452657    0.122153   -0.012710
     17          6           0        1.997224   -1.264608   -0.312084
     18          8           0        0.946074   -2.174218    0.047949
     19          1           0        0.122507   -1.859475   -0.423194
     20          6           0        3.415236   -1.434252    0.208883
     21          8           0        3.929909   -2.693380   -0.249857
     22          1           0        4.720955   -2.898164    0.327136
     23          6           0        2.367196    2.561140    0.177602
     24          8           0        1.288003    3.210649   -0.509348
     25          1           0        1.372144    4.194474   -0.351201
     26          6           0        2.533859    1.140132   -0.335822
     27          8           0        3.784973    0.901121    0.325031
     28          6           0        4.390788   -0.318662   -0.127797
     29          8           0        5.492898   -0.451380    0.782506
     30          1           0        6.302842   -0.590470    0.286277
     31          1           0        3.272563    3.106566    0.011106
     32          1           0        2.156009    2.536562    1.226266
     33          1           0        2.691671    1.163048   -1.393872
     34          1           0        1.273206    0.170319    1.041035
     35          1           0        2.078084   -1.327029   -1.377197
     36          1           0        3.353980   -1.486095    1.275869
     37          1           0        4.684526   -0.295452   -1.156427
     38          1           0       -5.631404   -0.726683   -0.107696
     39          1           0       -2.042975   -2.951745   -0.327265
     40          1           0       -3.143140   -2.174544   -1.398850
     41          1           0       -2.680335   -1.188216    1.398286
     42          1           0       -3.878525   -0.105848   -1.197463
     43          1           0       -3.216331    1.214592    1.426249
     44          1           0       -2.039428    1.502343   -1.282607
     45          1           0       -0.692885    0.464607    1.199945
 ---------------------------------------------------------------------

 SCF Done:  E(RB3LYP) =  -1297.97828219     A.U. after   13 cycles

 The electronic state is 1-A.
 Alpha  occ. eigenvalues --  -19.18319 -19.18098 -19.18015 -19.17876 -19.17542
 Alpha  occ. eigenvalues --  -19.17067 -19.16326 -19.15462 -19.15281 -19.14006
 Alpha  occ. eigenvalues --  -19.13002 -10.30860 -10.30198 -10.25254 -10.25246
 Alpha  occ. eigenvalues --  -10.25177 -10.25097 -10.24946 -10.24658 -10.24433
 Alpha  occ. eigenvalues --  -10.24406 -10.24347 -10.23412  -1.10360  -1.09441
 Alpha  occ. eigenvalues --   -1.05409  -1.05010  -1.03766  -1.03534  -1.02811
 Alpha  occ. eigenvalues --   -1.01849  -1.01562  -1.00886  -0.99791  -0.81831
 Alpha  occ. eigenvalues --   -0.80768  -0.79356  -0.78224  -0.71204  -0.69343
 Alpha  occ. eigenvalues --   -0.67538  -0.65122  -0.63082  -0.62401  -0.61481
 Alpha  occ. eigenvalues --   -0.60495  -0.56756  -0.55806  -0.54772  -0.54449
 Alpha  occ. eigenvalues --   -0.53982  -0.53534  -0.52896  -0.52109  -0.50840
 Alpha  occ. eigenvalues --   -0.50444  -0.49970  -0.49042  -0.48349  -0.46599
 Alpha  occ. eigenvalues --   -0.45812  -0.44755  -0.44239  -0.43523  -0.42906
 Alpha  occ. eigenvalues --   -0.42322  -0.41448  -0.41194  -0.39961  -0.39559
 Alpha  occ. eigenvalues --   -0.38741  -0.38701  -0.37628  -0.36764  -0.35580
 Alpha  occ. eigenvalues --   -0.35434  -0.34854  -0.33847  -0.33775  -0.33231
 Alpha  occ. eigenvalues --   -0.32959  -0.31451  -0.31000  -0.30187  -0.29888
 Alpha  occ. eigenvalues --   -0.29511  -0.28345  -0.28075  -0.27191  -0.26597
 Alpha  occ. eigenvalues --   -0.26258
 Alpha virt. eigenvalues --   -0.01811  -0.01589  -0.01393  -0.00069   0.00262
 Alpha virt. eigenvalues --    0.00871   0.02019   0.02089   0.02694   0.03337
 Alpha virt. eigenvalues --    0.03792   0.04206   0.04978   0.05540   0.05841

 Mulliken atomic charges:
              1
     1  O   -0.534420
     2  C   -0.081539
     3  C    0.176216
     4  O   -0.560212
     5  H    0.342169
     6  C   -0.074153
     7  O   -0.589682
     8  H    0.421597
     9  C   -0.280187
    10  O   -0.573510
    11  H    0.339485
    12  C    0.239331
    13  O   -0.214190
    14  C    0.335725
    15  O   -0.225765
    16  C    0.451198
    17  C   -0.080246
    18  O   -0.531783
    19  H    0.368407
    20  C    0.106175
    21  O   -0.537991
    22  H    0.335279
    23  C   -0.172925
    24  O   -0.563129
    25  H    0.352687
    26  C   -0.294738
    27  O   -0.207875
    28  C    0.111309
    29  O   -0.538608
    30  H    0.332357
    31  H    0.149042
    32  H    0.154758
    33  H    0.121981
    34  H    0.102270
    35  H    0.114131
    36  H    0.135686
    37  H    0.140162
    38  H    0.339838
    39  H    0.130027
    40  H    0.135463
    41  H    0.126955
    42  H    0.126971
    43  H    0.116344
    44  H    0.125350
    45  H    0.130039
 Sum of Mulliken atomic charges =   0.00000

 Dipole moment (field-independent basis, Debye):
    X=              3.0700    Y=             -0.1168    Z=             -1.3792  Tot=              3.3676
 Quadrupole moment (field-independent basis, Debye-Ang):
   XX=           -114.8597   YY=           -140.5754   ZZ=           -138.7888
   XY=             12.1067   XZ=              0.5193   YZ=             -0.7531

  Exact polarizability: 235.557  -1.384 195.801   0.594   0.708 143.559
 Approx polarizability: 276.446  -0.758 255.109   1.537   1.060 240.579

 ******    7 imaginary frequencies (negative Signs) ******

                     1                      2                      3
                     A                      A                      A
 Frequencies --  -261.4850              -224.3650              -215.4983
 Red. masses --     1.5394                 1.2514                 1.1789
 Frc consts  --     0.0620                 0.0371                 0.0323
 IR Inten    --    38.9488                61.7988               111.0358
 Raman Activ --     0.2866                 0.5158                 0.8154

                     4                      5                      6
                     A                      A                      A
 Frequencies --  -170.7179               -73.6885               -57.1277
 Red. masses --     2.0082                 6.7152                 6.5096
 Frc consts  --     0.0345                 0.0215                 0.0125
 IR Inten    --     3.7104                 1.1466                 0.4069
 Raman Activ --     0.1185                 0.0432                 0.0379

                     7                      8                      9
                     A                      A                      A
 Frequencies --   -35.4543                28.9368                48.1456
 Red. masses --     6.9928                 6.4085                 6.6451
 Frc consts  --     0.0052                 0.0032                 0.0091
 IR Inten    --     3.0988                 0.3653                 1.2262
 Raman Activ --     0.0367                 0.0303                 0.0722

                    10                     11                     12
                     A                      A                      A
 Frequencies --    83.0953               106.3622               116.7483
 Red. masses --     6.2899                 6.9482                 5.4158
 Frc consts  --     0.0256                 0.0463                 0.0435
 IR Inten    --     0.8941                 2.4641                 1.0380
 Raman Activ --     0.3446                 0.0299                 0.1385

                    13                     14                     15
                     A                      A                      A
 Frequencies --   158.8238               180.2685               187.4164
 Red. masses --     6.0632                 7.0241                 6.7990
 Frc consts  --     0.0901                 0.1345                 0.1407
 IR Inten    --     5.1285                 1.5662                 0.9557
 Raman Activ --     0.2381                 0.7337                 0.3584

                    16                     17                     18
                     A                      A                      A
 Frequencies --   206.3511               234.7100               269.5765
 Red. masses --     6.9851                 6.0185                 4.9098
 Frc consts  --     0.1752                 0.1953                 0.2102
 IR Inten    --     0.3115                 1.4356                 8.4870
 Raman Activ --     2.8158                 0.4649                 0.2538

                    19                     20                     21
                     A                      A                      A
 Frequencies --   278.2189               286.9381               299.7135
 Red. masses --     5.4735                 4.3894                 5.0869
 Frc consts  --     0.2496                 0.2129                 0.2692
 IR Inten    --     3.0349                14.4725                 3.5804
 Raman Activ --     0.1569                 0.4472                 0.3444

                    22                     23                     24
                     A                      A                      A
 Frequencies --   308.2415               316.5954               338.0959
 Red. masses --     5.5247                 5.6667                 6.1204
 Frc consts  --     0.3093                 0.3347                 0.4122
 IR Inten    --     2.9843                 1.6310                 2.5294
 Raman Activ --     0.7701                 1.5162                 1.9413

                    25                     26                     27
                     A                      A                      A
 Frequencies --   353.0900               365.1089               388.8244
 Red. masses --     6.2165                 4.5098                 7.5262
 Frc consts  --     0.4566                 0.3542                 0.6704
 IR Inten    --     8.0901                 5.6152                 2.7857
 Raman Activ --     3.6466                 0.0748                 1.6605

                    28                     29                     30
                     A                      A                      A
 Frequencies --   413.8218               423.4935               431.5431
 Red. masses --     5.2850                 6.1458                 4.1008
 Frc consts  --     0.5332                 0.6494                 0.4500
 IR Inten    --     8.5545                 3.2394                 4.3330
 Raman Activ --     2.6724                 2.5809                 9.2377

                    31                     32                     33
                     A                      A                      A
 Frequencies --   441.3464               488.7768               498.3716
 Red. masses --     4.4495                 4.7097                 3.6877
 Frc consts  --     0.5106                 0.6629                 0.5396
 IR Inten    --     1.6209                 4.7077                15.6647
 Raman Activ --     1.3804                 3.5773                 0.9951

                    34                     35                     36
                     A                      A                      A
 Frequencies --   519.5640               536.4401               577.2783
 Red. masses --     4.2659                 2.9718                 3.0730
 Frc consts  --     0.6785                 0.5039                 0.6034
 IR Inten    --     9.6662                 9.8719                25.6945
 Raman Activ --     1.3799                 4.2766                 0.5302

                    37                     38                     39
                     A                      A                      A
 Frequencies --   583.8832               618.4994               637.9116
 Red. masses --     3.2302                 6.0025                 2.2581
 Frc consts  --     0.6488                 1.3529                 0.5414
 IR Inten    --    64.2976                10.6898                21.2657
 Raman Activ --     0.8208                 0.4514                 1.0086

                    40                     41                     42
                     A                      A                      A
 Frequencies --   641.0658               657.9132               709.8467
 Red. masses --     2.3670                 2.2223                 4.5482
 Frc consts  --     0.5731                 0.5668                 1.3503
 IR Inten    --    28.1557                84.8503                10.5464
 Raman Activ --     0.7763                 1.4829                 1.7327

                    43                     44                     45
                     A                      A                      A
 Frequencies --   724.9181               735.7920               759.4898
 Red. masses --     1.0635                 1.0873                 1.0895
 Frc consts  --     0.3293                 0.3468                 0.3703
 IR Inten    --   101.7670               149.4355                51.0390
 Raman Activ --     1.8009                 5.0863                 1.9475

                    46                     47                     48
                     A                      A                      A
 Frequencies --   761.7510               806.4601               852.7506
 Red. masses --     1.0890                 1.0638                 1.7498
 Frc consts  --     0.3723                 0.4077                 0.7497
 IR Inten    --   169.2113                90.1235                 5.6168
 Raman Activ --     1.3854                 1.3685                 0.3340

                    49                     50                     51
                     A                      A                      A
 Frequencies --   874.4218               923.0362               954.2606
 Red. masses --     1.6564                 5.8405                 5.4631
 Frc consts  --     0.7462                 2.9318                 2.9311
 IR Inten    --     7.8213               137.3691                47.7979
 Raman Activ --     1.0549                 3.8638                 0.5128

                    52                     53                     54
                     A                      A                      A
 Frequencies --   975.6193               979.6110               983.1159
 Red. masses --     6.5362                 4.4435                 4.4029
 Frc consts  --     3.6655                 2.5124                 2.5072
 IR Inten    --    60.5195                21.1002               127.8200
 Raman Activ --     1.6027                 1.0932                 4.0148

                    55                     56                     57
                     A                      A                      A
 Frequencies --   995.4506              1008.9148              1018.8054
 Red. masses --     7.5728                 5.6915                 5.9946
 Frc consts  --     4.4213                 3.4134                 3.6660
 IR Inten    --   333.2014                34.6968               109.2833
 Raman Activ --     1.6863                 1.0982                 4.8180

                    58                     59                     60
                     A                      A                      A
 Frequencies --  1038.3407              1054.7789              1061.1655
 Red. masses --     4.4780                 4.5741                 3.4602
 Frc consts  --     2.8445                 2.9983                 2.2957
 IR Inten    --   109.7895                 9.1146               170.6073
 Raman Activ --     8.4560                11.3429                13.7360

                    61                     62                     63
                     A                      A                      A
 Frequencies --  1073.1501              1080.9553              1085.1524
 Red. masses --     4.1733                 5.3333                 3.5473
 Frc consts  --     2.8317                 3.6717                 2.4611
 IR Inten    --    14.5428               105.4041               109.4956
 Raman Activ --    17.6105                 0.4377                 7.7670

                    64                     65                     66
                     A                      A                      A
 Frequencies --  1092.7042              1097.0840              1098.0259
 Red. masses --     2.7063                 2.7708                 2.4615
 Frc consts  --     1.9038                 1.9649                 1.7485
 IR Inten    --   114.4852                21.0900                18.4568
 Raman Activ --     9.8225                 0.9114                 4.5747

                    67                     68                     69
                     A                      A                      A
 Frequencies --  1106.2136              1120.9636              1133.5202
 Red. masses --     3.4265                 2.0169                 2.9221
 Frc consts  --     2.4704                 1.4932                 2.2121
 IR Inten    --    87.1160                36.1342                17.2200
 Raman Activ --     3.3740                 2.7449                 4.8058

                    70                     71                     72
                     A                      A                      A
 Frequencies --  1137.1119              1143.4853              1146.5391
 Red. masses --     2.1796                 1.9475                 2.2521
 Frc consts  --     1.6604                 1.5003                 1.7443
 IR Inten    --    59.9363                12.8879               110.5153
 Raman Activ --     1.3283                 4.7434                 7.5739

                    73                     74                     75
                     A                      A                      A
 Frequencies --  1156.5858              1167.2604              1179.5233
 Red. masses --     1.5806                 1.5678                 2.0438
 Frc consts  --     1.2457                 1.2586                 1.6753
 IR Inten    --    10.2829                 5.9809                10.9570
 Raman Activ --     1.2554                 3.2551                 2.0375

                    76                     77                     78
                     A                      A                      A
 Frequencies --  1195.4354              1202.5663              1209.3600
 Red. masses --     1.3392                 1.4680                 1.4105
 Frc consts  --     1.1276                 1.2508                 1.2154
 IR Inten    --    26.9991                18.6312                 6.2355
 Raman Activ --     0.2174                 4.6872                 1.8433

                    79                     80                     81
                     A                      A                      A
 Frequencies --  1213.9449              1235.0144              1250.8493
 Red. masses --     1.4355                 1.2691                 1.4175
 Frc consts  --     1.2464                 1.1405                 1.3067
 IR Inten    --     3.1314                 1.3351                 2.9471
 Raman Activ --     2.9264                 1.6398                 1.1431

                    82                     83                     84
                     A                      A                      A
 Frequencies --  1264.3626              1267.8716              1281.2660
 Red. masses --     1.3467                 1.1612                 1.3508
 Frc consts  --     1.2684                 1.0998                 1.3066
 IR Inten    --     3.3495                 0.0233                24.0483
 Raman Activ --     1.4344                 5.5459                 0.9699

                    85                     86                     87
                     A                      A                      A
 Frequencies --  1283.5795              1293.6103              1297.1934
 Red. masses --     1.3581                 1.3809                 1.2273
 Frc consts  --     1.3183                 1.3615                 1.2168
 IR Inten    --    36.4866                 3.7017                 3.6088
 Raman Activ --     1.3307                 1.0187                 9.3922

                    88                     89                     90
                     A                      A                      A
 Frequencies --  1305.9547              1318.5003              1327.9961
 Red. masses --     1.1840                 1.3405                 1.2067
 Frc consts  --     1.1897                 1.3730                 1.2539
 IR Inten    --    39.7413                13.8924                 9.9863
 Raman Activ --     6.9084                 3.4932                 4.2992

                    91                     92                     93
                     A                      A                      A
 Frequencies --  1333.2851              1348.1416              1356.5221
 Red. masses --     1.3639                 1.2554                 1.3129
 Frc consts  --     1.4285                 1.3443                 1.4234
 IR Inten    --    48.0152                26.3739                 9.7210
 Raman Activ --     2.3782                 3.9791                 8.5886

                    94                     95                     96
                     A                      A                      A
 Frequencies --  1359.0761              1360.3663              1370.4180
 Red. masses --     1.4064                 1.4639                 1.5127
 Frc consts  --     1.5305                 1.5961                 1.6738
 IR Inten    --     4.8897                53.9046                18.4126
 Raman Activ --     3.5931                 4.8382                 9.3524

                    97                     98                     99
                     A                      A                      A
 Frequencies --  1371.3202              1386.1124              1405.0557
 Red. masses --     1.2168                 1.3902                 1.3282
 Frc consts  --     1.3481                 1.5737                 1.5448
 IR Inten    --    42.8607                 9.7523                 1.5870
 Raman Activ --     1.7267                 1.8047                10.3369

                   100                    101                    102
                     A                      A                      A
 Frequencies --  1414.9654              1446.8712              1449.7657
 Red. masses --     1.4282                 1.2961                 1.4558
 Frc consts  --     1.6847                 1.5987                 1.8028
 IR Inten    --    38.7541                35.9610                22.9919
 Raman Activ --     1.0182                 1.6405                 2.0628

                   103                    104                    105
                     A                      A                      A
 Frequencies --  1451.9654              1467.4869              1476.6176
 Red. masses --     1.3368                 1.0704                 1.0724
 Frc consts  --     1.6604                 1.3581                 1.3776
 IR Inten    --    27.3034                 3.6247                 5.4501
 Raman Activ --     1.1210                 3.8510                 4.9430

                   106                    107                    108
                     A                      A                      A
 Frequencies --  1487.5296              1500.0003              3255.3421
 Red. masses --     1.3082                 1.2974                 1.0584
 Frc consts  --     1.7056                 1.7200                 6.6082
 IR Inten    --    19.5666                44.7108                19.4499
 Raman Activ --     1.4152                 3.9952                78.7246

                   109                    110                    111
                     A                      A                      A
 Frequencies --  3256.1883              3258.4406              3267.2584
 Red. masses --     1.0677                 1.0777                 1.0694
 Frc consts  --     6.6701                 6.7420                 6.7260
 IR Inten    --   385.7915               178.0842                40.7946
 Raman Activ --    69.3142                56.5201               289.5609

                   112                    113                    114
                     A                      A                      A
 Frequencies --  3271.0928              3272.5385              3280.6744
 Red. masses --     1.0831                 1.0747                 1.0826
 Frc consts  --     6.8280                 6.7812                 6.8653
 IR Inten    --     2.0074               215.8329                51.2708
 Raman Activ --    27.1977                83.7594                22.6562

                   115                    116                    117
                     A                      A                      A
 Frequencies --  3283.5618              3289.3246              3295.4037
 Red. masses --     1.0841                 1.0860                 1.0857
 Frc consts  --     6.8869                 6.9229                 6.9464
 IR Inten    --     5.3637                16.1699                14.9513
 Raman Activ --    79.2210                12.6487               128.6818

                   118                    119                    120
                     A                      A                      A
 Frequencies --  3297.0854              3302.3127              3303.2454
 Red. masses --     1.0878                 1.0932                 1.0880
 Frc consts  --     6.9671                 7.0237                 6.9943
 IR Inten    --     6.5449                30.6838                90.5650
 Raman Activ --    24.0096                28.7283                38.4185

                   121                    122                    123
                     A                      A                      A
 Frequencies --  3314.1491              3322.0066              3328.8673
 Red. masses --     1.0938                 1.0698                 1.1101
 Frc consts  --     7.0786                 6.9558                 7.2480
 IR Inten    --    76.6982               554.4358                35.6423
 Raman Activ --     7.6200               147.4263                41.9516

                   124                    125                    126
                     A                      A                      A
 Frequencies --  3360.9001              3362.8434              3367.3897
 Red. masses --     1.0708                 1.0659                 1.0658
 Frc consts  --     7.1266                 7.1022                 7.1203
 IR Inten    --    43.4019                40.9504                35.1477
 Raman Activ --   128.9089               128.6493               131.4581

                   127                    128                    129
                     A                      A                      A
 Frequencies --  3370.2829              3891.6124              3893.4269
 Red. masses --     1.0666                 1.0675                 1.0673
 Frc consts  --     7.1382                 9.5252                 9.5323
 IR Inten    --    42.2050                76.3299                66.2262
 Raman Activ --   147.7757                90.0283               137.0481

 - Thermochemistry -
 -------------------
 Temperature   298.150 Kelvin.  Pressure   1.00000 Atm.
 Atom     1 has atomic number  8 and mass  15.99491

 Molecular mass:   342.11621 amu.
 Principal axes and moments of inertia in atomic units:
                           1         2         3
     Eigenvalues --  4324.54328********************
           X            0.99998   0.00683   0.00030
           Y           -0.00683   0.99997   0.00225
           Z           -0.00028  -0.00225   1.00000
 This molecule is an asymmetric top.
 Rotational symmetry number  1.
 Warning -- assumption of classical behavior for rotation
           may cause significant error
 Rotational temperatures (Kelvin)      0.02003     0.00702     0.00533
 Rotational constants (GHZ):           0.41733     0.14623     0.11114
    7 imaginary frequencies ignored.
 Zero-point vibrational energy     973993.1 (Joules/Mol)
                                  232.78993 (Kcal/Mol)
 Warning -- explicit consideration of  31 degrees of freedom as
           vibrations may cause significant error
 Vibrational temperatures:     41.63    69.27   119.56   153.03   167.97
          (Kelvin)            228.51   259.37   269.65   296.89   337.69
                              387.86   400.29   412.84   431.22   443.49
                              455.51   486.44   508.02   525.31   559.43
                              595.40   609.31   620.89   635.00   703.24
                              717.04   747.54   771.82   830.57   840.08
                              889.88   917.81   922.35   946.59  1021.31
                             1042.99  1058.64  1092.74  1095.99  1160.31
                             1226.92  1258.10  1328.04  1372.97  1403.70
                             1409.44  1414.48  1432.23  1451.60  1465.83
                             1493.94  1517.59  1526.78  1544.02  1555.25
                             1561.29  1572.16  1578.46  1579.81  1591.59
                             1612.81  1630.88  1636.05  1645.22  1649.61
                             1664.07  1679.43  1697.07  1719.96  1730.22
                             1740.00  1746.59  1776.91  1799.69  1819.13
                             1824.18  1843.45  1846.78  1861.21  1866.37
                             1878.98  1897.03  1910.69  1918.30  1939.67
                             1951.73  1955.40  1957.26  1971.72  1973.02
                             1994.30  2021.56  2035.82  2081.72  2085.89
                             2089.05  2111.38  2124.52  2140.22  2158.16
                             4683.71  4684.92  4688.16  4700.85  4706.37
                             4708.45  4720.15  4724.31  4732.60  4741.34
                             4743.76  4751.29  4752.63  4768.32  4779.62
                             4789.49  4835.58  4838.38  4844.92  4849.08
                             5599.16  5601.77

 Zero-point correction=                           0.370974 (Hartree/Particle)
 Thermal correction to Energy=                    0.389225
 Thermal correction to Enthalpy=                  0.390170
 Thermal correction to Gibbs Free Energy=         0.325099
 Sum of electronic and zero-point Energies=          -1297.607308
 Sum of electronic and thermal Energies=             -1297.589057
 Sum of electronic and thermal Enthalpies=           -1297.588113
 Sum of electronic and thermal Free Energies=        -1297.653184

                     E (Thermal)             CV                S
                      KCal/Mol        Cal/Mol-Kelvin    Cal/Mol-Kelvin
 Total                  244.243             75.770            136.954
 Electronic               0.000              0.000              0.000
 Translational            0.889              2.981             43.384
 Rotational               0.889              2.981             35.115
 Vibrational            242.465             69.808             58.454
 Vibration     1          0.593              1.984              5.901
 Vibration     2          0.595              1.978              4.892
 Vibration     3          0.600              1.961              3.816
 Vibration     4          0.605              1.944              3.334
 Vibration     5          0.608              1.935              3.154
 Vibration     6          0.621              1.893              2.564
 Vibration     7          0.629              1.866              2.326
 Vibration     8          0.632              1.857              2.253
 Vibration     9          0.641              1.831              2.076
 Vibration    10          0.655              1.788              1.843
 Vibration    11          0.674              1.729              1.599
 Vibration    12          0.679              1.714              1.545
 Vibration    13          0.684              1.698              1.492
 Vibration    14          0.692              1.674              1.419
 Vibration    15          0.698              1.658              1.372
 Vibration    16          0.703              1.642              1.328
 Vibration    17          0.718              1.599              1.221
 Vibration    18          0.729              1.569              1.152
 Vibration    19          0.738              1.544              1.100
 Vibration    20          0.757              1.494              1.005
 Vibration    21          0.777              1.440              0.913
 Vibration    22          0.786              1.419              0.880
 Vibration    23          0.793              1.402              0.854
 Vibration    24          0.801              1.380              0.822
 Vibration    25          0.845              1.275              0.687
 Vibration    26          0.854              1.254              0.662
 Vibration    27          0.875              1.207              0.611
 Vibration    28          0.891              1.169              0.573
 Vibration    29          0.934              1.080              0.490
 Vibration    30          0.941              1.066              0.478
 Vibration    31          0.978              0.993              0.419

 Normal termination of Gaussian 09 at Fri Mar 25 20:24:59 2016.
