 Gaussian 09, Revision B.01,
 Gaussian 09:  EM64L-G09RevB.01 12-Aug-2010

 -------------------------------------------------
 # freq=raman b3lyp/6-31+g(2d,p) geom=connectivity
 -------------------------------------------------

 -----------------
 290 8281/8281.com
 -----------------
 Symbolic Z-matrix:
 Charge =  0 Multiplicity = 1

                         Standard orientation:
 ---------------------------------------------------------------------
 Center     Atomic      Atomic             Coordinates (Angstroms)
 Number     Number       Type             X           Y           Z
 ---------------------------------------------------------------------
      1          8           0        5.022111   -0.540630   -0.368742
      2          6           0        3.750860   -0.032252    0.063782
      3          6           0        3.176320    1.288499   -0.420586
      4          8           0        4.111243    2.329946   -0.102129
      5          1           0        4.986935    2.001380   -0.456232
      6          6           0        1.794055    1.648570    0.097605
      7          8           0        1.138928    2.733760   -0.575209
      8          1           0        0.258005    2.742198   -0.101574
      9          6           0        2.904032   -2.525607    0.252483
     10          8           0        4.016479   -3.286689   -0.241082
     11          1           0        3.959238   -4.275354   -0.098856
     12          6           0        2.709896   -1.099056   -0.234793
     13          8           0        1.506976   -0.755376    0.467493
     14          6           0        0.896702    0.432296   -0.059921
     15          8           0       -0.253145    0.477274    0.797653
     16          6           0       -1.430551    0.209375    0.021121
     17          6           0       -1.971506   -1.163086    0.387076
     18          8           0       -0.956221   -2.176453    0.358916
     19          1           0       -0.056668   -1.994796    0.756133
     20          6           0       -3.238517   -1.509876   -0.376293
     21          8           0       -3.884900   -2.684281    0.133839
     22          1           0       -4.735539   -2.906256   -0.341768
     23          6           0       -2.334284    2.659769    0.093027
     24          8           0       -1.154744    3.328690    0.562772
     25          1           0       -1.165849    4.308627    0.364273
     26          6           0       -2.541889    1.181381    0.380756
     27          8           0       -3.673733    0.818737   -0.423643
     28          6           0       -4.269523   -0.436887   -0.066589
     29          8           0       -5.471866   -0.630014   -0.826989
     30          1           0       -6.199221   -0.824976   -0.231553
     31          1           0        5.523523   -0.839132    0.393545
     32          1           0        2.013684   -3.069049    0.014047
     33          1           0        2.988069   -2.490839    1.318611
     34          1           0        2.512244   -1.111279   -1.286308
     35          1           0        3.812352    0.046248    1.129125
     36          1           0        3.109813    1.233267   -1.487088
     37          1           0        1.870212    1.886971    1.137925
     38          1           0        0.608080    0.293375   -1.080851
     39          1           0       -3.175463    3.181210    0.499741
     40          1           0       -2.363434    2.781199   -0.969661
     41          1           0       -2.792374    1.058485    1.413739
     42          1           0       -1.211342    0.259709   -1.024974
     43          1           0       -2.269440   -1.088563    1.412055
     44          1           0       -3.058222   -1.585991   -1.428244
     45          1           0       -4.497193   -0.444894    0.978878
 ---------------------------------------------------------------------

 SCF Done:  E(RB3LYP) =  -1297.96964117     A.U. after   13 cycles

 The electronic state is 1-A.
 Alpha  occ. eigenvalues --  -19.18925 -19.18659 -19.17925 -19.17572 -19.17371
 Alpha  occ. eigenvalues --  -19.16633 -19.15758 -19.15436 -19.15173 -19.13824
 Alpha  occ. eigenvalues --  -19.13778 -10.30697 -10.29839 -10.26418 -10.25483
 Alpha  occ. eigenvalues --  -10.25384 -10.25082 -10.24849 -10.24758 -10.24691
 Alpha  occ. eigenvalues --  -10.24641 -10.24396 -10.23837  -1.10090  -1.09104
 Alpha  occ. eigenvalues --   -1.05687  -1.04897  -1.04065  -1.03422  -1.02581
 Alpha  occ. eigenvalues --   -1.02337  -1.01601  -1.00849  -1.00055  -0.81975
 Alpha  occ. eigenvalues --   -0.79897  -0.79822  -0.78159  -0.71900  -0.70139
 Alpha  occ. eigenvalues --   -0.67071  -0.65107  -0.63446  -0.62170  -0.61922
 Alpha  occ. eigenvalues --   -0.60152  -0.56678  -0.55699  -0.55606  -0.54412
 Alpha  occ. eigenvalues --   -0.53762  -0.53588  -0.53142  -0.51930  -0.51251
 Alpha  occ. eigenvalues --   -0.50514  -0.50030  -0.48901  -0.48592  -0.46753
 Alpha  occ. eigenvalues --   -0.46310  -0.45199  -0.44957  -0.43868  -0.43185
 Alpha  occ. eigenvalues --   -0.42677  -0.42388  -0.40953  -0.40087  -0.39387
 Alpha  occ. eigenvalues --   -0.38940  -0.37385  -0.37249  -0.36567  -0.35719
 Alpha  occ. eigenvalues --   -0.34815  -0.34615  -0.34318  -0.33916  -0.33340
 Alpha  occ. eigenvalues --   -0.32883  -0.31460  -0.31072  -0.30482  -0.29583
 Alpha  occ. eigenvalues --   -0.29103  -0.28301  -0.27803  -0.27601  -0.26390
 Alpha  occ. eigenvalues --   -0.26142
 Alpha virt. eigenvalues --   -0.02173  -0.01925  -0.01594  -0.00027   0.00333
 Alpha virt. eigenvalues --    0.00978   0.01776   0.02165   0.03180   0.03458
 Alpha virt. eigenvalues --    0.03736   0.04300   0.04928   0.05266   0.05797

 Mulliken atomic charges:
              1
     1  O   -0.530051
     2  C   -0.077768
     3  C    0.423398
     4  O   -0.550349
     5  H    0.338922
     6  C   -0.393261
     7  O   -0.563682
     8  H    0.431037
     9  C   -0.254491
    10  O   -0.562321
    11  H    0.343139
    12  C    0.223703
    13  O   -0.267857
    14  C    0.385748
    15  O   -0.202128
    16  C    0.227541
    17  C    0.042876
    18  O   -0.579991
    19  H    0.370555
    20  C    0.136441
    21  O   -0.548479
    22  H    0.342657
    23  C   -0.302906
    24  O   -0.570067
    25  H    0.365397
    26  C    0.003706
    27  O   -0.268709
    28  C    0.130037
    29  O   -0.568792
    30  H    0.341986
    31  H    0.343280
    32  H    0.147130
    33  H    0.140206
    34  H    0.106942
    35  H    0.113575
    36  H    0.118862
    37  H    0.136740
    38  H    0.122849
    39  H    0.148419
    40  H    0.159192
    41  H    0.118660
    42  H    0.108797
    43  H    0.107171
    44  H    0.128727
    45  H    0.133159
 Sum of Mulliken atomic charges =   0.00000

 Dipole moment (field-independent basis, Debye):
    X=             -3.0493    Y=             -0.1462    Z=              1.7896  Tot=              3.5386
 Quadrupole moment (field-independent basis, Debye-Ang):
   XX=           -120.0652   YY=           -135.3010   ZZ=           -139.9649
   XY=            -13.3072   XZ=              1.0701   YZ=              0.9059

  Exact polarizability: 232.321   0.258 197.571   1.015  -0.347 143.218
 Approx polarizability: 273.433  -0.227 255.917   1.247  -0.697 240.854

 ******    6 imaginary frequencies (negative Signs) ******

                     1                      2                      3
                     A                      A                      A
 Frequencies --  -301.9342              -269.1928              -257.3143
 Red. masses --     1.2377                 1.7854                 1.5795
 Frc consts  --     0.0665                 0.0762                 0.0616
 IR Inten    --    94.9750                 4.3474                16.6816
 Raman Activ --     0.9617                 0.1045                 0.3521

                     4                      5                      6
                     A                      A                      A
 Frequencies --  -198.9189               -88.8341               -54.9457
 Red. masses --     1.2222                 7.0207                 6.3813
 Frc consts  --     0.0285                 0.0326                 0.0114
 IR Inten    --   122.2372                 1.2812                 0.5882
 Raman Activ --     0.7918                 0.0497                 0.0243

                     7                      8                      9
                     A                      A                      A
 Frequencies --    26.8107                54.3684                58.5155
 Red. masses --     6.7414                 7.5301                 7.1294
 Frc consts  --     0.0029                 0.0131                 0.0144
 IR Inten    --     0.5043                 3.3365                 0.2640
 Raman Activ --     0.0489                 0.0254                 0.0809

                    10                     11                     12
                     A                      A                      A
 Frequencies --    75.2556               102.4402               147.7649
 Red. masses --     6.3883                 6.1985                 6.1087
 Frc consts  --     0.0213                 0.0383                 0.0786
 IR Inten    --     2.7641                 0.5980                 1.6560
 Raman Activ --     0.0584                 0.2730                 0.2488

                    13                     14                     15
                     A                      A                      A
 Frequencies --   160.8868               183.6853               188.6578
 Red. masses --     6.1189                 6.5804                 5.8872
 Frc consts  --     0.0933                 0.1308                 0.1235
 IR Inten    --     6.3056                 0.5416                 6.3276
 Raman Activ --     0.2918                 0.3646                 0.5408

                    16                     17                     18
                     A                      A                      A
 Frequencies --   221.2915               233.8758               252.9729
 Red. masses --     6.5628                 6.1547                 5.4372
 Frc consts  --     0.1894                 0.1983                 0.2050
 IR Inten    --     1.0936                 3.6436                 1.7787
 Raman Activ --     1.4492                 1.3536                 0.3302

                    19                     20                     21
                     A                      A                      A
 Frequencies --   269.6979               294.5614               306.0145
 Red. masses --     4.2448                 6.0176                 4.8873
 Frc consts  --     0.1819                 0.3076                 0.2697
 IR Inten    --    18.0743                 0.3124                 4.7491
 Raman Activ --     0.3808                 0.2074                 1.7402

                    22                     23                     24
                     A                      A                      A
 Frequencies --   317.1936               318.4395               334.0087
 Red. masses --     4.6683                 5.3947                 6.3402
 Frc consts  --     0.2767                 0.3223                 0.4167
 IR Inten    --     3.4543                 8.7207                 3.6346
 Raman Activ --     0.8864                 1.1902                 2.9252

                    25                     26                     27
                     A                      A                      A
 Frequencies --   348.4437               360.2572               379.0046
 Red. masses --     5.7504                 4.9183                 7.7125
 Frc consts  --     0.4113                 0.3761                 0.6527
 IR Inten    --    17.1236                 0.2701                 7.2946
 Raman Activ --     1.8165                 2.8452                 2.0852

                    28                     29                     30
                     A                      A                      A
 Frequencies --   408.1350               415.8413               429.2121
 Red. masses --     7.1345                 6.5372                 4.0188
 Frc consts  --     0.7002                 0.6660                 0.4362
 IR Inten    --     4.7954                 1.6393                16.3826
 Raman Activ --     5.5012                 0.6856                 2.2968

                    31                     32                     33
                     A                      A                      A
 Frequencies --   438.3784               486.1397               492.8164
 Red. masses --     3.9861                 4.4608                 3.2606
 Frc consts  --     0.4513                 0.6211                 0.4666
 IR Inten    --     7.2582                 8.6596                36.6686
 Raman Activ --     2.7616                 1.1602                 0.6520

                    34                     35                     36
                     A                      A                      A
 Frequencies --   503.0948               531.6513               567.2864
 Red. masses --     4.4345                 3.0347                 4.1676
 Frc consts  --     0.6613                 0.5054                 0.7902
 IR Inten    --     3.3964                14.2374                12.7180
 Raman Activ --     5.6023                 2.2105                 2.3362

                    37                     38                     39
                     A                      A                      A
 Frequencies --   589.7025               612.9402               616.3881
 Red. masses --     2.9191                 6.1878                 4.8361
 Frc consts  --     0.5981                 1.3697                 1.0826
 IR Inten    --    19.0309                 8.1938                49.5627
 Raman Activ --     0.2452                 0.4022                 1.5268

                    40                     41                     42
                     A                      A                      A
 Frequencies --   636.2328               646.6816               655.0210
 Red. masses --     1.9023                 1.6020                 1.1090
 Frc consts  --     0.4537                 0.3947                 0.2803
 IR Inten    --    64.5688                83.8886               129.5011
 Raman Activ --     1.1726                 2.0114                 2.9735

                    43                     44                     45
                     A                      A                      A
 Frequencies --   704.5564               717.8559               722.2065
 Red. masses --     4.7024                 1.0963                 1.0861
 Frc consts  --     1.3753                 0.3328                 0.3338
 IR Inten    --     3.0372                82.1020               179.9383
 Raman Activ --     0.7708                 2.2929                 1.6912

                    46                     47                     48
                     A                      A                      A
 Frequencies --   756.5581               845.6472               867.8051
 Red. masses --     1.0870                 1.8247                 1.6821
 Frc consts  --     0.3666                 0.7688                 0.7463
 IR Inten    --    99.5518                 1.3842                 8.4337
 Raman Activ --     1.6567                 1.3228                 0.6591

                    49                     50                     51
                     A                      A                      A
 Frequencies --   919.0514               930.8874               949.4451
 Red. masses --     1.2174                 4.9698                 5.9635
 Frc consts  --     0.6059                 2.5374                 3.1673
 IR Inten    --    78.9659               145.1757                 3.0354
 Raman Activ --     0.3351                 5.2176                 0.9137

                    52                     53                     54
                     A                      A                      A
 Frequencies --   966.0805               971.8673               987.0058
 Red. masses --     4.4307                 5.2350                 4.6014
 Frc consts  --     2.4364                 2.9133                 2.6411
 IR Inten    --    20.5360                87.9853                 7.5824
 Raman Activ --     3.1488                 1.6536                 1.1334

                    55                     56                     57
                     A                      A                      A
 Frequencies --   991.2068              1006.7367              1023.8574
 Red. masses --     5.3905                 4.8360                 5.2794
 Frc consts  --     3.1204                 2.8878                 3.2607
 IR Inten    --   349.6523               153.6243                87.0530
 Raman Activ --     2.0877                 2.0485                 3.5150

                    58                     59                     60
                     A                      A                      A
 Frequencies --  1036.0421              1046.7834              1061.7775
 Red. masses --     7.1032                 4.3574                 3.9564
 Frc consts  --     4.4922                 2.8131                 2.6280
 IR Inten    --   381.5352                40.3874                17.5812
 Raman Activ --     1.5563                 8.7562                 7.7952

                    61                     62                     63
                     A                      A                      A
 Frequencies --  1068.4858              1076.2659              1080.3769
 Red. masses --     5.9961                 3.9057                 3.9602
 Frc consts  --     4.0333                 2.6656                 2.7235
 IR Inten    --   131.5173                 6.0660                15.7293
 Raman Activ --     7.2140                25.3783                 1.4139

                    64                     65                     66
                     A                      A                      A
 Frequencies --  1092.3486              1098.1583              1106.0778
 Red. masses --     2.7710                 3.6243                 2.5272
 Frc consts  --     1.9481                 2.5751                 1.8216
 IR Inten    --   122.5512                76.0678                25.5844
 Raman Activ --     4.2750                 8.1036                 5.3092

                    67                     68                     69
                     A                      A                      A
 Frequencies --  1110.3717              1120.6500              1133.1369
 Red. masses --     2.5646                 2.8882                 2.3213
 Frc consts  --     1.8630                 2.1370                 1.7561
 IR Inten    --    44.6477                32.0796                73.5809
 Raman Activ --    10.0094                 1.4627                 4.2092

                    70                     71                     72
                     A                      A                      A
 Frequencies --  1136.4683              1143.6218              1161.8507
 Red. masses --     1.8773                 3.1711                 1.6311
 Frc consts  --     1.4285                 2.4436                 1.2973
 IR Inten    --     1.0327                33.2550                19.6272
 Raman Activ --     4.4646                 3.5084                 3.0353

                    73                     74                     75
                     A                      A                      A
 Frequencies --  1172.5978              1186.3235              1192.5414
 Red. masses --     2.1312                 1.6563                 1.8000
 Frc consts  --     1.7265                 1.3734                 1.5082
 IR Inten    --    20.3160                 1.6938                 4.7178
 Raman Activ --     2.9439                 1.1498                 1.2630

                    76                     77                     78
                     A                      A                      A
 Frequencies --  1208.9657              1215.6639              1236.4582
 Red. masses --     1.4295                 1.3297                 1.2298
 Frc consts  --     1.2310                 1.1578                 1.1078
 IR Inten    --     9.0125                 4.4300                14.8066
 Raman Activ --     2.5909                 0.6821                 2.7738

                    79                     80                     81
                     A                      A                      A
 Frequencies --  1240.7060              1247.7035              1255.8376
 Red. masses --     1.3136                 1.3326                 1.2457
 Frc consts  --     1.1913                 1.2223                 1.1575
 IR Inten    --    13.0468                12.0385                17.4314
 Raman Activ --     0.7938                 4.0065                 3.6353

                    82                     83                     84
                     A                      A                      A
 Frequencies --  1270.3110              1278.4069              1287.2609
 Red. masses --     1.1153                 1.3700                 1.3647
 Frc consts  --     1.0604                 1.3192                 1.3324
 IR Inten    --    13.7425                59.4922                18.5825
 Raman Activ --     4.5725                 1.8583                 2.7222

                    85                     86                     87
                     A                      A                      A
 Frequencies --  1288.2139              1296.7409              1298.4238
 Red. masses --     1.3272                 1.3045                 1.1850
 Frc consts  --     1.2976                 1.2924                 1.1771
 IR Inten    --    28.4571                21.4413                43.1365
 Raman Activ --     3.3134                 4.6443                 4.7359

                    88                     89                     90
                     A                      A                      A
 Frequencies --  1299.9160              1309.2692              1316.0826
 Red. masses --     1.3065                 1.2066                 1.2495
 Frc consts  --     1.3007                 1.2186                 1.2751
 IR Inten    --    15.3671                 8.1818                40.5525
 Raman Activ --     5.2358                 1.6450                 6.3001

                    91                     92                     93
                     A                      A                      A
 Frequencies --  1328.4753              1338.9282              1339.9349
 Red. masses --     1.2876                 1.2442                 1.2273
 Frc consts  --     1.3389                 1.3141                 1.2983
 IR Inten    --     2.4223                51.9026                10.3127
 Raman Activ --     3.1218                 4.4551                 6.4008

                    94                     95                     96
                     A                      A                      A
 Frequencies --  1361.0035              1369.8552              1379.0955
 Red. masses --     1.3975                 1.2259                 1.5786
 Frc consts  --     1.5252                 1.3553                 1.7689
 IR Inten    --    37.3996                 4.9173                 8.3733
 Raman Activ --     2.9301                 5.3195                 6.4550

                    97                     98                     99
                     A                      A                      A
 Frequencies --  1384.9449              1392.9940              1408.7895
 Red. masses --     1.6474                 1.3664                 1.4459
 Frc consts  --     1.8617                 1.5622                 1.6908
 IR Inten    --     8.6710                13.7781                16.6781
 Raman Activ --     3.6823                 1.0728                 3.4487

                   100                    101                    102
                     A                      A                      A
 Frequencies --  1412.8811              1422.6120              1434.8085
 Red. masses --     1.2516                 1.3443                 1.4544
 Frc consts  --     1.4720                 1.6029                 1.7640
 IR Inten    --     1.7460                 3.8602                10.9444
 Raman Activ --     4.8184                 9.2340                 0.4266

                   103                    104                    105
                     A                      A                      A
 Frequencies --  1453.1375              1472.4392              1473.6452
 Red. masses --     1.4201                 1.0842                 1.3262
 Frc consts  --     1.7668                 1.3849                 1.6968
 IR Inten    --    11.9813                 2.2734                53.8410
 Raman Activ --     1.0384                 4.0961                 1.4719

                   106                    107                    108
                     A                      A                      A
 Frequencies --  1478.2279              1544.6843              3221.1139
 Red. masses --     1.0863                 1.2216                 1.0679
 Frc consts  --     1.3986                 1.7173                 6.5284
 IR Inten    --     3.4750                64.1691               974.5243
 Raman Activ --     4.5666                 1.3181               141.9422

                   109                    110                    111
                     A                      A                      A
 Frequencies --  3256.5563              3258.1872              3264.5785
 Red. masses --     1.0583                 1.0814                 1.0675
 Frc consts  --     6.6127                 6.7635                 6.7027
 IR Inten    --    48.9759                21.7598                11.1643
 Raman Activ --    96.1668                13.7977               238.6994

                   112                    113                    114
                     A                      A                      A
 Frequencies --  3265.0628              3269.3570              3272.5748
 Red. masses --     1.0712                 1.0829                 1.0844
 Frc consts  --     6.7284                 6.8199                 6.8425
 IR Inten    --     8.0632                 6.7694                 2.6554
 Raman Activ --    39.9270                31.8559                21.4309

                   115                    116                    117
                     A                      A                      A
 Frequencies --  3280.7381              3284.0227              3285.6024
 Red. masses --     1.0868                 1.0859                 1.0854
 Frc consts  --     6.8917                 6.8998                 6.9037
 IR Inten    --     3.9832                15.6001                20.0244
 Raman Activ --    47.9818                32.8397               170.3117

                   118                    119                    120
                     A                      A                      A
 Frequencies --  3293.6389              3301.0217              3305.5521
 Red. masses --     1.0857                 1.0862                 1.0872
 Frc consts  --     6.9392                 6.9737                 6.9990
 IR Inten    --    10.9142                12.4539                74.8701
 Raman Activ --    16.5804                 6.1024                20.8154

                   121                    122                    123
                     A                      A                      A
 Frequencies --  3311.6313              3317.7728              3339.3173
 Red. masses --     1.1055                 1.1055                 1.0682
 Frc consts  --     7.1433                 7.1695                 7.0181
 IR Inten    --    51.4433                44.5958               382.2312
 Raman Activ --    32.9273                58.4378               163.0828

                   124                    125                    126
                     A                      A                      A
 Frequencies --  3360.8790              3364.9817              3375.1874
 Red. masses --     1.0684                 1.0657                 1.0664
 Frc consts  --     7.1100                 7.1096                 7.1577
 IR Inten    --    47.4181                36.3309                55.8987
 Raman Activ --   185.6939               109.2312               132.4787

                   127                    128                    129
                     A                      A                      A
 Frequencies --  3376.5145              3890.1892              3892.3865
 Red. masses --     1.0670                 1.0677                 1.0675
 Frc consts  --     7.1675                 9.5205                 9.5294
 IR Inten    --    75.6877                92.6077                86.2387
 Raman Activ --   153.8567                72.6479               105.4934

 - Thermochemistry -
 -------------------
 Temperature   298.150 Kelvin.  Pressure   1.00000 Atm.
 Atom     1 has atomic number  8 and mass  15.99491

 Molecular mass:   342.11621 amu.
 Principal axes and moments of inertia in atomic units:
                           1         2         3
     Eigenvalues --  4486.13189********************
           X            0.99997  -0.00763  -0.00039
           Y            0.00763   0.99997  -0.00115
           Z            0.00040   0.00114   1.00000
 This molecule is an asymmetric top.
 Rotational symmetry number  1.
 Warning -- assumption of classical behavior for rotation
           may cause significant error
 Rotational temperatures (Kelvin)      0.01931     0.00721     0.00542
 Rotational constants (GHZ):           0.40229     0.15027     0.11295
    6 imaginary frequencies ignored.
 Zero-point vibrational energy     974248.3 (Joules/Mol)
                                  232.85093 (Kcal/Mol)
 Warning -- explicit consideration of  33 degrees of freedom as
           vibrations may cause significant error
 Vibrational temperatures:     38.57    78.22    84.19   108.28   147.39
          (Kelvin)            212.60   231.48   264.28   271.44   318.39
                              336.49   363.97   388.03   423.81   440.29
                              456.37   458.16   480.56   501.33   518.33
                              545.30   587.21   598.30   617.54   630.73
                              699.45   709.05   723.84   764.93   816.20
                              848.45   881.88   886.84   915.40   930.43
                              942.43  1013.70  1032.83  1039.09  1088.52
                             1216.70  1248.58  1322.31  1339.34  1366.04
                             1389.97  1398.30  1420.08  1426.12  1448.47
                             1473.10  1490.63  1506.09  1527.66  1537.31
                             1548.50  1554.42  1571.64  1580.00  1591.40
                             1597.58  1612.36  1630.33  1635.12  1645.41
                             1671.64  1687.10  1706.85  1715.80  1739.43
                             1749.07  1778.99  1785.10  1795.16  1806.87
                             1827.69  1839.34  1852.08  1853.45  1865.72
                             1868.14  1870.29  1883.74  1893.55  1911.38
                             1926.42  1927.86  1958.18  1970.91  1984.21
                             1992.62  2004.21  2026.93  2032.82  2046.82
                             2064.37  2090.74  2118.51  2120.24  2126.84
                             2222.45  4634.46  4685.45  4687.80  4696.99
                             4697.69  4703.87  4708.50  4720.24  4724.97
                             4727.24  4738.81  4749.43  4755.95  4764.69
                             4773.53  4804.53  4835.55  4841.45  4856.14
                             4858.05  5597.11  5600.27

 Zero-point correction=                           0.371072 (Hartree/Particle)
 Thermal correction to Energy=                    0.390179
 Thermal correction to Enthalpy=                  0.391123
 Thermal correction to Gibbs Free Energy=         0.323942
 Sum of electronic and zero-point Energies=          -1297.598570
 Sum of electronic and thermal Energies=             -1297.579463
 Sum of electronic and thermal Enthalpies=           -1297.578518
 Sum of electronic and thermal Free Energies=        -1297.645699

                     E (Thermal)             CV                S
                      KCal/Mol        Cal/Mol-Kelvin    Cal/Mol-Kelvin
 Total                  244.841             77.967            141.394
 Electronic               0.000              0.000              0.000
 Translational            0.889              2.981             43.384
 Rotational               0.889              2.981             35.108
 Vibrational            243.063             72.005             62.901
 Vibration     1          0.593              1.984              6.052
 Vibration     2          0.596              1.976              4.652
 Vibration     3          0.596              1.974              4.507
 Vibration     4          0.599              1.966              4.011
 Vibration     5          0.605              1.947              3.407
 Vibration     6          0.617              1.905              2.701
 Vibration     7          0.622              1.890              2.539
 Vibration     8          0.631              1.862              2.291
 Vibration     9          0.633              1.855              2.241
 Vibration    10          0.648              1.809              1.949
 Vibration    11          0.654              1.789              1.849
 Vibration    12          0.664              1.758              1.710
 Vibration    13          0.674              1.729              1.598
 Vibration    14          0.689              1.684              1.448
 Vibration    15          0.696              1.662              1.384
 Vibration    16          0.704              1.641              1.325
 Vibration    17          0.705              1.638              1.318
 Vibration    18          0.716              1.608              1.241
 Vibration    19          0.726              1.578              1.173
 Vibration    20          0.735              1.554              1.121
 Vibration    21          0.749              1.515              1.043
 Vibration    22          0.773              1.453              0.933
 Vibration    23          0.779              1.436              0.906
 Vibration    24          0.791              1.407              0.861
 Vibration    25          0.799              1.387              0.832
 Vibration    26          0.842              1.281              0.694
 Vibration    27          0.849              1.266              0.676
 Vibration    28          0.858              1.243              0.650
 Vibration    29          0.887              1.180              0.584
 Vibration    30          0.923              1.102              0.509
 Vibration    31          0.947              1.054              0.468
 Vibration    32          0.972              1.004              0.428
 Vibration    33          0.976              0.997              0.422

 Normal termination of Gaussian 09 at Tue Mar 22 09:21:16 2016.
