 Gaussian 09, Revision B.01,
 Gaussian 09:  EM64L-G09RevB.01 12-Aug-2010

 -------------------------------------------------
 # freq=raman b3lyp/6-31+g(2d,p) geom=connectivity
 -------------------------------------------------

 -----------------
 483 5544/5544.com
 -----------------
 Symbolic Z-matrix:
 Charge =  0 Multiplicity = 1

                         Standard orientation:
 ---------------------------------------------------------------------
 Center     Atomic      Atomic             Coordinates (Angstroms)
 Number     Number       Type             X           Y           Z
 ---------------------------------------------------------------------
      1          8           0       -5.023380   -0.386306    0.455678
      2          6           0       -3.773199   -0.080687   -0.179301
      3          6           0       -3.307818    1.306561    0.232286
      4          8           0       -4.149046    2.323015   -0.332609
      5          1           0       -5.004391    2.133667    0.151242
      6          6           0       -1.843753    1.474882   -0.136507
      7          8           0       -1.347507    2.712481    0.394925
      8          1           0       -0.564619    3.109943   -0.083148
      9          6           0       -3.089340   -2.554684   -0.294255
     10          8           0       -4.307600   -3.180204    0.135481
     11          1           0       -4.210879   -4.154119   -0.068557
     12          6           0       -2.762842   -1.152899    0.194308
     13          8           0       -1.405063   -0.942340   -0.219231
     14          6           0       -0.962121    0.317973    0.303325
     15          8           0        0.262695    0.593538   -0.392789
     16          6           0        1.536169    0.245886    0.167894
     17          6           0        2.018012   -1.131172   -0.258941
     18          8           0        1.013099   -2.064874    0.162885
     19          1           0        0.101455   -1.680601    0.020751
     20          6           0        3.423899   -1.573040    0.112894
     21          8           0        3.863121   -2.835115   -0.409085
     22          1           0        4.820392   -2.956187   -0.145471
     23          6           0        2.364601    2.651350    0.042444
     24          8           0        1.197296    3.374494   -0.374519
     25          1           0        1.311190    4.313188   -0.048417
     26          6           0        2.634194    1.193001   -0.289376
     27          8           0        3.945285    0.852204    0.183040
     28          6           0        4.425115   -0.459153   -0.146265
     29          8           0        5.586754   -0.591311    0.685497
     30          1           0        6.366932   -0.681994    0.133503
     31          1           0        4.720815   -0.480651   -1.174370
     32          1           0        3.407153   -1.699942    1.175210
     33          1           0        1.991215   -1.130113   -1.328605
     34          1           0        1.468440    0.277694    1.235274
     35          1           0        2.667196    1.123869   -1.356631
     36          1           0        3.203784    3.201125   -0.329603
     37          1           0        2.394130    2.723995    1.109566
     38          1           0       -5.686316   -0.568942   -0.214217
     39          1           0       -2.281845   -3.191867    0.000449
     40          1           0       -3.105690   -2.524533   -1.363705
     41          1           0       -2.753335   -1.195354    1.263423
     42          1           0       -3.913470   -0.095288   -1.239967
     43          1           0       -3.385626    1.374650    1.297279
     44          1           0       -1.785905    1.535270   -1.203234
     45          1           0       -0.823355    0.293438    1.364005
 ---------------------------------------------------------------------

 SCF Done:  E(RB3LYP) =  -1297.98046766     A.U. after   13 cycles

 The electronic state is 1-A.
 Alpha  occ. eigenvalues --  -19.19405 -19.18412 -19.18148 -19.18060 -19.17911
 Alpha  occ. eigenvalues --  -19.16806 -19.16604 -19.16207 -19.15766 -19.13374
 Alpha  occ. eigenvalues --  -19.12811 -10.30863 -10.30836 -10.26000 -10.25672
 Alpha  occ. eigenvalues --  -10.25426 -10.25147 -10.24932 -10.24881 -10.24399
 Alpha  occ. eigenvalues --  -10.24189 -10.24028 -10.23974  -1.10510  -1.09114
 Alpha  occ. eigenvalues --   -1.05366  -1.05040  -1.04251  -1.03451  -1.02848
 Alpha  occ. eigenvalues --   -1.02645  -1.02341  -1.00281  -0.99671  -0.82277
 Alpha  occ. eigenvalues --   -0.80632  -0.79243  -0.78213  -0.72012  -0.69904
 Alpha  occ. eigenvalues --   -0.67635  -0.64957  -0.63139  -0.62624  -0.61055
 Alpha  occ. eigenvalues --   -0.59879  -0.56398  -0.55745  -0.55229  -0.54769
 Alpha  occ. eigenvalues --   -0.54089  -0.53668  -0.52530  -0.51728  -0.51228
 Alpha  occ. eigenvalues --   -0.50739  -0.50229  -0.49598  -0.48561  -0.46878
 Alpha  occ. eigenvalues --   -0.45990  -0.44823  -0.44302  -0.43928  -0.43399
 Alpha  occ. eigenvalues --   -0.42433  -0.41748  -0.41377  -0.40386  -0.39968
 Alpha  occ. eigenvalues --   -0.38769  -0.38112  -0.37004  -0.36333  -0.36113
 Alpha  occ. eigenvalues --   -0.35332  -0.34776  -0.34532  -0.33182  -0.32867
 Alpha  occ. eigenvalues --   -0.32597  -0.31212  -0.30711  -0.30231  -0.29881
 Alpha  occ. eigenvalues --   -0.29689  -0.28716  -0.27981  -0.27554  -0.27109
 Alpha  occ. eigenvalues --   -0.25853
 Alpha virt. eigenvalues --   -0.02054  -0.01929  -0.01611   0.00025   0.00426
 Alpha virt. eigenvalues --    0.01051   0.02013   0.02128   0.03065   0.03287
 Alpha virt. eigenvalues --    0.03541   0.04368   0.04697   0.05303   0.05838

 Mulliken atomic charges:
              1
     1  O   -0.529393
     2  C    0.033285
     3  C    0.044474
     4  O   -0.531074
     5  H    0.337767
     6  C    0.034909
     7  O   -0.561984
     8  H    0.392433
     9  C   -0.193861
    10  O   -0.530805
    11  H    0.338495
    12  C    0.152775
    13  O   -0.236760
    14  C    0.032440
    15  O   -0.213530
    16  C    0.094761
    17  C    0.363145
    18  O   -0.615716
    19  H    0.416336
    20  C    0.037994
    21  O   -0.539718
    22  H    0.333407
    23  C   -0.276113
    24  O   -0.552316
    25  H    0.351811
    26  C   -0.053012
    27  O   -0.238459
    28  C    0.106019
    29  O   -0.509259
    30  H    0.332206
    31  H    0.125361
    32  H    0.133190
    33  H    0.114023
    34  H    0.118048
    35  H    0.117403
    36  H    0.145956
    37  H    0.151422
    38  H    0.340627
    39  H    0.149030
    40  H    0.140209
    41  H    0.116602
    42  H    0.122679
    43  H    0.128404
    44  H    0.132773
    45  H    0.144015
 Sum of Mulliken atomic charges =   0.00000

 Dipole moment (field-independent basis, Debye):
    X=              2.0054    Y=              0.4884    Z=             -1.6361  Tot=              2.6338
 Quadrupole moment (field-independent basis, Debye-Ang):
   XX=           -114.9050   YY=           -135.4509   ZZ=           -140.1104
   XY=             12.5201   XZ=             -1.5495   YZ=              3.9137

  Exact polarizability: 237.258  -2.615 197.760  -0.706   1.360 143.872
 Approx polarizability: 277.260  -2.570 256.767  -1.851   1.400 239.053

 ******    7 imaginary frequencies (negative Signs) ******

                     1                      2                      3
                     A                      A                      A
 Frequencies --  -315.5216              -281.4406              -230.8159
 Red. masses --     1.7333                 1.7004                 1.1924
 Frc consts  --     0.1017                 0.0794                 0.0374
 IR Inten    --     2.5898                16.3104                91.8533
 Raman Activ --     0.0271                 0.1027                 0.6777

                     4                      5                      6
                     A                      A                      A
 Frequencies --  -191.5303               -76.4589               -41.4050
 Red. masses --     1.2416                 6.9351                 6.0101
 Frc consts  --     0.0268                 0.0239                 0.0061
 IR Inten    --    96.7108                 1.5911                 0.3385
 Raman Activ --     0.8453                 0.0128                 0.0222

                     7                      8                      9
                     A                      A                      A
 Frequencies --   -16.0523                40.0674                57.6641
 Red. masses --     6.2310                 6.6639                 6.4897
 Frc consts  --     0.0009                 0.0063                 0.0127
 IR Inten    --     1.1639                 0.1560                 2.2376
 Raman Activ --     0.0338                 0.0248                 0.0669

                    10                     11                     12
                     A                      A                      A
 Frequencies --    77.5496                87.7907               101.9602
 Red. masses --     6.3751                 6.1625                 6.1662
 Frc consts  --     0.0226                 0.0280                 0.0378
 IR Inten    --     1.8984                 1.0584                 4.2635
 Raman Activ --     0.2205                 0.2193                 0.0919

                    13                     14                     15
                     A                      A                      A
 Frequencies --   153.7914               172.5827               184.4196
 Red. masses --     5.6445                 6.2321                 7.8231
 Frc consts  --     0.0787                 0.1094                 0.1568
 IR Inten    --     2.8929                 1.4849                 0.1507
 Raman Activ --     0.1341                 0.3368                 1.2138

                    16                     17                     18
                     A                      A                      A
 Frequencies --   199.5116               231.4088               253.6270
 Red. masses --     6.7598                 5.8983                 5.0785
 Frc consts  --     0.1585                 0.1861                 0.1925
 IR Inten    --     0.4115                 0.9598                10.4452
 Raman Activ --     2.1777                 0.3754                 0.2947

                    19                     20                     21
                     A                      A                      A
 Frequencies --   270.5687               279.4726               299.4806
 Red. masses --     4.9738                 4.4166                 5.0958
 Frc consts  --     0.2145                 0.2032                 0.2693
 IR Inten    --     2.6725                 5.0362                 4.3231
 Raman Activ --     0.0515                 0.2488                 0.3848

                    22                     23                     24
                     A                      A                      A
 Frequencies --   311.2535               311.9641               324.3022
 Red. masses --     4.9649                 6.5405                 5.3227
 Frc consts  --     0.2834                 0.3750                 0.3298
 IR Inten    --     8.9854                 7.0974                 2.7022
 Raman Activ --     0.4417                 5.3156                 2.1354

                    25                     26                     27
                     A                      A                      A
 Frequencies --   331.0353               358.5524               374.9806
 Red. masses --     6.4162                 5.2721                 4.8806
 Frc consts  --     0.4143                 0.3993                 0.4043
 IR Inten    --     7.8902                 6.1050                 0.8034
 Raman Activ --     4.3921                 0.1366                 0.2574

                    28                     29                     30
                     A                      A                      A
 Frequencies --   403.2393               413.8488               433.6611
 Red. masses --     5.1970                 5.4321                 4.3354
 Frc consts  --     0.4979                 0.5481                 0.4804
 IR Inten    --    18.6722                 3.6506                 2.0848
 Raman Activ --     2.5015                 6.5033                 0.8202

                    31                     32                     33
                     A                      A                      A
 Frequencies --   441.3317               471.9936               475.2555
 Red. masses --     6.2447                 3.6826                 4.5668
 Frc consts  --     0.7166                 0.4834                 0.6077
 IR Inten    --     2.8701                 7.2701                 3.9853
 Raman Activ --     1.9718                 1.5784                 3.1394

                    34                     35                     36
                     A                      A                      A
 Frequencies --   505.4548               513.2719               558.3902
 Red. masses --     4.2163                 3.4029                 3.5414
 Frc consts  --     0.6347                 0.5282                 0.6506
 IR Inten    --     1.7600                13.2890                 6.5109
 Raman Activ --     4.0530                 2.3589                 2.3381

                    37                     38                     39
                     A                      A                      A
 Frequencies --   577.7842               590.8621               604.1723
 Red. masses --     3.0673                 6.3945                 5.6508
 Frc consts  --     0.6033                 1.3153                 1.2153
 IR Inten    --    52.0901                 6.7002                11.1778
 Raman Activ --     0.9729                 1.2066                 0.3384

                    40                     41                     42
                     A                      A                      A
 Frequencies --   630.0546               678.8883               696.6134
 Red. masses --     3.9448                 5.6382                 1.0675
 Frc consts  --     0.9226                 1.5310                 0.3052
 IR Inten    --    61.8677                10.7606               131.3917
 Raman Activ --     1.4346                 2.5020                 1.4949

                    43                     44                     45
                     A                      A                      A
 Frequencies --   707.2305               713.7036               723.8779
 Red. masses --     1.0650                 1.0698                 1.0961
 Frc consts  --     0.3138                 0.3211                 0.3384
 IR Inten    --    93.2056               109.0505               122.6797
 Raman Activ --     1.9291                 1.8954                 2.2150

                    46                     47                     48
                     A                      A                      A
 Frequencies --   754.8536               817.3746               851.8905
 Red. masses --     1.1190                 1.0727                 1.7660
 Frc consts  --     0.3757                 0.4222                 0.7551
 IR Inten    --    92.4087                56.2310                 6.7850
 Raman Activ --     1.5482                 0.5251                 0.9779

                    49                     50                     51
                     A                      A                      A
 Frequencies --   862.2322               916.1768               947.2039
 Red. masses --     1.6987                 6.0368                 6.5184
 Frc consts  --     0.7441                 2.9855                 3.4457
 IR Inten    --     6.0816               115.1381                67.5175
 Raman Activ --     0.6432                 2.2554                 0.8775

                    52                     53                     54
                     A                      A                      A
 Frequencies --   972.2716               980.6073               986.9421
 Red. masses --     5.9380                 8.5642                 4.9322
 Frc consts  --     3.3072                 4.8521                 2.8306
 IR Inten    --    90.4439               212.2828                29.0565
 Raman Activ --     3.2939                 0.6816                 1.3662

                    55                     56                     57
                     A                      A                      A
 Frequencies --  1005.8038              1009.9752              1019.1977
 Red. masses --     6.2752                 6.7546                 5.9569
 Frc consts  --     3.7403                 4.0595                 3.6458
 IR Inten    --   322.5595                 7.6279               154.3832
 Raman Activ --     2.1757                 1.6160                 2.6913

                    58                     59                     60
                     A                      A                      A
 Frequencies --  1031.0629              1049.5084              1064.1654
 Red. masses --     5.2130                 5.0706                 6.0911
 Frc consts  --     3.2652                 3.2907                 4.0641
 IR Inten    --   392.4197               116.1312                30.1991
 Raman Activ --     2.6142                 6.6486                 2.4122

                    61                     62                     63
                     A                      A                      A
 Frequencies --  1065.6525              1068.5998              1078.5302
 Red. masses --     4.0113                 5.8843                 4.0551
 Frc consts  --     2.6839                 3.9589                 2.7792
 IR Inten    --    28.3989                69.6962                46.0329
 Raman Activ --     4.5359                 1.9103                18.4173

                    64                     65                     66
                     A                      A                      A
 Frequencies --  1097.1798              1109.5253              1111.8133
 Red. masses --     2.3684                 3.3974                 3.9636
 Frc consts  --     1.6798                 2.4642                 2.8867
 IR Inten    --    10.0225                11.0023                24.8716
 Raman Activ --     8.2319                 4.4813                 3.9948

                    67                     68                     69
                     A                      A                      A
 Frequencies --  1126.1874              1129.6654              1134.0296
 Red. masses --     3.0314                 2.4314                 3.1842
 Frc consts  --     2.2652                 1.8281                 2.4127
 IR Inten    --     5.2078                81.6090                 7.2966
 Raman Activ --     9.0301                 0.3015                13.0047

                    70                     71                     72
                     A                      A                      A
 Frequencies --  1150.0421              1156.8403              1164.0028
 Red. masses --     2.2470                 1.7101                 2.0156
 Frc consts  --     1.7510                 1.3484                 1.6090
 IR Inten    --    59.6271                 8.5695                16.3442
 Raman Activ --     3.6678                 1.7260                 3.4701

                    73                     74                     75
                     A                      A                      A
 Frequencies --  1165.4890              1182.0034              1189.8056
 Red. masses --     1.8037                 1.6475                 1.7679
 Frc consts  --     1.4436                 1.3561                 1.4746
 IR Inten    --     1.7437                 3.8364                17.7265
 Raman Activ --     4.1281                 1.8807                 1.2154

                    76                     77                     78
                     A                      A                      A
 Frequencies --  1209.0070              1211.9492              1229.3972
 Red. masses --     1.2410                 1.4034                 1.2970
 Frc consts  --     1.0687                 1.2145                 1.1550
 IR Inten    --    10.1642                 6.6040                 3.2777
 Raman Activ --     0.6628                 2.3186                 2.2991

                    79                     80                     81
                     A                      A                      A
 Frequencies --  1238.5501              1253.6245              1262.7135
 Red. masses --     1.1756                 1.2284                 1.1708
 Frc consts  --     1.0625                 1.1375                 1.0999
 IR Inten    --    11.0217                 9.8879                12.1222
 Raman Activ --     0.7281                 1.8806                 0.9759

                    82                     83                     84
                     A                      A                      A
 Frequencies --  1275.8460              1291.6945              1296.6388
 Red. masses --     1.2399                 1.3482                 1.2894
 Frc consts  --     1.1891                 1.3253                 1.2772
 IR Inten    --    20.0115                 5.1560                13.4276
 Raman Activ --     0.3238                 1.8429                 3.8587

                    85                     86                     87
                     A                      A                      A
 Frequencies --  1302.3330              1306.2675              1311.6833
 Red. masses --     1.3328                 1.2467                 1.3098
 Frc consts  --     1.3319                 1.2534                 1.3278
 IR Inten    --    12.9907                12.9022                12.2393
 Raman Activ --     0.4860                 1.0480                 1.7231

                    88                     89                     90
                     A                      A                      A
 Frequencies --  1323.4772              1324.3637              1332.0761
 Red. masses --     1.2426                 1.2210                 1.3904
 Frc consts  --     1.2824                 1.2617                 1.4536
 IR Inten    --    10.1547                 2.8169                25.1680
 Raman Activ --    14.1025                 7.2823                 3.7851

                    91                     92                     93
                     A                      A                      A
 Frequencies --  1343.0567              1346.9098              1350.1416
 Red. masses --     1.2024                 1.1520                 1.2640
 Frc consts  --     1.2778                 1.2314                 1.3575
 IR Inten    --    48.9257                17.6426                13.9909
 Raman Activ --     2.0690                 4.0724                 3.8858

                    94                     95                     96
                     A                      A                      A
 Frequencies --  1361.0317              1366.5484              1376.7897
 Red. masses --     1.3990                 1.1828                 1.5291
 Frc consts  --     1.5269                 1.3014                 1.7077
 IR Inten    --    38.0027                19.3260                22.6227
 Raman Activ --    10.0830                 3.7097                 4.8473

                    97                     98                     99
                     A                      A                      A
 Frequencies --  1383.7195              1397.0086              1399.4926
 Red. masses --     1.3962                 1.4747                 1.5933
 Frc consts  --     1.5751                 1.6958                 1.8387
 IR Inten    --     4.7632                 3.8352                 2.7473
 Raman Activ --     4.3874                 5.7076                 4.1851

                   100                    101                    102
                     A                      A                      A
 Frequencies --  1436.6685              1440.8727              1472.3425
 Red. masses --     1.2698                 1.4205                 1.1027
 Frc consts  --     1.5442                 1.7376                 1.4084
 IR Inten    --    20.2499                40.3629                 7.9224
 Raman Activ --     1.4618                 1.1894                 5.2283

                   103                    104                    105
                     A                      A                      A
 Frequencies --  1477.6953              1479.5150              1490.1132
 Red. masses --     1.0829                 1.3244                 1.3476
 Frc consts  --     1.3931                 1.7081                 1.7630
 IR Inten    --     1.9939                33.6094                34.5938
 Raman Activ --     4.4966                 0.9478                 0.7354

                   106                    107                    108
                     A                      A                      A
 Frequencies --  1492.4173              1504.0344              3252.8050
 Red. masses --     1.2832                 1.3148                 1.0761
 Frc consts  --     1.6839                 1.7524                 6.7083
 IR Inten    --    34.5694                38.6469                28.9111
 Raman Activ --     3.8050                 1.3574                12.8467

                   109                    110                    111
                     A                      A                      A
 Frequencies --  3255.1905              3256.9239              3263.5589
 Red. masses --     1.0587                 1.0623                 1.0790
 Frc consts  --     6.6098                 6.6394                 6.7713
 IR Inten    --    16.7227               130.1616                28.4362
 Raman Activ --    71.5062               193.6526                98.1041

                   112                    113                    114
                     A                      A                      A
 Frequencies --  3267.1477              3270.5711              3275.0531
 Red. masses --     1.0798                 1.0824                 1.0823
 Frc consts  --     6.7907                 6.8219                 6.8396
 IR Inten    --    74.4608                 1.1836                 4.9324
 Raman Activ --    98.7405                54.6665               136.9689

                   115                    116                    117
                     A                      A                      A
 Frequencies --  3281.9206              3283.8638              3285.4561
 Red. masses --     1.0744                 1.0851                 1.0834
 Frc consts  --     6.8179                 6.8942                 6.8899
 IR Inten    --   460.8827                12.2036                42.8280
 Raman Activ --   140.5314                23.2566                68.7385

                   118                    119                    120
                     A                      A                      A
 Frequencies --  3292.5961              3294.9167              3305.3793
 Red. masses --     1.0870                 1.0857                 1.0908
 Frc consts  --     6.9429                 6.9444                 7.0215
 IR Inten    --    83.4694                14.9568                 9.2050
 Raman Activ --    13.5982                87.8518                68.5916

                   121                    122                    123
                     A                      A                      A
 Frequencies --  3306.9740              3310.1774              3310.9329
 Red. masses --     1.0974                 1.0774                 1.0981
 Frc consts  --     7.0712                 6.9553                 7.0926
 IR Inten    --   100.4171               709.0885               217.2186
 Raman Activ --    62.0645                84.0288                33.4159

                   124                    125                    126
                     A                      A                      A
 Frequencies --  3360.9795              3365.7593              3365.9741
 Red. masses --     1.0649                 1.0661                 1.0661
 Frc consts  --     7.0876                 7.1157                 7.1164
 IR Inten    --    32.0785                88.0827                13.6035
 Raman Activ --    98.8003                60.8037               189.8111

                   127                    128                    129
                     A                      A                      A
 Frequencies --  3371.1595              3890.5068              3890.6173
 Red. masses --     1.0670                 1.0675                 1.0675
 Frc consts  --     7.1448                 9.5202                 9.5208
 IR Inten    --    41.4304               131.9469                20.3593
 Raman Activ --   160.1480                26.4915               187.8604

 - Thermochemistry -
 -------------------
 Temperature   298.150 Kelvin.  Pressure   1.00000 Atm.
 Atom     1 has atomic number  8 and mass  15.99491

 Molecular mass:   342.11621 amu.
 Principal axes and moments of inertia in atomic units:
                           1         2         3
     Eigenvalues --  4411.42931********************
           X            0.99998   0.00698  -0.00035
           Y           -0.00698   0.99997   0.00332
           Z            0.00037  -0.00332   0.99999
 This molecule is an asymmetric top.
 Rotational symmetry number  1.
 Warning -- assumption of classical behavior for rotation
           may cause significant error
 Rotational temperatures (Kelvin)      0.01963     0.00686     0.00519
 Rotational constants (GHZ):           0.40911     0.14289     0.10819
    7 imaginary frequencies ignored.
 Zero-point vibrational energy     973800.3 (Joules/Mol)
                                  232.74385 (Kcal/Mol)
 Warning -- explicit consideration of  32 degrees of freedom as
           vibrations may cause significant error
 Vibrational temperatures:     57.65    82.97   111.58   126.31   146.70
          (Kelvin)            221.27   248.31   265.34   287.05   332.95
                              364.91   389.29   402.10   430.89   447.82
                              448.85   466.60   476.29   515.88   539.51
                              580.17   595.44   623.94   634.98   679.09
                              683.79   727.24   738.48   803.40   831.30
                              850.12   869.27   906.51   976.77  1002.27
                             1017.55  1026.86  1041.50  1086.06  1176.02
                             1225.68  1240.56  1318.17  1362.81  1398.88
                             1410.87  1419.99  1447.13  1453.13  1466.40
                             1483.47  1510.01  1531.09  1533.23  1537.47
                             1551.76  1578.60  1596.36  1599.65  1620.33
                             1625.33  1631.61  1654.65  1664.43  1674.74
                             1676.88  1700.64  1711.86  1739.49  1743.72
                             1768.83  1782.00  1803.68  1816.76  1835.66
                             1858.46  1865.57  1873.76  1879.43  1887.22
                             1904.19  1905.46  1916.56  1932.36  1937.90
                             1942.55  1958.22  1966.16  1980.89  1990.86
                             2009.98  2013.56  2067.04  2073.09  2118.37
                             2126.07  2128.69  2143.94  2147.25  2163.97
                             4680.05  4683.49  4685.98  4695.53  4700.69
                             4705.62  4712.07  4721.95  4724.74  4727.03
                             4737.31  4740.64  4755.70  4757.99  4762.60
                             4763.69  4835.69  4842.57  4842.88  4850.34
                             5597.56  5597.72

 Zero-point correction=                           0.370901 (Hartree/Particle)
 Thermal correction to Energy=                    0.389461
 Thermal correction to Enthalpy=                  0.390405
 Thermal correction to Gibbs Free Energy=         0.324858
 Sum of electronic and zero-point Energies=          -1297.609567
 Sum of electronic and thermal Energies=             -1297.591007
 Sum of electronic and thermal Enthalpies=           -1297.590063
 Sum of electronic and thermal Free Energies=        -1297.655609

                     E (Thermal)             CV                S
                      KCal/Mol        Cal/Mol-Kelvin    Cal/Mol-Kelvin
 Total                  244.390             76.318            137.954
 Electronic               0.000              0.000              0.000
 Translational            0.889              2.981             43.384
 Rotational               0.889              2.981             35.184
 Vibrational            242.613             70.357             59.385
 Vibration     1          0.594              1.981              5.256
 Vibration     2          0.596              1.974              4.536
 Vibration     3          0.599              1.964              3.952
 Vibration     4          0.601              1.958              3.709
 Vibration     5          0.604              1.948              3.417
 Vibration     6          0.619              1.898              2.625
 Vibration     7          0.626              1.876              2.407
 Vibration     8          0.631              1.861              2.283
 Vibration     9          0.638              1.841              2.138
 Vibration    10          0.653              1.793              1.868
 Vibration    11          0.665              1.757              1.705
 Vibration    12          0.674              1.727              1.593
 Vibration    13          0.680              1.712              1.537
 Vibration    14          0.692              1.675              1.420
 Vibration    15          0.700              1.652              1.356
 Vibration    16          0.700              1.651              1.352
 Vibration    17          0.709              1.627              1.288
 Vibration    18          0.713              1.614              1.255
 Vibration    19          0.733              1.558              1.128
 Vibration    20          0.746              1.523              1.059
 Vibration    21          0.769              1.463              0.951
 Vibration    22          0.777              1.440              0.913
 Vibration    23          0.794              1.397              0.847
 Vibration    24          0.801              1.380              0.822
 Vibration    25          0.829              1.312              0.732
 Vibration    26          0.832              1.305              0.723
 Vibration    27          0.861              1.238              0.645
 Vibration    28          0.868              1.221              0.626
 Vibration    29          0.914              1.121              0.527
 Vibration    30          0.934              1.079              0.489
 Vibration    31          0.948              1.051              0.466
 Vibration    32          0.963              1.023              0.443

 Normal termination of Gaussian 09 at Tue Mar 29 20:51:15 2016.
