 Gaussian 09, Revision B.01,
 Gaussian 09:  EM64L-G09RevB.01 12-Aug-2010

 ------------------------------------------------
 # freq=raman b3lyp/6-31+g(d,p) geom=connectivity
 ------------------------------------------------

 ------------
 320 7000.com
 ------------
 Symbolic Z-matrix:
 Charge =  0 Multiplicity = 1

                         Standard orientation:
 ---------------------------------------------------------------------
 Center     Atomic      Atomic             Coordinates (Angstroms)
 Number     Number       Type             X           Y           Z
 ---------------------------------------------------------------------
      1          8           0       -5.051993   -0.250218    0.394306
      2          6           0       -3.736005   -0.074612   -0.150651
      3          6           0       -3.258870    1.309673    0.257151
      4          8           0       -4.285664    2.228144   -0.147339
      5          1           0       -5.090736    1.861244    0.318183
      6          6           0       -1.815702    1.537467   -0.160040
      7          8           0       -1.264765    2.689353    0.495110
      8          1           0       -0.607977    3.146843   -0.103375
      9          6           0       -3.057013   -2.538624   -0.152107
     10          8           0       -4.328562   -3.173908    0.045130
     11          1           0       -4.352034   -4.139664   -0.211752
     12          6           0       -2.806149   -1.143739    0.399326
     13          8           0       -1.453529   -0.954532   -0.041428
     14          6           0       -0.911340    0.358381    0.158016
     15          8           0        0.258408    0.462248   -0.668069
     16          6           0        1.519150    0.245111   -0.018779
     17          6           0        2.059581   -1.137511   -0.347986
     18          8           0        1.013856   -2.113021   -0.230509
     19          1           0        0.131243   -1.659359   -0.355170
     20          6           0        3.385064   -1.537308    0.279756
     21          8           0        3.921054   -2.695474   -0.377389
     22          1           0        4.766779   -3.055991    0.017270
     23          6           0        2.363499    2.543900   -0.055989
     24          8           0        1.298203    3.443957   -0.392497
     25          1           0        1.520546    4.392621   -0.167224
     26          6           0        2.682093    1.115412   -0.467332
     27          8           0        3.900149    0.896222    0.258871
     28          6           0        4.383596   -0.428037   -0.006559
     29          8           0        5.439573   -0.653049    0.939548
     30          1           0        6.254343   -0.845790    0.469867
     31          1           0       -5.677936   -0.390853   -0.319850
     32          1           0        4.754214   -0.502040   -1.007591
     33          1           0        3.282246   -1.702042    1.331988
     34          1           0        2.270465   -1.096602   -1.396201
     35          1           0        1.394412    0.335767    1.040052
     36          1           0        2.840163    1.044067   -1.523185
     37          1           0        3.246130    3.086343   -0.323606
     38          1           0        2.325692    2.496379    1.012286
     39          1           0       -2.313723   -3.182825    0.269113
     40          1           0       -2.885807   -2.496209   -1.207469
     41          1           0       -2.847082   -1.156608    1.468465
     42          1           0       -3.774796   -0.143527   -1.217724
     43          1           0       -3.257475    1.324064    1.327054
     44          1           0       -1.792689    1.705692   -1.216483
     45          1           0       -0.607243    0.440030    1.180640
 ---------------------------------------------------------------------

 SCF Done:  E(RB3LYP) =  -1297.91460754     A.U. after   13 cycles

 The electronic state is 1-A.
 Alpha  occ. eigenvalues --  -19.19809 -19.19738 -19.19721 -19.18730 -19.18483
 Alpha  occ. eigenvalues --  -19.18001 -19.17114 -19.16495 -19.15911 -19.15330
 Alpha  occ. eigenvalues --  -19.13335 -10.31400 -10.31014 -10.26956 -10.26341
 Alpha  occ. eigenvalues --  -10.26079 -10.25552 -10.25500 -10.25479 -10.24627
 Alpha  occ. eigenvalues --  -10.24596 -10.24170 -10.23815  -1.10408  -1.09613
 Alpha  occ. eigenvalues --   -1.05944  -1.04901  -1.04242  -1.03763  -1.02653
 Alpha  occ. eigenvalues --   -1.02183  -1.01915  -1.00879  -0.99563  -0.82802
 Alpha  occ. eigenvalues --   -0.80707  -0.79442  -0.78871  -0.71822  -0.69985
 Alpha  occ. eigenvalues --   -0.67425  -0.65179  -0.63294  -0.62990  -0.61479
 Alpha  occ. eigenvalues --   -0.60218  -0.56750  -0.55655  -0.55298  -0.54956
 Alpha  occ. eigenvalues --   -0.54520  -0.53645  -0.52722  -0.51768  -0.51447
 Alpha  occ. eigenvalues --   -0.50635  -0.50068  -0.49468  -0.48763  -0.46500
 Alpha  occ. eigenvalues --   -0.46361  -0.44922  -0.44295  -0.43898  -0.43098
 Alpha  occ. eigenvalues --   -0.42512  -0.42062  -0.41906  -0.40534  -0.39626
 Alpha  occ. eigenvalues --   -0.39274  -0.38098  -0.36540  -0.36229  -0.35550
 Alpha  occ. eigenvalues --   -0.35201  -0.34809  -0.34174  -0.33291  -0.33018
 Alpha  occ. eigenvalues --   -0.32819  -0.31495  -0.31202  -0.30014  -0.29734
 Alpha  occ. eigenvalues --   -0.29359  -0.28495  -0.28386  -0.27847  -0.27303
 Alpha  occ. eigenvalues --   -0.25622
 Alpha virt. eigenvalues --   -0.02158  -0.01996  -0.01577   0.00098   0.00353
 Alpha virt. eigenvalues --    0.01051   0.01939   0.02217   0.02950   0.03578
 Alpha virt. eigenvalues --    0.03675   0.04141   0.04821   0.05259   0.06006

 Mulliken atomic charges:
              1
     1  O   -0.565430
     2  C   -0.036416
     3  C   -0.027944
     4  O   -0.498861
     5  H    0.368586
     6  C   -0.034153
     7  O   -0.495107
     8  H    0.406187
     9  C   -0.017194
    10  O   -0.586842
    11  H    0.365656
    12  C    0.145199
    13  O   -0.402036
    14  C    0.312970
    15  O   -0.320331
    16  C   -0.294104
    17  C    0.127492
    18  O   -0.561998
    19  H    0.437567
    20  C    0.213893
    21  O   -0.530187
    22  H    0.355636
    23  C   -0.239167
    24  O   -0.628398
    25  H    0.378172
    26  C    0.164652
    27  O   -0.283498
    28  C    0.128504
    29  O   -0.567208
    30  H    0.362405
    31  H    0.378915
    32  H    0.144414
    33  H    0.153463
    34  H    0.124485
    35  H    0.128082
    36  H    0.147705
    37  H    0.129301
    38  H    0.145192
    39  H    0.145193
    40  H    0.137447
    41  H    0.140673
    42  H    0.136915
    43  H    0.136243
    44  H    0.149292
    45  H    0.124638
 Sum of Mulliken atomic charges =   0.00000

 Dipole moment (field-independent basis, Debye):
    X=              2.7259    Y=             -0.0772    Z=             -1.6075  Tot=              3.1656
 Quadrupole moment (field-independent basis, Debye-Ang):
   XX=           -115.4120   YY=           -135.0119   ZZ=           -140.4552
   XY=             11.8224   XZ=              1.0949   YZ=             -0.9158

  Exact polarizability: 229.475  -2.556 192.581   0.619   0.660 140.304
 Approx polarizability: 266.428  -2.551 246.822  -0.279   1.199 228.936

 ******    7 imaginary frequencies (negative Signs) ******

                     1                      2                      3
                     A                      A                      A
 Frequencies --  -355.0632              -285.7504              -279.6859
 Red. masses --     1.6907                 1.1663                 1.6159
 Frc consts  --     0.1256                 0.0561                 0.0745
 IR Inten    --     3.9391               121.9758                50.2536
 Raman Activ --     0.0095                 1.4865                 0.1284

                     4                      5                      6
                     A                      A                      A
 Frequencies --  -249.5112               -81.1817               -54.1381
 Red. masses --     1.2550                 6.8853                 7.1124
 Frc consts  --     0.0460                 0.0267                 0.0123
 IR Inten    --    90.7577                 1.6377                 0.0287
 Raman Activ --     0.6488                 0.0695                 0.0216

                     7                      8                      9
                     A                      A                      A
 Frequencies --   -45.3927                27.2568                48.6532
 Red. masses --     6.5992                 6.1876                 6.7520
 Frc consts  --     0.0080                 0.0027                 0.0094
 IR Inten    --     0.5745                 1.9050                 0.4832
 Raman Activ --     0.0341                 0.0701                 0.0593

                    10                     11                     12
                     A                      A                      A
 Frequencies --    70.9094               106.3752               114.8827
 Red. masses --     5.7560                 6.0103                 6.2627
 Frc consts  --     0.0171                 0.0401                 0.0487
 IR Inten    --     4.6153                 4.7466                 1.4811
 Raman Activ --     0.2508                 0.0836                 0.0363

                    13                     14                     15
                     A                      A                      A
 Frequencies --   151.9454               172.4283               184.7437
 Red. masses --     6.5919                 7.1213                 6.5786
 Frc consts  --     0.0897                 0.1247                 0.1323
 IR Inten    --     2.2271                 0.1825                 0.9283
 Raman Activ --     0.4112                 0.6050                 1.3027

                    16                     17                     18
                     A                      A                      A
 Frequencies --   197.5515               227.3733               253.0475
 Red. masses --     6.2567                 6.1937                 4.2365
 Frc consts  --     0.1439                 0.1887                 0.1598
 IR Inten    --     3.9287                 3.3180                12.6393
 Raman Activ --     0.6824                 0.7164                 0.4727

                    19                     20                     21
                     A                      A                      A
 Frequencies --   279.6644               294.7126               317.6656
 Red. masses --     5.8954                 5.6778                 6.1892
 Frc consts  --     0.2717                 0.2906                 0.3680
 IR Inten    --     2.1486                 2.1500                 5.2023
 Raman Activ --     0.4580                 0.9580                 3.1602

                    22                     23                     24
                     A                      A                      A
 Frequencies --   324.1781               330.0092               337.6186
 Red. masses --     5.4220                 5.8719                 5.3217
 Frc consts  --     0.3357                 0.3768                 0.3574
 IR Inten    --     4.3223                 9.8975                 2.7804
 Raman Activ --     0.6403                 1.7041                 4.6236

                    25                     26                     27
                     A                      A                      A
 Frequencies --   342.3668               368.2232               383.2985
 Red. masses --     6.0083                 5.1862                 7.3798
 Frc consts  --     0.4149                 0.4143                 0.6388
 IR Inten    --    12.7362                 7.3156                 0.2732
 Raman Activ --     1.0697                 0.1349                 2.6006

                    28                     29                     30
                     A                      A                      A
 Frequencies --   403.8665               414.9936               440.4674
 Red. masses --     4.3912                 5.6542                 5.7309
 Frc consts  --     0.4220                 0.5737                 0.6551
 IR Inten    --    22.2391                 2.9056                 1.4215
 Raman Activ --     1.7630                 4.3925                 2.4592

                    31                     32                     33
                     A                      A                      A
 Frequencies --   444.6551               481.8058               493.9721
 Red. masses --     5.2947                 4.4316                 3.8157
 Frc consts  --     0.6168                 0.6061                 0.5486
 IR Inten    --     1.7241                 3.3982                13.1819
 Raman Activ --     1.2870                 1.7558                 2.2788

                    34                     35                     36
                     A                      A                      A
 Frequencies --   518.1798               531.6114               568.4332
 Red. masses --     3.5711                 3.5704                 3.3031
 Frc consts  --     0.5650                 0.5945                 0.6288
 IR Inten    --    11.0685                14.4392                22.7239
 Raman Activ --     5.4985                 3.3798                 1.1548

                    37                     38                     39
                     A                      A                      A
 Frequencies --   591.3536               599.3219               617.9198
 Red. masses --     3.3941                 5.7429                 4.8138
 Frc consts  --     0.6993                 1.2153                 1.0829
 IR Inten    --     7.9834                25.8922                33.6979
 Raman Activ --     0.5350                 0.5833                 0.9697

                    40                     41                     42
                     A                      A                      A
 Frequencies --   631.4867               635.1853               641.5624
 Red. masses --     1.0724                 1.0668                 3.8747
 Frc consts  --     0.2520                 0.2536                 0.9397
 IR Inten    --    90.4828               145.1239                45.8053
 Raman Activ --     2.2865                 1.8447                 1.3561

                    43                     44                     45
                     A                      A                      A
 Frequencies --   672.3243               676.6304               694.1968
 Red. masses --     2.2965                 1.4034                 1.0926
 Frc consts  --     0.6116                 0.3786                 0.3102
 IR Inten    --    33.7239                90.4079               175.1315
 Raman Activ --     0.8369                 2.1588                 3.7152

                    46                     47                     48
                     A                      A                      A
 Frequencies --   731.7809               763.7467               853.4885
 Red. masses --     1.1124                 1.0928                 1.7280
 Frc consts  --     0.3510                 0.3756                 0.7416
 IR Inten    --    79.7438               100.2812                 5.0801
 Raman Activ --     2.3465                 1.6497                 1.0903

                    49                     50                     51
                     A                      A                      A
 Frequencies --   856.5208               936.2641               960.3599
 Red. masses --     1.7436                 5.2742                 4.8191
 Frc consts  --     0.7537                 2.7240                 2.6187
 IR Inten    --     1.0647                81.2648                 8.9009
 Raman Activ --     0.4815                 2.7358                 0.6668

                    52                     53                     54
                     A                      A                      A
 Frequencies --   985.0628               991.3240              1001.1480
 Red. masses --     5.7695                 5.9944                 5.0456
 Frc consts  --     3.2985                 3.4708                 2.9796
 IR Inten    --   128.4496                25.0965               122.3970
 Raman Activ --     3.4861                 1.5531                 0.6850

                    55                     56                     57
                     A                      A                      A
 Frequencies --  1005.0626              1019.6145              1029.0102
 Red. masses --     5.6469                 4.2402                 5.9945
 Frc consts  --     3.3608                 2.5972                 3.7398
 IR Inten    --   466.2905                96.6789                42.0669
 Raman Activ --     1.8625                 2.8787                 6.6742

                    58                     59                     60
                     A                      A                      A
 Frequencies --  1043.6838              1053.4602              1067.8766
 Red. masses --     4.9144                 3.1809                 3.8170
 Frc consts  --     3.1540                 2.0798                 2.5646
 IR Inten    --   317.4686                31.1339                 9.0695
 Raman Activ --     1.1015                11.3297                 2.9385

                    61                     62                     63
                     A                      A                      A
 Frequencies --  1073.9799              1078.8243              1083.7838
 Red. masses --     4.5903                 5.8467                 3.2124
 Frc consts  --     3.1195                 4.0093                 2.2231
 IR Inten    --   179.3807                47.5076                72.7399
 Raman Activ --     2.1016                 0.8139                16.3186

                    64                     65                     66
                     A                      A                      A
 Frequencies --  1097.6561              1108.7666              1111.0868
 Red. masses --     2.6407                 2.5280                 2.6686
 Frc consts  --     1.8746                 1.8311                 1.9410
 IR Inten    --    11.4436                30.9195                93.0741
 Raman Activ --    13.7400                 3.9413                 4.3186

                    67                     68                     69
                     A                      A                      A
 Frequencies --  1121.8885              1132.2611              1137.2199
 Red. masses --     2.0650                 3.8312                 1.9446
 Frc consts  --     1.5313                 2.8939                 1.4817
 IR Inten    --    36.2029                75.7754                11.2876
 Raman Activ --     8.8568                 4.6950                 3.4937

                    70                     71                     72
                     A                      A                      A
 Frequencies --  1141.7694              1143.2170              1159.9877
 Red. masses --     1.8048                 2.7423                 1.9986
 Frc consts  --     1.3862                 2.1116                 1.5845
 IR Inten    --    15.2074                17.8914                 0.4777
 Raman Activ --     2.3998                 1.7495                 2.7454

                    73                     74                     75
                     A                      A                      A
 Frequencies --  1164.6497              1174.5566              1181.3137
 Red. masses --     1.9292                 1.6577                 2.2629
 Frc consts  --     1.5418                 1.3474                 1.8605
 IR Inten    --    82.6094                31.7154                 4.8766
 Raman Activ --     4.4847                 3.3128                 2.2304

                    76                     77                     78
                     A                      A                      A
 Frequencies --  1202.4906              1207.7464              1235.4391
 Red. masses --     1.2803                 1.6748                 1.3217
 Frc consts  --     1.0907                 1.4394                 1.1886
 IR Inten    --    16.5634                23.6702                37.1842
 Raman Activ --     1.7428                 2.8480                 1.9082

                    79                     80                     81
                     A                      A                      A
 Frequencies --  1245.7568              1250.4854              1254.1740
 Red. masses --     1.4691                 1.2886                 1.3006
 Frc consts  --     1.3433                 1.1872                 1.2053
 IR Inten    --    13.4710                 9.7046                 5.9722
 Raman Activ --     2.6602                 2.3015                 2.7065

                    82                     83                     84
                     A                      A                      A
 Frequencies --  1272.7886              1278.8521              1280.8374
 Red. masses --     1.1633                 1.4254                 1.2093
 Frc consts  --     1.1103                 1.3735                 1.1689
 IR Inten    --    13.8537                41.7775                19.8069
 Raman Activ --     3.3765                 2.5198                 3.9234

                    85                     86                     87
                     A                      A                      A
 Frequencies --  1299.6658              1307.9662              1311.0384
 Red. masses --     1.2577                 1.1955                 1.4295
 Frc consts  --     1.2517                 1.2050                 1.4477
 IR Inten    --    10.1091                40.5778                10.2003
 Raman Activ --     2.0798                 6.0847                 2.5185

                    88                     89                     90
                     A                      A                      A
 Frequencies --  1314.6975              1320.2690              1326.9310
 Red. masses --     1.4130                 1.2269                 1.2949
 Frc consts  --     1.4390                 1.2601                 1.3433
 IR Inten    --    29.2624                 9.0422                21.6473
 Raman Activ --     4.2050                 3.3123                 5.1477

                    91                     92                     93
                     A                      A                      A
 Frequencies --  1340.3402              1355.3580              1360.1719
 Red. masses --     1.2846                 1.3977                 1.3356
 Frc consts  --     1.3597                 1.5128                 1.4559
 IR Inten    --     1.8226                 5.8334                 4.0646
 Raman Activ --     8.8524                10.7377                 5.6548

                    94                     95                     96
                     A                      A                      A
 Frequencies --  1370.9532              1373.0112              1377.4754
 Red. masses --     1.3110                 1.2359                 1.3946
 Frc consts  --     1.4517                 1.3727                 1.5591
 IR Inten    --     6.1838                25.5877                50.3442
 Raman Activ --     2.4149                 1.7151                 2.0787

                    97                     98                     99
                     A                      A                      A
 Frequencies --  1384.0875              1394.5185              1398.8835
 Red. masses --     1.4644                 1.4358                 1.4066
 Frc consts  --     1.6529                 1.6451                 1.6218
 IR Inten    --    36.9752                 4.5938                 4.9423
 Raman Activ --     3.0201                 5.9239                10.2440

                   100                    101                    102
                     A                      A                      A
 Frequencies --  1415.2602              1437.5280              1453.7686
 Red. masses --     1.4902                 1.4023                 1.2106
 Frc consts  --     1.7586                 1.7074                 1.5074
 IR Inten    --     2.2895                10.9480                30.4643
 Raman Activ --     6.3794                 0.3694                 1.8325

                   103                    104                    105
                     A                      A                      A
 Frequencies --  1464.5139              1475.3119              1481.0865
 Red. masses --     1.0926                 1.3049                 1.3968
 Frc consts  --     1.3806                 1.6734                 1.8052
 IR Inten    --     7.0110                59.7195                42.6893
 Raman Activ --     4.8633                 4.6377                 1.9878

                   106                    107                    108
                     A                      A                      A
 Frequencies --  1484.7084              1487.8184              3257.5169
 Red. masses --     1.0986                 1.2715                 1.0590
 Frc consts  --     1.4268                 1.6583                 6.6207
 IR Inten    --     6.5797                17.1687                37.7694
 Raman Activ --     4.8718                 0.4948                82.1285

                   109                    110                    111
                     A                      A                      A
 Frequencies --  3263.3463              3269.6855              3279.7918
 Red. masses --     1.0814                 1.0579                 1.0825
 Frc consts  --     6.7850                 6.6639                 6.8610
 IR Inten    --    49.1453                31.4750                 9.3391
 Raman Activ --    75.3091                71.2952                94.2744

                   112                    113                    114
                     A                      A                      A
 Frequencies --  3292.2613              3297.0071              3299.4782
 Red. masses --     1.0850                 1.0849                 1.0855
 Frc consts  --     6.9290                 6.9480                 6.9624
 IR Inten    --     1.0910                 0.1920                10.2702
 Raman Activ --     8.4355                59.8804               153.7738

                   115                    116                    117
                     A                      A                      A
 Frequencies --  3302.1112              3306.1440              3307.6599
 Red. masses --     1.0890                 1.0870                 1.0872
 Frc consts  --     6.9963                 7.0002                 7.0081
 IR Inten    --     9.7755                 8.1320                12.8055
 Raman Activ --    29.4655                17.1088               128.0432

                   118                    119                    120
                     A                      A                      A
 Frequencies --  3313.6635              3318.5212              3322.2272
 Red. masses --     1.0894                 1.0957                 1.0912
 Frc consts  --     7.0477                 7.1095                 7.0958
 IR Inten    --    44.5766                10.8570                92.7740
 Raman Activ --    13.6090                36.3099                20.9618

                   121                    122                    123
                     A                      A                      A
 Frequencies --  3327.0797              3343.9688              3366.5458
 Red. masses --     1.1030                 1.0674                 1.0683
 Frc consts  --     7.1939                 7.0322                 7.1338
 IR Inten    --    57.4005               502.6115               499.6828
 Raman Activ --    17.1290               222.3264               125.1634

                   124                    125                    126
                     A                      A                      A
 Frequencies --  3383.4289              3384.9538              3389.6298
 Red. masses --     1.0643                 1.0672                 1.0679
 Frc consts  --     7.1787                 7.2048                 7.2292
 IR Inten    --    52.0311                39.8426                67.7805
 Raman Activ --    82.1965               183.7640               146.0705

                   127                    128                    129
                     A                      A                      A
 Frequencies --  3393.4324              3919.0408              3922.1835
 Red. masses --     1.0681                 1.0676                 1.0676
 Frc consts  --     7.2469                 9.6611                 9.6766
 IR Inten    --    52.0784                66.8193                78.0644
 Raman Activ --   196.9343               118.8139                91.1096

 - Thermochemistry -
 -------------------
 Temperature   298.150 Kelvin.  Pressure   1.00000 Atm.
 Atom     1 has atomic number  8 and mass  15.99491

 Molecular mass:   342.11621 amu.
 Principal axes and moments of inertia in atomic units:
                           1         2         3
     Eigenvalues --  4378.51970********************
           X            0.99998   0.00642  -0.00024
           Y           -0.00642   0.99998   0.00141
           Z            0.00024  -0.00141   1.00000
 This molecule is an asymmetric top.
 Rotational symmetry number  1.
 Warning -- assumption of classical behavior for rotation
           may cause significant error
 Rotational temperatures (Kelvin)      0.01978     0.00685     0.00523
 Rotational constants (GHZ):           0.41218     0.14272     0.10891
    7 imaginary frequencies ignored.
 Zero-point vibrational energy     976295.4 (Joules/Mol)
                                  233.34020 (Kcal/Mol)
 Warning -- explicit consideration of  32 degrees of freedom as
           vibrations may cause significant error
 Vibrational temperatures:     39.22    70.00   102.02   153.05   165.29
          (Kelvin)            218.62   248.09   265.80   284.23   327.14
                              364.08   402.37   424.03   457.05   466.42
                              474.81   485.76   492.59   529.79   551.48
                              581.07   597.08   633.73   639.76   693.21
                              710.71   745.54   764.87   817.85   850.82
                              862.29   889.05   908.57   913.89   923.06
                              967.32   973.52   998.79  1052.87  1098.86
                             1227.98  1232.34  1347.07  1381.74  1417.28
                             1426.29  1440.43  1446.06  1467.00  1480.51
                             1501.63  1515.69  1536.43  1545.22  1552.19
                             1559.32  1579.28  1595.27  1598.60  1614.15
                             1629.07  1636.20  1642.75  1644.83  1668.96
                             1675.67  1689.92  1699.64  1730.11  1737.68
                             1777.52  1792.36  1799.17  1804.47  1831.26
                             1839.98  1842.84  1869.93  1881.87  1886.29
                             1891.55  1899.57  1909.16  1928.45  1950.06
                             1956.98  1972.49  1975.45  1981.88  1991.39
                             2006.40  2012.68  2036.24  2068.28  2091.65
                             2107.11  2122.64  2130.95  2136.16  2140.64
                             4686.83  4695.22  4704.34  4718.88  4736.82
                             4743.65  4747.21  4751.00  4756.80  4758.98
                             4767.62  4774.61  4779.94  4786.92  4811.22
                             4843.70  4867.99  4870.19  4876.92  4882.39
                             5638.62  5643.14

 Zero-point correction=                           0.371851 (Hartree/Particle)
 Thermal correction to Energy=                    0.390303
 Thermal correction to Enthalpy=                  0.391247
 Thermal correction to Gibbs Free Energy=         0.325625
 Sum of electronic and zero-point Energies=          -1297.542756
 Sum of electronic and thermal Energies=             -1297.524305
 Sum of electronic and thermal Enthalpies=           -1297.523361
 Sum of electronic and thermal Free Energies=        -1297.588982

                     E (Thermal)             CV                S
                      KCal/Mol        Cal/Mol-Kelvin    Cal/Mol-Kelvin
 Total                  244.919             76.292            138.112
 Electronic               0.000              0.000              0.000
 Translational            0.889              2.981             43.384
 Rotational               0.889              2.981             35.172
 Vibrational            243.141             70.330             59.556
 Vibration     1          0.593              1.984              6.020
 Vibration     2          0.595              1.978              4.871
 Vibration     3          0.598              1.968              4.128
 Vibration     4          0.605              1.944              3.334
 Vibration     5          0.608              1.937              3.185
 Vibration     6          0.619              1.901              2.648
 Vibration     7          0.626              1.876              2.409
 Vibration     8          0.631              1.861              2.280
 Vibration     9          0.637              1.843              2.156
 Vibration    10          0.651              1.799              1.900
 Vibration    11          0.664              1.758              1.709
 Vibration    12          0.680              1.711              1.536
 Vibration    13          0.689              1.684              1.447
 Vibration    14          0.704              1.640              1.322
 Vibration    15          0.709              1.627              1.289
 Vibration    16          0.713              1.616              1.260
 Vibration    17          0.718              1.600              1.223
 Vibration    18          0.721              1.591              1.201
 Vibration    19          0.741              1.538              1.087
 Vibration    20          0.752              1.506              1.026
 Vibration    21          0.769              1.462              0.949
 Vibration    22          0.778              1.438              0.909
 Vibration    23          0.800              1.382              0.825
 Vibration    24          0.804              1.373              0.812
 Vibration    25          0.838              1.290              0.705
 Vibration    26          0.850              1.263              0.673
 Vibration    27          0.873              1.210              0.614
 Vibration    28          0.887              1.180              0.584
 Vibration    29          0.924              1.100              0.507
 Vibration    30          0.949              1.050              0.465
 Vibration    31          0.957              1.033              0.451
 Vibration    32          0.978              0.994              0.420

 Normal termination of Gaussian 09 at Tue Mar  1 03:10:08 2016.
