 Gaussian 09, Revision B.01,
 Gaussian 09:  EM64L-G09RevB.01 12-Aug-2010

 -------------------------------------------------
 # freq=raman b3lyp/6-31+g(2d,p) geom=connectivity
 -------------------------------------------------

 -----------------
 310 9775/9775.com
 -----------------
 Symbolic Z-matrix:
 Charge =  0 Multiplicity = 1

                         Standard orientation:
 ---------------------------------------------------------------------
 Center     Atomic      Atomic             Coordinates (Angstroms)
 Number     Number       Type             X           Y           Z
 ---------------------------------------------------------------------
      1          8           0       -4.987055   -0.585050    0.278178
      2          6           0       -3.717396   -0.121945   -0.204987
      3          6           0       -3.315808    1.297713    0.159941
      4          8           0       -4.158033    2.337193   -0.360229
      5          1           0       -5.130559    2.280661   -0.134430
      6          6           0       -1.872229    1.643088   -0.168959
      7          8           0       -1.340448    2.821629    0.453138
      8          1           0       -0.360267    2.788278    0.259206
      9          6           0       -3.069913   -2.547259   -0.042871
     10          8           0       -4.209048   -3.215320    0.518710
     11          1           0       -4.292622   -4.195788    0.339415
     12          6           0       -2.668261   -1.114507    0.269099
     13          8           0       -1.411404   -0.748935   -0.320525
     14          6           0       -0.915833    0.508901    0.161159
     15          8           0        0.295175    0.720099   -0.577796
     16          6           0        1.523352    0.259857    0.004552
     17          6           0        1.962533   -1.125625   -0.443517
     18          8           0        0.959574   -2.104823   -0.138162
     19          1           0        0.135578   -1.796983   -0.615100
     20          6           0        3.293803   -1.585824    0.127183
     21          8           0        3.713673   -2.804920   -0.502514
     22          1           0        4.659555   -2.981982   -0.229433
     23          6           0        2.447647    2.560711    0.326035
     24          8           0        1.395191    3.389822   -0.186806
     25          1           0        1.567904    4.370712   -0.097333
     26          6           0        2.679102    1.197837   -0.304918
     27          8           0        3.964973    0.821000    0.207860
     28          6           0        4.345994   -0.520296   -0.131012
     29          8           0        5.346988   -0.822110    0.852406
     30          1           0       -5.529890   -0.862323   -0.463475
     31          1           0       -2.221726   -3.152462    0.200455
     32          1           0       -3.191300   -2.596441   -1.104825
     33          1           0       -2.576960   -1.019978    1.330998
     34          1           0       -3.747476   -0.175312   -1.273232
     35          1           0       -3.398418    1.357691    1.225060
     36          1           0       -1.823729    1.798512   -1.226500
     37          1           0       -0.719192    0.465913    1.212056
     38          1           0        6.150320   -1.110782    0.413174
     39          1           0        4.741363   -0.583300   -1.123289
     40          1           0        3.360651    3.112422    0.242743
     41          1           0        2.254995    2.404235    1.366852
     42          1           0        2.751856    1.315696   -1.365916
     43          1           0        1.393115    0.236028    1.066329
     44          1           0        2.066510   -1.096133   -1.508044
     45          1           0        3.195661   -1.743255    1.180978
 ---------------------------------------------------------------------

 SCF Done:  E(RB3LYP) =  -1297.97806060     A.U. after   13 cycles

 The electronic state is 1-A.
 Alpha  occ. eigenvalues --  -19.18623 -19.18431 -19.18187 -19.17855 -19.17696
 Alpha  occ. eigenvalues --  -19.16630 -19.16090 -19.15618 -19.15187 -19.13861
 Alpha  occ. eigenvalues --  -19.13759 -10.30717 -10.30653 -10.25890 -10.25606
 Alpha  occ. eigenvalues --  -10.25560 -10.24829 -10.24644 -10.24632 -10.24552
 Alpha  occ. eigenvalues --  -10.24233 -10.24202 -10.24000  -1.10044  -1.09348
 Alpha  occ. eigenvalues --   -1.04948  -1.04288  -1.03736  -1.03528  -1.02807
 Alpha  occ. eigenvalues --   -1.02087  -1.01692  -1.00733  -1.00295  -0.82295
 Alpha  occ. eigenvalues --   -0.80179  -0.79201  -0.78255  -0.71935  -0.69936
 Alpha  occ. eigenvalues --   -0.67508  -0.65095  -0.63166  -0.62709  -0.61213
 Alpha  occ. eigenvalues --   -0.59926  -0.56412  -0.55929  -0.55248  -0.54722
 Alpha  occ. eigenvalues --   -0.53450  -0.53212  -0.52922  -0.51835  -0.50783
 Alpha  occ. eigenvalues --   -0.50639  -0.50264  -0.49575  -0.48663  -0.46169
 Alpha  occ. eigenvalues --   -0.45741  -0.44794  -0.44437  -0.43608  -0.42954
 Alpha  occ. eigenvalues --   -0.42070  -0.41518  -0.41201  -0.40071  -0.39691
 Alpha  occ. eigenvalues --   -0.38970  -0.38365  -0.36627  -0.36188  -0.35340
 Alpha  occ. eigenvalues --   -0.35029  -0.34582  -0.33868  -0.33838  -0.33141
 Alpha  occ. eigenvalues --   -0.32561  -0.31132  -0.30697  -0.30164  -0.30019
 Alpha  occ. eigenvalues --   -0.29270  -0.28666  -0.28411  -0.27332  -0.26562
 Alpha  occ. eigenvalues --   -0.26056
 Alpha virt. eigenvalues --   -0.02264  -0.01781  -0.01442   0.00137   0.00413
 Alpha virt. eigenvalues --    0.01018   0.01836   0.01992   0.03226   0.03359
 Alpha virt. eigenvalues --    0.03753   0.04440   0.04875   0.05387   0.05632

 Mulliken atomic charges:
              1
     1  O   -0.519166
     2  C    0.037810
     3  C    0.295551
     4  O   -0.570135
     5  H    0.341862
     6  C   -0.159794
     7  O   -0.560611
     8  H    0.408242
     9  C   -0.236406
    10  O   -0.536983
    11  H    0.345305
    12  C    0.135981
    13  O   -0.265626
    14  C    0.111531
    15  O   -0.241383
    16  C    0.311660
    17  C    0.037140
    18  O   -0.523959
    19  H    0.360792
    20  C    0.106333
    21  O   -0.531518
    22  H    0.323535
    23  C   -0.232091
    24  O   -0.572816
    25  H    0.361678
    26  C   -0.074299
    27  O   -0.239975
    28  C    0.108299
    29  O   -0.521698
    30  H    0.337968
    31  H    0.152079
    32  H    0.133786
    33  H    0.116447
    34  H    0.113973
    35  H    0.120277
    36  H    0.136275
    37  H    0.134841
    38  H    0.328881
    39  H    0.140814
    40  H    0.140790
    41  H    0.150976
    42  H    0.125917
    43  H    0.107531
    44  H    0.119866
    45  H    0.140319
 Sum of Mulliken atomic charges =   0.00000

 Dipole moment (field-independent basis, Debye):
    X=              2.6053    Y=             -0.6822    Z=             -1.8762  Tot=              3.2822
 Quadrupole moment (field-independent basis, Debye-Ang):
   XX=           -111.8997   YY=           -135.6447   ZZ=           -140.4466
   XY=             12.0802   XZ=              2.2381   YZ=              3.3410

  Exact polarizability: 233.064  -1.355 200.235   1.435   0.866 144.548
 Approx polarizability: 273.875   0.045 259.512   1.362   0.173 240.112

 ******    6 imaginary frequencies (negative Signs) ******

                     1                      2                      3
                     A                      A                      A
 Frequencies --  -343.4908              -262.2212              -253.3855
 Red. masses --     1.6803                 1.1755                 1.2226
 Frc consts  --     0.1168                 0.0476                 0.0462
 IR Inten    --    22.7809                85.0580               112.6329
 Raman Activ --     0.1174                 0.9416                 1.1301

                     4                      5                      6
                     A                      A                      A
 Frequencies --  -246.4928               -74.1050               -67.7463
 Red. masses --     1.8334                 6.2856                 5.8619
 Frc consts  --     0.0656                 0.0203                 0.0159
 IR Inten    --     4.4636                 1.7260                 0.7780
 Raman Activ --     0.0620                 0.0893                 0.0331

                     7                      8                      9
                     A                      A                      A
 Frequencies --    18.6781                40.7446                64.7082
 Red. masses --     6.5062                 6.6538                 6.8395
 Frc consts  --     0.0013                 0.0065                 0.0169
 IR Inten    --     2.4448                 0.9751                 0.6011
 Raman Activ --     0.0313                 0.0308                 0.0652

                    10                     11                     12
                     A                      A                      A
 Frequencies --    70.8242                85.2740                94.2311
 Red. masses --     6.8530                 6.5608                 6.1166
 Frc consts  --     0.0203                 0.0281                 0.0320
 IR Inten    --     1.5273                 0.4403                 1.4708
 Raman Activ --     0.0199                 0.3707                 0.0855

                    13                     14                     15
                     A                      A                      A
 Frequencies --   138.8873               171.7344               193.4610
 Red. masses --     6.1889                 5.6031                 6.3765
 Frc consts  --     0.0703                 0.0974                 0.1406
 IR Inten    --     3.9206                 1.7054                 0.6208
 Raman Activ --     0.4172                 0.1104                 1.4719

                    16                     17                     18
                     A                      A                      A
 Frequencies --   200.8684               228.6912               252.3063
 Red. masses --     7.5914                 5.9149                 5.3084
 Frc consts  --     0.1805                 0.1823                 0.1991
 IR Inten    --     1.3108                 1.1858                18.4107
 Raman Activ --     0.7999                 1.3617                 0.6484

                    19                     20                     21
                     A                      A                      A
 Frequencies --   271.5933               283.6947               305.2967
 Red. masses --     4.9591                 5.0523                 4.8830
 Frc consts  --     0.2155                 0.2396                 0.2682
 IR Inten    --     0.3110                 2.4549                 6.0387
 Raman Activ --     0.4102                 0.3017                 0.2306

                    22                     23                     24
                     A                      A                      A
 Frequencies --   311.4578               319.1562               329.7259
 Red. masses --     6.5192                 6.5235                 5.1133
 Frc consts  --     0.3726                 0.3915                 0.3275
 IR Inten    --     3.4494                 5.2636                 6.0915
 Raman Activ --     4.7549                 0.9043                 1.1176

                    25                     26                     27
                     A                      A                      A
 Frequencies --   338.2585               356.8395               376.6291
 Red. masses --     6.7775                 4.5441                 5.1976
 Frc consts  --     0.4569                 0.3409                 0.4344
 IR Inten    --     2.7628                 4.1384                 4.2649
 Raman Activ --     4.8522                 0.1441                 0.7068

                    28                     29                     30
                     A                      A                      A
 Frequencies --   404.2235               413.2769               436.0899
 Red. masses --     4.8809                 6.5088                 4.5986
 Frc consts  --     0.4699                 0.6550                 0.5153
 IR Inten    --    19.7302                 9.6255                 4.2875
 Raman Activ --     2.9614                 3.5895                 1.3863

                    31                     32                     33
                     A                      A                      A
 Frequencies --   447.4816               467.7739               485.8280
 Red. masses --     5.3371                 4.6940                 3.7243
 Frc consts  --     0.6297                 0.6051                 0.5179
 IR Inten    --     0.9036                 2.0329                15.9308
 Raman Activ --     5.5543                 3.4519                 1.3884

                    34                     35                     36
                     A                      A                      A
 Frequencies --   510.7771               516.3953               568.7018
 Red. masses --     3.1351                 3.9369                 3.8320
 Frc consts  --     0.4819                 0.6185                 0.7302
 IR Inten    --     2.5767                14.6720                18.2607
 Raman Activ --     2.7517                 1.3647                 1.9424

                    37                     38                     39
                     A                      A                      A
 Frequencies --   589.0047               597.6525               599.1789
 Red. masses --     3.0403                 1.0799                 6.5727
 Frc consts  --     0.6214                 0.2273                 1.3903
 IR Inten    --    22.1363               101.2702                 2.3727
 Raman Activ --     0.2555                 1.9548                 0.5876

                    40                     41                     42
                     A                      A                      A
 Frequencies --   620.6410               633.5103               671.1570
 Red. masses --     4.2347                 4.0603                 1.3890
 Frc consts  --     0.9611                 0.9601                 0.3686
 IR Inten    --    27.2624                48.3871                91.9526
 Raman Activ --     0.5640                 1.5955                 0.8301

                    43                     44                     45
                     A                      A                      A
 Frequencies --   674.7785               678.9727               725.9118
 Red. masses --     1.0610                 2.5119                 1.0705
 Frc consts  --     0.2846                 0.6823                 0.3324
 IR Inten    --   106.3819                25.9388                91.8246
 Raman Activ --     2.4138                 2.3574                 1.7801

                    46                     47                     48
                     A                      A                      A
 Frequencies --   770.7327               827.1677               843.2839
 Red. masses --     1.1111                 1.0928                 1.8021
 Frc consts  --     0.3889                 0.4405                 0.7551
 IR Inten    --   183.7299                73.5529                 1.6570
 Raman Activ --     5.3482                 0.3864                 0.3441

                    49                     50                     51
                     A                      A                      A
 Frequencies --   864.3321               920.5510               953.5946
 Red. masses --     1.6545                 6.1252                 5.0740
 Frc consts  --     0.7282                 3.0582                 2.7185
 IR Inten    --     8.3790               122.6344                52.3149
 Raman Activ --     0.4192                 2.6750                 0.5903

                    52                     53                     54
                     A                      A                      A
 Frequencies --   974.6104               982.3275               984.8169
 Red. masses --     7.1122                 4.4438                 6.0248
 Frc consts  --     3.9803                 2.5265                 3.4427
 IR Inten    --    60.4187                15.7822               109.8867
 Raman Activ --     2.0185                 1.0228                 3.0593

                    55                     56                     57
                     A                      A                      A
 Frequencies --   993.7251              1004.0695              1017.7898
 Red. masses --     6.9506                 6.3288                 5.4786
 Frc consts  --     4.0440                 3.7592                 3.3438
 IR Inten    --   514.4138                24.8212               159.7185
 Raman Activ --     1.5903                 2.6921                 1.2837

                    58                     59                     60
                     A                      A                      A
 Frequencies --  1029.5476              1054.2316              1058.0775
 Red. masses --     6.7922                 3.8432                 4.2398
 Frc consts  --     4.2418                 2.5166                 2.7966
 IR Inten    --   180.2620                17.8964               152.8812
 Raman Activ --     3.5904                12.7028                 3.5742

                    61                     62                     63
                     A                      A                      A
 Frequencies --  1066.1398              1075.4238              1077.9663
 Red. masses --     6.6564                 3.4465                 5.6368
 Frc consts  --     4.4578                 2.3485                 3.8592
 IR Inten    --   123.7370                16.3688                14.0086
 Raman Activ --     0.9305                18.7330                 1.8796

                    64                     65                     66
                     A                      A                      A
 Frequencies --  1099.4767              1107.9279              1112.4593
 Red. masses --     3.6498                 2.8694                 2.4690
 Frc consts  --     2.5995                 2.0752                 1.8003
 IR Inten    --    11.1158                27.3733                58.8123
 Raman Activ --    12.9139                 2.0303                 1.7647

                    67                     68                     69
                     A                      A                      A
 Frequencies --  1120.3050              1123.4786              1128.3236
 Red. masses --     2.2946                 2.7471                 3.1608
 Frc consts  --     1.6968                 2.0430                 2.3709
 IR Inten    --    52.9761                23.8939                22.8377
 Raman Activ --     4.0785                 0.7142                 4.7634

                    70                     71                     72
                     A                      A                      A
 Frequencies --  1134.4124              1147.1159              1155.0049
 Red. masses --     2.3738                 1.7538                 1.6054
 Frc consts  --     1.7999                 1.3597                 1.2618
 IR Inten    --    63.1934                 1.2626                18.0527
 Raman Activ --     6.2466                 5.7402                 2.4402

                    73                     74                     75
                     A                      A                      A
 Frequencies --  1158.3059              1164.3077              1183.5886
 Red. masses --     1.8636                 2.0705                 1.5388
 Frc consts  --     1.4732                 1.6537                 1.2701
 IR Inten    --    25.9365                 0.7466                16.9425
 Raman Activ --     5.2438                 2.0440                 1.0417

                    76                     77                     78
                     A                      A                      A
 Frequencies --  1202.9355              1208.9611              1233.6633
 Red. masses --     1.4096                 1.3340                 1.2999
 Frc consts  --     1.2018                 1.1488                 1.1656
 IR Inten    --    19.3564                 4.8035                 5.9785
 Raman Activ --     3.7037                 1.7674                 1.9909

                    79                     80                     81
                     A                      A                      A
 Frequencies --  1240.1291              1246.9317              1250.9956
 Red. masses --     1.2649                 1.1834                 1.2029
 Frc consts  --     1.1461                 1.0841                 1.1091
 IR Inten    --     1.9354                12.3193                12.4649
 Raman Activ --     0.9866                 1.1112                 1.0456

                    82                     83                     84
                     A                      A                      A
 Frequencies --  1260.8735              1274.7685              1279.6016
 Red. masses --     1.1306                 1.3428                 1.2119
 Frc consts  --     1.0590                 1.2856                 1.1692
 IR Inten    --    48.3937                36.6777                 9.8228
 Raman Activ --     3.6494                 3.2430                 2.9823

                    85                     86                     87
                     A                      A                      A
 Frequencies --  1281.1806              1297.9834              1303.8885
 Red. masses --     1.1705                 1.3594                 1.2937
 Frc consts  --     1.1320                 1.3494                 1.2958
 IR Inten    --     8.9101                 3.7711                45.0356
 Raman Activ --     2.5751                 2.9752                 6.5110

                    88                     89                     90
                     A                      A                      A
 Frequencies --  1307.1542              1322.8251              1327.6199
 Red. masses --     1.3000                 1.2103                 1.3044
 Frc consts  --     1.3088                 1.2478                 1.3546
 IR Inten    --    11.2050                25.5752                12.0759
 Raman Activ --     1.7627                 7.1116                 8.2054

                    91                     92                     93
                     A                      A                      A
 Frequencies --  1332.5599              1334.7615              1337.1553
 Red. masses --     1.2410                 1.3104                 1.1562
 Frc consts  --     1.2984                 1.3755                 1.2180
 IR Inten    --    35.4428                12.0514                29.2543
 Raman Activ --     5.1132                 1.5240                 1.3769

                    94                     95                     96
                     A                      A                      A
 Frequencies --  1344.4767              1356.7688              1364.3135
 Red. masses --     1.3971                 1.4634                 1.5989
 Frc consts  --     1.4879                 1.5872                 1.7534
 IR Inten    --    50.2372                 8.5966                 7.3058
 Raman Activ --     2.7659                 6.9461                 8.0179

                    97                     98                     99
                     A                      A                      A
 Frequencies --  1375.2753              1383.7004              1394.5317
 Red. masses --     1.7380                 1.2804                 1.4520
 Frc consts  --     1.9368                 1.4444                 1.6637
 IR Inten    --    10.5975                 4.6168                 1.5482
 Raman Activ --     5.3550                 2.3441                 7.4489

                   100                    101                    102
                     A                      A                      A
 Frequencies --  1400.1228              1431.7661              1436.0655
 Red. masses --     1.4699                 1.3522                 1.4254
 Frc consts  --     1.6977                 1.6332                 1.7319
 IR Inten    --    15.4593                15.0045                21.8637
 Raman Activ --     3.0803                 2.2493                 0.2546

                   103                    104                    105
                     A                      A                      A
 Frequencies --  1439.1534              1473.6639              1474.4314
 Red. masses --     1.4432                 1.0900                 1.0831
 Frc consts  --     1.7612                 1.3947                 1.3872
 IR Inten    --    12.2165                 2.6265                 3.3478
 Raman Activ --     1.3054                 3.6465                 4.0204

                   106                    107                    108
                     A                      A                      A
 Frequencies --  1497.4498              1515.7029              3250.8556
 Red. masses --     1.3126                 1.2713                 1.0593
 Frc consts  --     1.7342                 1.7208                 6.5956
 IR Inten    --    56.7496                46.5561                32.8109
 Raman Activ --     2.1794                 1.7879                84.1417

                   109                    110                    111
                     A                      A                      A
 Frequencies --  3259.2891              3263.6913              3267.8532
 Red. masses --     1.0590                 1.0797                 1.0808
 Frc consts  --     6.6280                 6.7757                 6.8001
 IR Inten    --    41.6605                 5.2358                19.0566
 Raman Activ --    53.9392               169.1713                96.7389

                   112                    113                    114
                     A                      A                      A
 Frequencies --  3269.1334              3272.3685              3279.5825
 Red. masses --     1.0817                 1.0823                 1.0834
 Frc consts  --     6.8115                 6.8284                 6.8656
 IR Inten    --     3.5154                 2.4100                27.3573
 Raman Activ --    33.8900                24.9233                82.5896

                   115                    116                    117
                     A                      A                      A
 Frequencies --  3285.7252              3287.7593              3291.3846
 Red. masses --     1.0864                 1.0855                 1.0860
 Frc consts  --     6.9101                 6.9129                 6.9316
 IR Inten    --    33.7096                 1.0808                 7.9754
 Raman Activ --    59.4290                13.3812               116.8619

                   118                    119                    120
                     A                      A                      A
 Frequencies --  3295.9618              3302.3922              3303.3219
 Red. masses --     1.0850                 1.0982                 1.0870
 Frc consts  --     6.9444                 7.0563                 6.9882
 IR Inten    --    63.8815                63.5556                67.6431
 Raman Activ --    39.0249                19.6070                12.2635

                   121                    122                    123
                     A                      A                      A
 Frequencies --  3305.6998              3316.7612              3322.8832
 Red. masses --     1.0731                 1.1057                 1.0667
 Frc consts  --     6.9089                 7.1663                 6.9396
 IR Inten    --   349.6247                60.0699               477.1100
 Raman Activ --   184.9462                41.3531               109.8834

                   124                    125                    126
                     A                      A                      A
 Frequencies --  3361.6720              3362.0358              3371.8991
 Red. masses --     1.0655                 1.0685                 1.0673
 Frc consts  --     7.0944                 7.1161                 7.1500
 IR Inten    --    24.4787                64.7855                46.8973
 Raman Activ --   128.7212               216.7704               172.3269

                   127                    128                    129
                     A                      A                      A
 Frequencies --  3373.2276              3888.0346              3888.5550
 Red. masses --     1.0687                 1.0674                 1.0677
 Frc consts  --     7.1645                 9.5072                 9.5123
 IR Inten    --    69.1742                64.2123                66.7307
 Raman Activ --   165.8309               114.8772                94.2683

 - Thermochemistry -
 -------------------
 Temperature   298.150 Kelvin.  Pressure   1.00000 Atm.
 Atom     1 has atomic number  8 and mass  15.99491

 Molecular mass:   342.11621 amu.
 Principal axes and moments of inertia in atomic units:
                           1         2         3
     Eigenvalues --  4539.15406********************
           X            0.99997   0.00706   0.00047
           Y           -0.00707   0.99997   0.00361
           Z           -0.00045  -0.00361   0.99999
 This molecule is an asymmetric top.
 Rotational symmetry number  1.
 Warning -- assumption of classical behavior for rotation
           may cause significant error
 Rotational temperatures (Kelvin)      0.01908     0.00703     0.00528
 Rotational constants (GHZ):           0.39759     0.14654     0.11000
    6 imaginary frequencies ignored.
 Zero-point vibrational energy     971242.1 (Joules/Mol)
                                  232.13244 (Kcal/Mol)
 Warning -- explicit consideration of  34 degrees of freedom as
           vibrations may cause significant error
 Vibrational temperatures:     26.87    58.62    93.10   101.90   122.69
          (Kelvin)            135.58   199.83   247.09   278.35   289.00
                              329.04   363.01   390.76   408.17   439.25
                              448.12   459.19   474.40   486.68   513.41
                              541.88   581.59   594.61   627.44   643.83
                              673.02   699.00   734.89   742.98   818.23
                              847.45   859.89   862.08   892.96   911.48
                              965.64   970.85   976.89  1044.42  1108.91
                             1190.11  1213.30  1243.58  1324.47  1372.01
                             1402.25  1413.35  1416.93  1429.75  1444.63
                             1464.37  1481.29  1516.80  1522.34  1533.94
                             1547.29  1550.95  1581.90  1594.06  1600.58
                             1611.87  1616.43  1623.40  1632.16  1650.44
                             1661.79  1666.54  1675.18  1702.92  1730.75
                             1739.42  1774.96  1784.27  1794.05  1799.90
                             1814.11  1834.11  1841.06  1843.33  1867.51
                             1876.00  1880.70  1903.25  1910.15  1917.25
                             1920.42  1923.87  1934.40  1952.09  1962.94
                             1978.71  1990.83  2006.42  2014.46  2059.99
                             2066.18  2070.62  2120.27  2121.38  2154.49
                             2180.76  4677.25  4689.38  4695.72  4701.71
                             4703.55  4708.20  4718.58  4727.42  4730.35
                             4735.56  4742.15  4751.40  4752.74  4756.16
                             4772.07  4780.88  4836.69  4837.21  4851.40
                             4853.32  5594.01  5594.76

 Zero-point correction=                           0.369927 (Hartree/Particle)
 Thermal correction to Energy=                    0.389429
 Thermal correction to Enthalpy=                  0.390374
 Thermal correction to Gibbs Free Energy=         0.321517
 Sum of electronic and zero-point Energies=          -1297.608134
 Sum of electronic and thermal Energies=             -1297.588631
 Sum of electronic and thermal Enthalpies=           -1297.587687
 Sum of electronic and thermal Free Energies=        -1297.656543

                     E (Thermal)             CV                S
                      KCal/Mol        Cal/Mol-Kelvin    Cal/Mol-Kelvin
 Total                  244.371             78.621            144.920
 Electronic               0.000              0.000              0.000
 Translational            0.889              2.981             43.384
 Rotational               0.889              2.981             35.171
 Vibrational            242.593             72.660             66.365
 Vibration     1          0.593              1.986              6.770
 Vibration     2          0.594              1.981              5.223
 Vibration     3          0.597              1.971              4.308
 Vibration     4          0.598              1.968              4.130
 Vibration     5          0.601              1.959              3.766
 Vibration     6          0.603              1.953              3.570
 Vibration     7          0.615              1.914              2.819
 Vibration     8          0.626              1.877              2.416
 Vibration     9          0.635              1.849              2.194
 Vibration    10          0.638              1.839              2.125
 Vibration    11          0.651              1.797              1.889
 Vibration    12          0.664              1.759              1.714
 Vibration    13          0.675              1.726              1.586
 Vibration    14          0.682              1.704              1.511
 Vibration    15          0.696              1.664              1.388
 Vibration    16          0.700              1.652              1.355
 Vibration    17          0.705              1.637              1.314
 Vibration    18          0.713              1.616              1.261
 Vibration    19          0.719              1.599              1.220
 Vibration    20          0.732              1.561              1.136
 Vibration    21          0.747              1.520              1.053
 Vibration    22          0.769              1.461              0.947
 Vibration    23          0.777              1.441              0.915
 Vibration    24          0.797              1.392              0.839
 Vibration    25          0.807              1.366              0.803
 Vibration    26          0.825              1.322              0.744
 Vibration    27          0.842              1.281              0.695
 Vibration    28          0.866              1.226              0.632
 Vibration    29          0.871              1.214              0.618
 Vibration    30          0.925              1.099              0.507
 Vibration    31          0.946              1.055              0.469
 Vibration    32          0.956              1.037              0.454
 Vibration    33          0.957              1.034              0.451
 Vibration    34          0.981              0.988              0.415

 Normal termination of Gaussian 09 at Thu Mar 24 13:52:15 2016.
