 Gaussian 09, Revision B.01,
 Gaussian 09:  EM64L-G09RevB.01 12-Aug-2010

 -------------------------------------------------
 # freq=raman b3lyp/6-31+g(2d,p) geom=connectivity
 -------------------------------------------------

 -----------------
 290 5418/5418.com
 -----------------
 Symbolic Z-matrix:
 Charge =  0 Multiplicity = 1

                         Standard orientation:
 ---------------------------------------------------------------------
 Center     Atomic      Atomic             Coordinates (Angstroms)
 Number     Number       Type             X           Y           Z
 ---------------------------------------------------------------------
      1          8           0       -5.047450   -0.321854    0.313069
      2          6           0       -3.742885   -0.084635   -0.235592
      3          6           0       -3.262957    1.274179    0.248679
      4          8           0       -4.145108    2.333813   -0.151255
      5          1           0       -5.022185    1.862938   -0.250340
      6          6           0       -1.796881    1.492385   -0.084671
      7          8           0       -1.260743    2.779558    0.258132
      8          1           0       -0.369590    2.769384   -0.194703
      9          6           0       -2.947091   -2.542140    0.045303
     10          8           0       -4.246419   -3.131328    0.198552
     11          1           0       -4.143480   -4.126219    0.186321
     12          6           0       -2.791573   -1.076506    0.414660
     13          8           0       -1.451692   -0.916527   -0.072074
     14          6           0       -0.875353    0.344450    0.296547
     15          8           0        0.259440    0.443108   -0.576018
     16          6           0        1.539555    0.127847   -0.009961
     17          6           0        2.030164   -1.221028   -0.509679
     18          8           0        0.968399   -2.181721   -0.417608
     19          1           0        0.063731   -1.784985   -0.573384
     20          6           0        3.381653   -1.559684    0.099787
     21          8           0        3.916994   -2.701875   -0.584178
     22          1           0        4.771386   -2.933946   -0.119715
     23          6           0        2.212308    2.594516    0.237724
     24          8           0        1.346813    3.348337   -0.624315
     25          1           0        1.550045    4.325929   -0.574543
     26          6           0        2.579070    1.207097   -0.263499
     27          8           0        3.779088    0.863895    0.443315
     28          6           0        4.355482   -0.392848    0.058934
     29          8           0        5.428036   -0.508522    1.003668
     30          1           0        6.257621   -0.620844    0.533804
     31          1           0       -5.672426   -0.470548   -0.400300
     32          1           0       -2.261462   -3.104021    0.644555
     33          1           0       -2.657491   -2.652897   -0.978789
     34          1           0       -2.810562   -0.962179    1.478365
     35          1           0       -3.733285   -0.158447   -1.302999
     36          1           0       -3.316182    1.240106    1.316811
     37          1           0       -1.779487    1.487784   -1.154520
     38          1           0       -0.592841    0.374740    1.328133
     39          1           0        3.115834    3.150931    0.375359
     40          1           0        1.731823    2.491421    1.188200
     41          1           0        2.788531    1.255069   -1.311700
     42          1           0        1.410705    0.050169    1.049408
     43          1           0        2.212845   -1.096482   -1.556587
     44          1           0        3.226918   -1.827138    1.124201
     45          1           0        4.761750   -0.307627   -0.927262
 ---------------------------------------------------------------------

 SCF Done:  E(RB3LYP) =  -1297.99141717     A.U. after   13 cycles

 The electronic state is 1-A.
 Alpha  occ. eigenvalues --  -19.18678 -19.18328 -19.18217 -19.18201 -19.17748
 Alpha  occ. eigenvalues --  -19.17410 -19.16840 -19.15843 -19.15230 -19.14139
 Alpha  occ. eigenvalues --  -19.13650 -10.30888 -10.30810 -10.25763 -10.25735
 Alpha  occ. eigenvalues --  -10.25711 -10.25347 -10.25331 -10.25030 -10.24419
 Alpha  occ. eigenvalues --  -10.24157 -10.24031 -10.23798  -1.10529  -1.09261
 Alpha  occ. eigenvalues --   -1.05836  -1.04936  -1.04337  -1.03723  -1.02940
 Alpha  occ. eigenvalues --   -1.02316  -1.02055  -1.00722  -1.00135  -0.82282
 Alpha  occ. eigenvalues --   -0.80724  -0.79493  -0.78370  -0.71778  -0.70031
 Alpha  occ. eigenvalues --   -0.67555  -0.65107  -0.63453  -0.62498  -0.61476
 Alpha  occ. eigenvalues --   -0.60388  -0.56715  -0.56056  -0.55108  -0.54648
 Alpha  occ. eigenvalues --   -0.54127  -0.53296  -0.53041  -0.51825  -0.51381
 Alpha  occ. eigenvalues --   -0.50609  -0.50013  -0.49082  -0.48804  -0.46482
 Alpha  occ. eigenvalues --   -0.46140  -0.45122  -0.44235  -0.43769  -0.43224
 Alpha  occ. eigenvalues --   -0.42708  -0.41964  -0.41251  -0.40194  -0.39179
 Alpha  occ. eigenvalues --   -0.38827  -0.38383  -0.37107  -0.36961  -0.35987
 Alpha  occ. eigenvalues --   -0.35580  -0.35438  -0.34935  -0.34480  -0.33390
 Alpha  occ. eigenvalues --   -0.33288  -0.31760  -0.30894  -0.30743  -0.30013
 Alpha  occ. eigenvalues --   -0.29525  -0.28454  -0.28247  -0.27102  -0.26985
 Alpha  occ. eigenvalues --   -0.26597
 Alpha virt. eigenvalues --   -0.02090  -0.01894  -0.01573  -0.00416   0.00395
 Alpha virt. eigenvalues --    0.00722   0.01995   0.02338   0.02831   0.03403
 Alpha virt. eigenvalues --    0.04068   0.04298   0.04456   0.05701   0.05724

 Mulliken atomic charges:
              1
     1  O   -0.538837
     2  C   -0.040111
     3  C    0.150149
     4  O   -0.556467
     5  H    0.335309
     6  C    0.054009
     7  O   -0.563559
     8  H    0.404442
     9  C   -0.194841
    10  O   -0.546367
    11  H    0.338118
    12  C    0.115391
    13  O   -0.222151
    14  C    0.162188
    15  O   -0.263690
    16  C    0.241531
    17  C    0.040719
    18  O   -0.570349
    19  H    0.397877
    20  C    0.137446
    21  O   -0.520724
    22  H    0.326922
    23  C   -0.224471
    24  O   -0.558292
    25  H    0.354245
    26  C   -0.080897
    27  O   -0.216967
    28  C    0.053092
    29  O   -0.512540
    30  H    0.332223
    31  H    0.343030
    32  H    0.149056
    33  H    0.144348
    34  H    0.118225
    35  H    0.131587
    36  H    0.114744
    37  H    0.126194
    38  H    0.128772
    39  H    0.146478
    40  H    0.158663
    41  H    0.124842
    42  H    0.105644
    43  H    0.112188
    44  H    0.134806
    45  H    0.128029
 Sum of Mulliken atomic charges =   0.00000

 Dipole moment (field-independent basis, Debye):
    X=              2.8266    Y=             -0.7377    Z=             -1.0898  Tot=              3.1179
 Quadrupole moment (field-independent basis, Debye-Ang):
   XX=           -115.4276   YY=           -138.7915   ZZ=           -140.4661
   XY=             16.1368   XZ=              3.4454   YZ=             -4.1820

  Exact polarizability: 233.499  -1.178 196.445   1.963   0.406 144.277
 Approx polarizability: 274.615  -0.033 256.652   2.045   1.212 240.299

 ******    7 imaginary frequencies (negative Signs) ******

                     1                      2                      3
                     A                      A                      A
 Frequencies --  -252.2511              -228.1227              -227.6548
 Red. masses --     1.4411                 1.3607                 1.2857
 Frc consts  --     0.0540                 0.0417                 0.0393
 IR Inten    --    57.5291                 6.5828               139.7545
 Raman Activ --     0.3367                 0.9468                 0.3142

                     4                      5                      6
                     A                      A                      A
 Frequencies --  -221.9428               -61.7776               -37.6936
 Red. masses --     1.7816                 6.9065                 6.2999
 Frc consts  --     0.0517                 0.0155                 0.0053
 IR Inten    --     9.3870                 1.2186                 0.1898
 Raman Activ --     0.0524                 0.0892                 0.0246

                     7                      8                      9
                     A                      A                      A
 Frequencies --   -22.5630                25.8219                46.8850
 Red. masses --     6.5543                 6.6976                 6.2556
 Frc consts  --     0.0020                 0.0026                 0.0081
 IR Inten    --     0.7990                 0.4812                 1.6186
 Raman Activ --     0.0269                 0.1261                 0.0196

                    10                     11                     12
                     A                      A                      A
 Frequencies --    74.5594                88.6943               109.4771
 Red. masses --     6.4003                 5.8941                 6.2363
 Frc consts  --     0.0210                 0.0273                 0.0440
 IR Inten    --     2.0562                 0.4148                 1.6258
 Raman Activ --     0.2074                 0.0732                 0.1206

                    13                     14                     15
                     A                      A                      A
 Frequencies --   137.7674               164.7604               182.6724
 Red. masses --     6.3980                 6.2577                 7.1350
 Frc consts  --     0.0715                 0.1001                 0.1403
 IR Inten    --     6.3871                 2.1117                 0.1445
 Raman Activ --     0.2661                 0.3330                 0.3205

                    16                     17                     18
                     A                      A                      A
 Frequencies --   201.4607               235.8975               267.8908
 Red. masses --     6.8652                 5.6189                 4.9733
 Frc consts  --     0.1642                 0.1842                 0.2103
 IR Inten    --     0.2406                 2.5759                 1.4603
 Raman Activ --     2.1279                 1.2583                 0.1388

                    19                     20                     21
                     A                      A                      A
 Frequencies --   277.1750               287.0074               297.2024
 Red. masses --     4.1946                 4.5900                 5.5599
 Frc consts  --     0.1899                 0.2228                 0.2893
 IR Inten    --    10.2758                 1.2535                 6.0097
 Raman Activ --     0.4923                 0.2233                 0.3538

                    22                     23                     24
                     A                      A                      A
 Frequencies --   313.6883               323.0023               332.6802
 Red. masses --     5.4819                 4.4944                 5.5944
 Frc consts  --     0.3178                 0.2763                 0.3648
 IR Inten    --     1.8461                 3.1289                 1.1663
 Raman Activ --     2.2302                 0.4947                 1.7563

                    25                     26                     27
                     A                      A                      A
 Frequencies --   340.4523               361.5791               388.3507
 Red. masses --     7.0676                 5.7740                 6.1084
 Frc consts  --     0.4827                 0.4448                 0.5428
 IR Inten    --     8.4773                 3.6956                 0.7360
 Raman Activ --     4.9507                 0.1927                 1.3763

                    28                     29                     30
                     A                      A                      A
 Frequencies --   402.3263               420.8560               427.4729
 Red. masses --     4.6909                 5.6967                 5.7092
 Frc consts  --     0.4474                 0.5945                 0.6147
 IR Inten    --    12.9184                11.0934                 1.8604
 Raman Activ --     2.3584                 4.1871                 5.8052

                    31                     32                     33
                     A                      A                      A
 Frequencies --   436.9087               480.5772               487.4991
 Red. masses --     4.5072                 4.1950                 4.4752
 Frc consts  --     0.5069                 0.5708                 0.6266
 IR Inten    --     0.9403                16.5668                 9.7572
 Raman Activ --     1.9551                 0.4191                 4.3995

                    34                     35                     36
                     A                      A                      A
 Frequencies --   509.1772               524.3692               566.5181
 Red. masses --     3.8781                 3.1984                 3.6137
 Frc consts  --     0.5924                 0.5182                 0.6833
 IR Inten    --     5.6842                 7.8316                13.5138
 Raman Activ --     2.3293                 3.6768                 2.0062

                    37                     38                     39
                     A                      A                      A
 Frequencies --   576.2949               601.8587               624.8398
 Red. masses --     3.1004                 6.0131                 5.0338
 Frc consts  --     0.6067                 1.2833                 1.1579
 IR Inten    --    37.4436                 6.2910                21.9654
 Raman Activ --     0.5809                 0.6213                 0.5394

                    40                     41                     42
                     A                      A                      A
 Frequencies --   639.7673               688.9810               693.3871
 Red. masses --     3.8389                 2.0025                 1.1534
 Frc consts  --     0.9258                 0.5601                 0.3267
 IR Inten    --    28.4364                66.7972                17.7431
 Raman Activ --     0.7452                 0.4724                 1.5818

                    43                     44                     45
                     A                      A                      A
 Frequencies --   698.7024               714.9412               717.4248
 Red. masses --     1.4506                 1.0776                 1.1262
 Frc consts  --     0.4172                 0.3245                 0.3415
 IR Inten    --   138.8447                42.6842               144.3366
 Raman Activ --     3.2226                 1.5831                 1.6022

                    46                     47                     48
                     A                      A                      A
 Frequencies --   747.5023               854.1052               854.8290
 Red. masses --     1.0828                 1.6964                 1.7111
 Frc consts  --     0.3565                 0.7291                 0.7367
 IR Inten    --    92.9584                 4.2251                 2.2586
 Raman Activ --     1.8679                 1.6942                 0.5535

                    49                     50                     51
                     A                      A                      A
 Frequencies --   893.7830               927.5101               948.1607
 Red. masses --     1.1543                 5.1913                 5.8302
 Frc consts  --     0.5433                 2.6313                 3.0882
 IR Inten    --    54.8893               180.8613                79.8777
 Raman Activ --     0.3297                 2.4483                 0.5029

                    52                     53                     54
                     A                      A                      A
 Frequencies --   973.9922               976.5818               987.6880
 Red. masses --     5.2466                 6.4583                 4.3520
 Frc consts  --     2.9325                 3.6290                 2.5014
 IR Inten    --    28.5805                42.1140               129.3112
 Raman Activ --     2.0306                 1.8523                 0.4589

                    55                     56                     57
                     A                      A                      A
 Frequencies --  1006.2265              1010.0946              1018.2643
 Red. masses --     6.5600                 5.5438                 6.6382
 Frc consts  --     3.9133                 3.3326                 4.0553
 IR Inten    --   269.6192                95.5369                79.6125
 Raman Activ --     1.4616                 1.6842                 3.2507

                    58                     59                     60
                     A                      A                      A
 Frequencies --  1046.1165              1054.0714              1063.4678
 Red. masses --     4.2273                 5.8098                 4.4857
 Frc consts  --     2.7257                 3.8032                 2.9890
 IR Inten    --   237.7018               155.1360                30.5053
 Raman Activ --     6.4697                 7.9298                 1.1406

                    61                     62                     63
                     A                      A                      A
 Frequencies --  1066.1997              1074.8311              1080.4296
 Red. masses --     5.2842                 3.9535                 4.6700
 Frc consts  --     3.5392                 2.6910                 3.2119
 IR Inten    --    73.1043                 9.8218               132.7405
 Raman Activ --     5.3338                17.9699                11.6553

                    64                     65                     66
                     A                      A                      A
 Frequencies --  1094.2606              1104.0822              1113.1608
 Red. masses --     2.9839                 2.8944                 2.9408
 Frc consts  --     2.1051                 2.0788                 2.1470
 IR Inten    --    75.4972                41.0678                10.8709
 Raman Activ --    13.6303                 1.7119                 1.8492

                    67                     68                     69
                     A                      A                      A
 Frequencies --  1121.8111              1126.4392              1129.0171
 Red. masses --     2.1332                 4.0519                 1.9764
 Frc consts  --     1.5817                 3.0292                 1.4844
 IR Inten    --    80.1245                11.6220                24.1496
 Raman Activ --     2.9086                 2.7062                 5.1373

                    70                     71                     72
                     A                      A                      A
 Frequencies --  1142.5943              1153.0534              1159.9864
 Red. masses --     2.4869                 2.2465                 2.2738
 Frc consts  --     1.9129                 1.7598                 1.8026
 IR Inten    --    10.3655                10.6757                61.4032
 Raman Activ --     2.8479                 3.4823                 7.3849

                    73                     74                     75
                     A                      A                      A
 Frequencies --  1165.0950              1172.2087              1188.8614
 Red. masses --     1.4306                 1.8425                 1.7180
 Frc consts  --     1.1442                 1.4916                 1.4306
 IR Inten    --     4.3434                24.3493                31.5356
 Raman Activ --     0.8498                 1.2174                 3.3798

                    76                     77                     78
                     A                      A                      A
 Frequencies --  1198.2459              1216.1628              1231.2096
 Red. masses --     1.4843                 1.3708                 1.2531
 Frc consts  --     1.2557                 1.1945                 1.1191
 IR Inten    --    22.0617                14.5421                 0.7784
 Raman Activ --     0.5613                 2.8252                 2.6966

                    79                     80                     81
                     A                      A                      A
 Frequencies --  1241.4832              1244.4823              1260.1768
 Red. masses --     1.2042                 1.3337                 1.3636
 Frc consts  --     1.0936                 1.2170                 1.2759
 IR Inten    --     5.2061                 4.0157                17.3751
 Raman Activ --     1.5297                 1.3238                 0.3342

                    82                     83                     84
                     A                      A                      A
 Frequencies --  1273.5714              1279.7894              1285.5553
 Red. masses --     1.1741                 1.4129                 1.1833
 Frc consts  --     1.1220                 1.3634                 1.1522
 IR Inten    --     7.8488                 2.7009                21.0252
 Raman Activ --     5.3353                 2.0463                 4.1105

                    85                     86                     87
                     A                      A                      A
 Frequencies --  1287.4477              1297.3941              1304.9779
 Red. masses --     1.3671                 1.3430                 1.2813
 Frc consts  --     1.3350                 1.3319                 1.2856
 IR Inten    --    34.1362                13.6816                 6.2671
 Raman Activ --     0.9523                 1.1634                 3.4682

                    88                     89                     90
                     A                      A                      A
 Frequencies --  1319.1366              1322.3638              1336.1436
 Red. masses --     1.2917                 1.2665                 1.1098
 Frc consts  --     1.3243                 1.3048                 1.1673
 IR Inten    --    18.0900                26.3658                44.8458
 Raman Activ --     6.0036                 2.2626                 4.3404

                    91                     92                     93
                     A                      A                      A
 Frequencies --  1343.7720              1349.7756              1356.7080
 Red. masses --     1.1832                 1.1978                 1.2748
 Frc consts  --     1.2588                 1.2858                 1.3825
 IR Inten    --    28.5768                17.0418                23.6304
 Raman Activ --     1.2136                10.9074                 4.6229

                    94                     95                     96
                     A                      A                      A
 Frequencies --  1358.6326              1367.3626              1379.1351
 Red. masses --     1.4093                 1.6204                 1.1009
 Frc consts  --     1.5327                 1.7850                 1.2337
 IR Inten    --     5.8475                 7.5487                27.9200
 Raman Activ --     3.2144                 7.1411                 3.8296

                    97                     98                     99
                     A                      A                      A
 Frequencies --  1380.8670              1390.3314              1393.8043
 Red. masses --     1.3883                 1.5601                 1.4237
 Frc consts  --     1.5597                 1.7768                 1.6295
 IR Inten    --     3.6587                 7.0241                 5.1924
 Raman Activ --     5.3258                 2.7847                12.5762

                   100                    101                    102
                     A                      A                      A
 Frequencies --  1436.5946              1447.1107              1456.0951
 Red. masses --     1.2927                 1.4162                 1.4292
 Frc consts  --     1.5718                 1.7473                 1.7853
 IR Inten    --    44.8501                10.7354                43.6961
 Raman Activ --     1.9989                 1.2355                 2.9737

                   103                    104                    105
                     A                      A                      A
 Frequencies --  1469.5318              1470.7404              1474.2368
 Red. masses --     1.1793                 1.1614                 1.2003
 Frc consts  --     1.5004                 1.4801                 1.5371
 IR Inten    --    34.5187                 0.8924                34.6136
 Raman Activ --     3.2752                 3.3091                 3.8349

                   106                    107                    108
                     A                      A                      A
 Frequencies --  1477.6730              1500.3466              3253.9654
 Red. masses --     1.2512                 1.3756                 1.0794
 Frc consts  --     1.6097                 1.8245                 6.7336
 IR Inten    --     6.9620                83.4667                11.5567
 Raman Activ --     0.7474                 1.7438               100.0324

                   109                    110                    111
                     A                      A                      A
 Frequencies --  3257.7340              3258.9370              3262.3267
 Red. masses --     1.0774                 1.0583                 1.0596
 Frc consts  --     6.7370                 6.6222                 6.6440
 IR Inten    --    35.1426                21.7090                42.9183
 Raman Activ --    80.8102                52.8962               126.1990

                   112                    113                    114
                     A                      A                      A
 Frequencies --  3269.2570              3272.1917              3277.6612
 Red. masses --     1.0834                 1.0824                 1.0837
 Frc consts  --     6.8222                 6.8286                 6.8593
 IR Inten    --    17.6086                 7.5727                13.3806
 Raman Activ --     3.5138                18.4076               152.6874

                   115                    116                    117
                     A                      A                      A
 Frequencies --  3284.6430              3285.8985              3294.9016
 Red. masses --     1.0854                 1.0855                 1.0865
 Frc consts  --     6.8992                 6.9054                 6.9495
 IR Inten    --     5.1541                13.1981                25.4716
 Raman Activ --     6.8878               105.1171                25.7081

                   118                    119                    120
                     A                      A                      A
 Frequencies --  3296.5274              3302.4277              3304.4436
 Red. masses --     1.0825                 1.0748                 1.0847
 Frc consts  --     6.9311                 6.9066                 6.9785
 IR Inten    --    70.6694               174.3863               152.7540
 Raman Activ --    44.0725               192.8845                57.1619

                   121                    122                    123
                     A                      A                      A
 Frequencies --  3314.1736              3317.9280              3322.6899
 Red. masses --     1.0844                 1.0886                 1.1070
 Frc consts  --     7.0173                 7.0605                 7.2009
 IR Inten    --   501.8504               365.5457                38.1032
 Raman Activ --    33.7902                78.4441                34.1936

                   124                    125                    126
                     A                      A                      A
 Frequencies --  3354.2960              3364.1850              3370.9037
 Red. masses --     1.0648                 1.0674                 1.0658
 Frc consts  --     7.0589                 7.1175                 7.1353
 IR Inten    --    34.3064                38.5395                26.5053
 Raman Activ --    81.7389               171.1640               143.5487

                   127                    128                    129
                     A                      A                      A
 Frequencies --  3378.5030              3890.3263              3891.7196
 Red. masses --     1.0685                 1.0676                 1.0675
 Frc consts  --     7.1859                 9.5198                 9.5256
 IR Inten    --    64.4451                78.5274                70.2214
 Raman Activ --   152.0431                91.6243               125.2461

 - Thermochemistry -
 -------------------
 Temperature   298.150 Kelvin.  Pressure   1.00000 Atm.
 Atom     1 has atomic number  8 and mass  15.99491

 Molecular mass:   342.11621 amu.
 Principal axes and moments of inertia in atomic units:
                           1         2         3
     Eigenvalues --  4417.64172********************
           X            0.99997   0.00729   0.00007
           Y           -0.00729   0.99997  -0.00068
           Z           -0.00008   0.00068   1.00000
 This molecule is an asymmetric top.
 Rotational symmetry number  1.
 Warning -- assumption of classical behavior for rotation
           may cause significant error
 Rotational temperatures (Kelvin)      0.01961     0.00700     0.00532
 Rotational constants (GHZ):           0.40853     0.14583     0.11089
    7 imaginary frequencies ignored.
 Zero-point vibrational energy     974357.5 (Joules/Mol)
                                  232.87702 (Kcal/Mol)
 Warning -- explicit consideration of  31 degrees of freedom as
           vibrations may cause significant error
 Vibrational temperatures:     37.15    67.46   107.27   127.61   157.51
          (Kelvin)            198.22   237.05   262.82   289.86   339.40
                              385.43   398.79   412.94   427.61   451.33
                              464.73   478.65   489.83   520.23   558.75
                              578.86   605.52   615.04   628.61   691.44
                              701.40   732.59   754.45   815.09   829.16
                              865.94   899.00   920.48   991.29   997.63
                             1005.28  1028.64  1032.21  1075.49  1228.87
                             1229.91  1285.95  1334.48  1364.19  1401.36
                             1405.08  1421.06  1447.73  1453.30  1465.05
                             1505.13  1516.57  1530.09  1534.02  1546.44
                             1554.50  1574.40  1588.53  1601.59  1614.03
                             1620.69  1624.40  1643.94  1658.98  1668.96
                             1676.31  1686.54  1710.50  1724.01  1749.78
                             1771.43  1786.22  1790.53  1813.11  1832.38
                             1841.33  1849.63  1852.35  1866.66  1877.57
                             1897.94  1902.58  1922.41  1933.39  1942.02
                             1952.00  1954.77  1967.33  1984.27  1986.76
                             2000.37  2005.37  2066.94  2082.07  2094.99
                             2114.33  2116.06  2121.10  2126.04  2158.66
                             4681.72  4687.15  4688.88  4693.75  4703.73
                             4707.95  4715.82  4725.86  4727.67  4740.62
                             4742.96  4751.45  4754.35  4768.35  4773.75
                             4780.60  4826.08  4840.31  4849.97  4860.91
                             5597.30  5599.31

 Zero-point correction=                           0.371113 (Hartree/Particle)
 Thermal correction to Energy=                    0.389604
 Thermal correction to Enthalpy=                  0.390548
 Thermal correction to Gibbs Free Energy=         0.324601
 Sum of electronic and zero-point Energies=          -1297.620304
 Sum of electronic and thermal Energies=             -1297.601813
 Sum of electronic and thermal Enthalpies=           -1297.600869
 Sum of electronic and thermal Free Energies=        -1297.666816

                     E (Thermal)             CV                S
                      KCal/Mol        Cal/Mol-Kelvin    Cal/Mol-Kelvin
 Total                  244.480             75.997            138.797
 Electronic               0.000              0.000              0.000
 Translational            0.889              2.981             43.384
 Rotational               0.889              2.981             35.141
 Vibrational            242.703             70.036             60.272
 Vibration     1          0.593              1.985              6.127
 Vibration     2          0.595              1.979              4.945
 Vibration     3          0.599              1.966              4.029
 Vibration     4          0.602              1.957              3.689
 Vibration     5          0.606              1.942              3.278
 Vibration     6          0.614              1.916              2.835
 Vibration     7          0.623              1.886              2.494
 Vibration     8          0.630              1.863              2.301
 Vibration     9          0.638              1.838              2.120
 Vibration    10          0.655              1.786              1.834
 Vibration    11          0.673              1.732              1.610
 Vibration    12          0.678              1.716              1.551
 Vibration    13          0.684              1.698              1.492
 Vibration    14          0.691              1.679              1.433
 Vibration    15          0.702              1.648              1.343
 Vibration    16          0.708              1.629              1.295
 Vibration    17          0.715              1.610              1.247
 Vibration    18          0.720              1.595              1.210
 Vibration    19          0.736              1.551              1.115
 Vibration    20          0.757              1.495              1.006
 Vibration    21          0.768              1.465              0.954
 Vibration    22          0.783              1.425              0.889
 Vibration    23          0.789              1.410              0.867
 Vibration    24          0.797              1.390              0.836
 Vibration    25          0.837              1.293              0.709
 Vibration    26          0.843              1.278              0.690
 Vibration    27          0.864              1.230              0.636
 Vibration    28          0.879              1.196              0.600
 Vibration    29          0.922              1.104              0.511
 Vibration    30          0.933              1.083              0.492
 Vibration    31          0.960              1.028              0.446

 Normal termination of Gaussian 09 at Mon Mar 21 22:23:17 2016.
