 Gaussian 09, Revision B.01,
 Gaussian 09:  EM64L-G09RevB.01 12-Aug-2010

 -------------------------------------------------
 # freq=raman b3lyp/6-31+g(2d,p) geom=connectivity
 -------------------------------------------------

 -----------------
 483 9066/9066.com
 -----------------
 Symbolic Z-matrix:
 Charge =  0 Multiplicity = 1

                         Standard orientation:
 ---------------------------------------------------------------------
 Center     Atomic      Atomic             Coordinates (Angstroms)
 Number     Number       Type             X           Y           Z
 ---------------------------------------------------------------------
      1          8           0        5.078832   -0.377963   -0.274109
      2          6           0        3.759850   -0.120019    0.228954
      3          6           0        3.299556    1.261037   -0.207041
      4          8           0        4.267711    2.277298    0.092153
      5          1           0        5.141601    1.904890   -0.218840
      6          6           0        1.922677    1.448457    0.409500
      7          8           0        1.361032    2.645968   -0.146558
      8          1           0        0.413243    2.856724    0.092808
      9          6           0        2.923474   -2.624682   -0.042065
     10          8           0        4.130382   -3.340133   -0.341733
     11          1           0        3.970593   -4.307149   -0.139654
     12          6           0        2.754118   -1.134575   -0.290463
     13          8           0        1.420786   -0.937512    0.203512
     14          6           0        0.974673    0.386668   -0.123539
     15          8           0       -0.264567    0.499363    0.592044
     16          6           0       -1.493509    0.176479   -0.075081
     17          6           0       -2.087295   -1.150394    0.369724
     18          8           0       -1.141721   -2.207092    0.152188
     19          1           0       -0.251275   -1.752530    0.153530
     20          6           0       -3.498800   -1.435433   -0.118537
     21          8           0       -4.120410   -2.562550    0.515068
     22          1           0       -5.012859   -2.777346    0.119908
     23          6           0       -2.104248    2.584564   -0.279198
     24          8           0       -0.965983    3.325559    0.181552
     25          1           0       -1.066829    4.314015    0.299729
     26          6           0       -2.545041    1.226674    0.243274
     27          8           0       -3.810952    0.922836   -0.361357
     28          6           0       -4.459673   -0.275462    0.086366
     29          8           0       -5.604209   -0.441699   -0.764167
     30          1           0       -6.386172   -0.580634   -0.224879
     31          1           0       -4.751691   -0.193608    1.112488
     32          1           0       -3.445893   -1.636707   -1.168104
     33          1           0       -2.176840   -1.071928    1.433080
     34          1           0       -1.326263    0.152438   -1.131656
     35          1           0       -2.670024    1.284591    1.304370
     36          1           0       -2.945767    3.233343   -0.153380
     37          1           0        5.678088   -0.527359    0.460855
     38          1           0        2.140397   -3.112434   -0.584087
     39          1           0        2.729380   -2.781696    0.998403
     40          1           0        2.716362   -1.003158   -1.351690
     41          1           0        3.778756   -0.161575    1.297980
     42          1           0        3.176228    1.240473   -1.269711
     43          1           0        1.950145    1.471102    1.478907
     44          1           0        0.822611    0.494750   -1.177150
     45          1           0       -1.965694    2.461313   -1.333006
 ---------------------------------------------------------------------

 SCF Done:  E(RB3LYP) =  -1297.97373096     A.U. after   13 cycles

 The electronic state is 1-A.
 Alpha  occ. eigenvalues --  -19.19625 -19.18657 -19.18349 -19.18320 -19.18061
 Alpha  occ. eigenvalues --  -19.16923 -19.16111 -19.15577 -19.14955 -19.13831
 Alpha  occ. eigenvalues --  -19.11101 -10.31026 -10.30398 -10.26614 -10.25961
 Alpha  occ. eigenvalues --  -10.25894 -10.25455 -10.24978 -10.24944 -10.24256
 Alpha  occ. eigenvalues --  -10.24019 -10.23784 -10.23550  -1.10237  -1.09278
 Alpha  occ. eigenvalues --   -1.06542  -1.05209  -1.04266  -1.03736  -1.02776
 Alpha  occ. eigenvalues --   -1.01998  -1.01433  -1.00723  -0.98800  -0.82559
 Alpha  occ. eigenvalues --   -0.80540  -0.79593  -0.78077  -0.72352  -0.69769
 Alpha  occ. eigenvalues --   -0.67602  -0.64805  -0.63835  -0.62097  -0.61367
 Alpha  occ. eigenvalues --   -0.60371  -0.56958  -0.56746  -0.55521  -0.55030
 Alpha  occ. eigenvalues --   -0.53892  -0.53773  -0.52758  -0.51656  -0.51051
 Alpha  occ. eigenvalues --   -0.50857  -0.50396  -0.49081  -0.48770  -0.46861
 Alpha  occ. eigenvalues --   -0.46477  -0.45493  -0.44404  -0.43862  -0.43316
 Alpha  occ. eigenvalues --   -0.42448  -0.42088  -0.40929  -0.40052  -0.39457
 Alpha  occ. eigenvalues --   -0.38959  -0.38129  -0.37415  -0.35995  -0.35424
 Alpha  occ. eigenvalues --   -0.34984  -0.34745  -0.34358  -0.33876  -0.33750
 Alpha  occ. eigenvalues --   -0.32177  -0.31978  -0.31040  -0.29963  -0.29433
 Alpha  occ. eigenvalues --   -0.29291  -0.27965  -0.27899  -0.27205  -0.26418
 Alpha  occ. eigenvalues --   -0.26014
 Alpha virt. eigenvalues --   -0.02443  -0.02159  -0.01566  -0.00148   0.00184
 Alpha virt. eigenvalues --    0.00855   0.02126   0.02190   0.02867   0.03639
 Alpha virt. eigenvalues --    0.04062   0.04150   0.04714   0.05285   0.05744

 Mulliken atomic charges:
              1
     1  O   -0.548627
     2  C   -0.037350
     3  C    0.056367
     4  O   -0.564858
     5  H    0.346799
     6  C    0.120758
     7  O   -0.633650
     8  H    0.472839
     9  C   -0.206078
    10  O   -0.535073
    11  H    0.333652
    12  C    0.223583
    13  O   -0.250479
    14  C    0.029133
    15  O   -0.215607
    16  C    0.097379
    17  C    0.224902
    18  O   -0.594062
    19  H    0.395622
    20  C    0.183537
    21  O   -0.550942
    22  H    0.337070
    23  C   -0.298237
    24  O   -0.594563
    25  H    0.374230
    26  C    0.024966
    27  O   -0.261340
    28  C    0.095130
    29  O   -0.534876
    30  H    0.336831
    31  H    0.135435
    32  H    0.131541
    33  H    0.114440
    34  H    0.118762
    35  H    0.124476
    36  H    0.145480
    37  H    0.340369
    38  H    0.150385
    39  H    0.140994
    40  H    0.107019
    41  H    0.115929
    42  H    0.118538
    43  H    0.131700
    44  H    0.137042
    45  H    0.160836
 Sum of Mulliken atomic charges =   0.00000

 Dipole moment (field-independent basis, Debye):
    X=             -3.4571    Y=              0.7528    Z=              1.7296  Tot=              3.9383
 Quadrupole moment (field-independent basis, Debye-Ang):
   XX=           -118.2714   YY=           -136.2185   ZZ=           -139.0710
   XY=            -14.5487   XZ=              1.0290   YZ=              2.0993

  Exact polarizability: 237.775   2.770 196.283   0.446  -0.617 143.125
 Approx polarizability: 278.028   3.628 255.655  -0.331  -0.933 238.279

 ******    7 imaginary frequencies (negative Signs) ******

                     1                      2                      3
                     A                      A                      A
 Frequencies --  -303.3651              -303.3412              -216.2130
 Red. masses --     1.7137                 1.7113                 1.2143
 Frc consts  --     0.0929                 0.0928                 0.0334
 IR Inten    --     2.0318                 5.2092                76.5251
 Raman Activ --     0.0206                 0.0764                 1.0547

                     4                      5                      6
                     A                      A                      A
 Frequencies --  -214.2244              -112.0299               -71.3792
 Red. masses --     1.1744                 7.5478                 6.8622
 Frc consts  --     0.0318                 0.0558                 0.0206
 IR Inten    --   141.4920                 1.2782                 0.9062
 Raman Activ --     0.4897                 0.0222                 0.0325

                     7                      8                      9
                     A                      A                      A
 Frequencies --   -29.4164                32.1606                64.1878
 Red. masses --     6.7460                 6.1147                 7.1500
 Frc consts  --     0.0034                 0.0037                 0.0174
 IR Inten    --     0.9090                 1.1201                 1.4784
 Raman Activ --     0.0299                 0.0113                 0.0390

                    10                     11                     12
                     A                      A                      A
 Frequencies --    74.7826               111.5286               118.9067
 Red. masses --     6.6479                 5.7210                 6.1343
 Frc consts  --     0.0219                 0.0419                 0.0511
 IR Inten    --     1.0923                 6.3081                 0.3611
 Raman Activ --     0.3200                 0.0260                 0.0883

                    13                     14                     15
                     A                      A                      A
 Frequencies --   161.8824               167.2542               180.3435
 Red. masses --     6.7399                 5.9580                 7.6986
 Frc consts  --     0.1041                 0.0982                 0.1475
 IR Inten    --     2.5725                 3.1451                 3.6192
 Raman Activ --     0.2573                 0.2648                 1.7547

                    16                     17                     18
                     A                      A                      A
 Frequencies --   219.0691               252.1581               275.4558
 Red. masses --     6.6924                 5.7273                 4.7727
 Frc consts  --     0.1892                 0.2146                 0.2134
 IR Inten    --     0.4196                 2.6885                10.4840
 Raman Activ --     2.0603                 0.7467                 1.5809

                    19                     20                     21
                     A                      A                      A
 Frequencies --   283.5987               296.7278               300.6467
 Red. masses --     4.9010                 4.9917                 4.9448
 Frc consts  --     0.2322                 0.2589                 0.2633
 IR Inten    --     3.5622                 3.6228                 2.0807
 Raman Activ --     0.1773                 0.9852                 0.5426

                    22                     23                     24
                     A                      A                      A
 Frequencies --   302.4821               311.3281               329.7887
 Red. masses --     5.3904                 4.9848                 6.6800
 Frc consts  --     0.2906                 0.2847                 0.4281
 IR Inten    --     5.3041                 9.8511                 1.1895
 Raman Activ --     2.2667                 0.3206                 3.8429

                    25                     26                     27
                     A                      A                      A
 Frequencies --   352.1456               372.4562               381.8381
 Red. masses --     5.4114                 6.8372                 5.6937
 Frc consts  --     0.3954                 0.5588                 0.4891
 IR Inten    --     6.4592                10.8643                 7.5002
 Raman Activ --     0.7043                 1.3573                 1.6544

                    28                     29                     30
                     A                      A                      A
 Frequencies --   395.6657               421.5415               435.4480
 Red. masses --     4.4466                 4.8190                 4.5242
 Frc consts  --     0.4101                 0.5045                 0.5054
 IR Inten    --    27.6901                 1.8345                 5.1493
 Raman Activ --     2.0442                 7.5402                 1.7636

                    31                     32                     33
                     A                      A                      A
 Frequencies --   468.8759               477.3093               483.9180
 Red. masses --     6.2458                 4.8615                 3.7862
 Frc consts  --     0.8090                 0.6526                 0.5224
 IR Inten    --     0.2832                13.0673                 7.2687
 Raman Activ --     1.6174                 0.9638                 2.2610

                    34                     35                     36
                     A                      A                      A
 Frequencies --   511.9045               532.5857               568.3014
 Red. masses --     4.1396                 3.1107                 2.0394
 Frc consts  --     0.6391                 0.5199                 0.3881
 IR Inten    --     8.3647                16.5835                21.5985
 Raman Activ --     2.2331                 4.4463                 0.7450

                    37                     38                     39
                     A                      A                      A
 Frequencies --   576.4638               598.8741               606.7420
 Red. masses --     3.6011                 1.5302                 5.0837
 Frc consts  --     0.7051                 0.3234                 1.1027
 IR Inten    --    14.6712                78.8139                10.0841
 Raman Activ --     1.7480                 1.1464                 0.7456

                    40                     41                     42
                     A                      A                      A
 Frequencies --   620.9306               638.8578               680.3584
 Red. masses --     4.2362                 3.8729                 5.6044
 Frc consts  --     0.9623                 0.9313                 1.5285
 IR Inten    --    45.8514                16.6664                 9.6381
 Raman Activ --     0.7318                 1.5357                 1.5103

                    43                     44                     45
                     A                      A                      A
 Frequencies --   700.6752               707.2385               755.8560
 Red. masses --     1.0580                 1.0671                 1.0694
 Frc consts  --     0.3060                 0.3145                 0.3600
 IR Inten    --    85.9626               108.7940                67.2774
 Raman Activ --     1.8260                 1.9005                 1.4309

                    46                     47                     48
                     A                      A                      A
 Frequencies --   759.3009               827.0224               850.5818
 Red. masses --     1.0741                 1.3636                 1.8710
 Frc consts  --     0.3648                 0.5495                 0.7975
 IR Inten    --    72.4257                29.7475                 3.8930
 Raman Activ --     0.5657                 0.3651                 1.1532

                    49                     50                     51
                     A                      A                      A
 Frequencies --   887.3941               914.8675               946.4308
 Red. masses --     1.2977                 5.7304                 5.3434
 Frc consts  --     0.6021                 2.8259                 2.8200
 IR Inten    --    25.8836               126.2840                34.9183
 Raman Activ --     0.3114                 3.3930                 0.1823

                    52                     53                     54
                     A                      A                      A
 Frequencies --   968.0949               974.5293               987.4367
 Red. masses --     4.2837                 5.2585                 6.9718
 Frc consts  --     2.3654                 2.9424                 4.0051
 IR Inten    --    26.2893               110.8479                63.9094
 Raman Activ --     2.4356                 2.3508                 2.3216

                    55                     56                     57
                     A                      A                      A
 Frequencies --   993.1754              1002.1304              1016.0632
 Red. masses --     7.3742                 6.3985                 5.3457
 Frc consts  --     4.2856                 3.7860                 3.2516
 IR Inten    --   296.6845               178.5742               255.9496
 Raman Activ --     2.4065                 2.2769                 2.7393

                    58                     59                     60
                     A                      A                      A
 Frequencies --  1029.9618              1047.5839              1052.7861
 Red. masses --     6.4499                 5.1258                 3.8512
 Frc consts  --     4.0313                 3.3143                 2.5150
 IR Inten    --   338.1422                90.2790                 9.7067
 Raman Activ --     2.6361                 5.8097                 7.5275

                    61                     62                     63
                     A                      A                      A
 Frequencies --  1067.6775              1071.1132              1077.9463
 Red. masses --     5.7336                 4.0513                 2.9850
 Frc consts  --     3.8508                 2.7385                 2.0435
 IR Inten    --     4.6676                 0.4607                13.6529
 Raman Activ --     2.2227                12.5365                 8.9557

                    64                     65                     66
                     A                      A                      A
 Frequencies --  1082.4566              1105.4887              1112.2093
 Red. masses --     3.1268                 3.0479                 2.3897
 Frc consts  --     2.1586                 2.1946                 1.7417
 IR Inten    --   136.6998                51.9135                46.0299
 Raman Activ --    13.9837                 3.6129                 6.3432

                    67                     68                     69
                     A                      A                      A
 Frequencies --  1119.4475              1125.0761              1130.3055
 Red. masses --     2.6905                 2.5992                 2.2389
 Frc consts  --     1.9865                 1.9385                 1.6853
 IR Inten    --     7.9578                27.1310                93.8129
 Raman Activ --     4.0991                 4.8644                10.5694

                    70                     71                     72
                     A                      A                      A
 Frequencies --  1134.9943              1150.1064              1155.8359
 Red. masses --     2.9768                 1.8497                 2.1454
 Frc consts  --     2.2594                 1.4415                 1.6887
 IR Inten    --    37.1826                22.6821                 0.5742
 Raman Activ --     6.1515                 5.1232                 1.3527

                    73                     74                     75
                     A                      A                      A
 Frequencies --  1161.7953              1169.9123              1187.2850
 Red. masses --     1.8814                 1.7767                 1.7981
 Frc consts  --     1.4962                 1.4327                 1.4934
 IR Inten    --     2.5022                 4.2450                28.4679
 Raman Activ --     4.1361                 0.9350                 1.9344

                    76                     77                     78
                     A                      A                      A
 Frequencies --  1205.1395              1211.3441              1222.4519
 Red. masses --     1.2596                 1.5121                 1.3839
 Frc consts  --     1.0778                 1.3072                 1.2184
 IR Inten    --    12.4061                15.3848                 4.2424
 Raman Activ --     1.4403                 2.1327                 0.6768

                    79                     80                     81
                     A                      A                      A
 Frequencies --  1236.1336              1241.8387              1255.6741
 Red. masses --     1.1973                 1.2169                 1.2675
 Frc consts  --     1.0779                 1.1057                 1.1775
 IR Inten    --    11.5013                 4.7898                 0.5181
 Raman Activ --     1.0419                 2.3712                 3.4553

                    82                     83                     84
                     A                      A                      A
 Frequencies --  1258.6791              1280.3110              1287.8165
 Red. masses --     1.3130                 1.2374                 1.3645
 Frc consts  --     1.2256                 1.1951                 1.3333
 IR Inten    --    37.5167                20.9108                53.6068
 Raman Activ --     1.9439                 2.0457                 1.3286

                    85                     86                     87
                     A                      A                      A
 Frequencies --  1289.6552              1296.0133              1304.7215
 Red. masses --     1.2261                 1.2879                 1.3688
 Frc consts  --     1.2015                 1.2746                 1.3729
 IR Inten    --    15.5743                21.8739                18.0308
 Raman Activ --     3.0271                 8.3773                 2.5733

                    88                     89                     90
                     A                      A                      A
 Frequencies --  1310.4480              1324.0362              1327.2549
 Red. masses --     1.4457                 1.3636                 1.1947
 Frc consts  --     1.4627                 1.4085                 1.2399
 IR Inten    --     6.6633                32.8194                 2.6228
 Raman Activ --     3.5669                 2.6581                11.8764

                    91                     92                     93
                     A                      A                      A
 Frequencies --  1346.0007              1350.8058              1357.2021
 Red. masses --     1.1118                 1.1867                 1.3732
 Frc consts  --     1.1868                 1.2757                 1.4903
 IR Inten    --    33.5140                32.0806                 0.9464
 Raman Activ --     2.5394                 7.1567                 3.2009

                    94                     95                     96
                     A                      A                      A
 Frequencies --  1365.9452              1369.0067              1371.8581
 Red. masses --     1.3028                 1.3875                 1.1841
 Frc consts  --     1.4322                 1.5321                 1.3130
 IR Inten    --    25.3153                13.4238                57.5767
 Raman Activ --     6.3152                 3.8841                 3.8331

                    97                     98                     99
                     A                      A                      A
 Frequencies --  1382.9482              1384.0136              1405.5591
 Red. masses --     1.5674                 1.3894                 1.4995
 Frc consts  --     1.7662                 1.5681                 1.7453
 IR Inten    --     3.2203                 6.0501                 6.5282
 Raman Activ --     3.6904                 6.0014                 4.8870

                   100                    101                    102
                     A                      A                      A
 Frequencies --  1409.5647              1424.6016              1441.3940
 Red. masses --     1.5427                 1.2514                 1.2919
 Frc consts  --     1.8060                 1.4964                 1.5815
 IR Inten    --    31.5943                35.3889                 0.3852
 Raman Activ --     0.8736                 0.8803                 0.8997

                   103                    104                    105
                     A                      A                      A
 Frequencies --  1456.3964              1466.4306              1470.4392
 Red. masses --     1.4192                 1.0895                 1.1085
 Frc consts  --     1.7736                 1.3804                 1.4122
 IR Inten    --    60.5587                12.6357                 7.1878
 Raman Activ --     2.3627                 3.6809                 5.1624

                   106                    107                    108
                     A                      A                      A
 Frequencies --  1480.9674              1530.4255              3163.6587
 Red. masses --     1.3444                 1.2244                 1.0710
 Frc consts  --     1.7373                 1.6897                 6.3157
 IR Inten    --     8.9475                59.5824              1741.8817
 Raman Activ --     0.4615                 2.5967               181.6503

                   109                    110                    111
                     A                      A                      A
 Frequencies --  3255.0719              3256.5736              3261.6798
 Red. masses --     1.0589                 1.0796                 1.0811
 Frc consts  --     6.6107                 6.7459                 6.7766
 IR Inten    --    25.5440                48.8197                26.8987
 Raman Activ --    90.3959                45.3522                22.1942

                   112                    113                    114
                     A                      A                      A
 Frequencies --  3263.9482              3273.3664              3274.4618
 Red. masses --     1.0602                 1.0821                 1.0822
 Frc consts  --     6.6548                 6.8314                 6.8367
 IR Inten    --     6.9405                 5.9265                 5.7100
 Raman Activ --   173.8963               123.0505                46.6475

                   115                    116                    117
                     A                      A                      A
 Frequencies --  3283.2161              3287.8907              3288.6763
 Red. masses --     1.0838                 1.0869                 1.0863
 Frc consts  --     6.8836                 6.9226                 6.9221
 IR Inten    --     2.6591                11.9680                 5.3921
 Raman Activ --    97.6142                 9.2481                18.8608

                   118                    119                    120
                     A                      A                      A
 Frequencies --  3295.5782              3298.4229              3305.1229
 Red. masses --     1.0851                 1.0869                 1.0979
 Frc consts  --     6.9439                 6.9671                 7.0661
 IR Inten    --    10.5271                96.8247                17.8480
 Raman Activ --    95.1838                16.6448                27.7107

                   121                    122                    123
                     A                      A                      A
 Frequencies --  3307.9578              3311.9062              3315.8964
 Red. masses --     1.0899                 1.0735                 1.1024
 Frc consts  --     7.0268                 6.9373                 7.1416
 IR Inten    --   167.1642               518.1203                62.1438
 Raman Activ --    15.6002               160.7261                28.7286

                   124                    125                    126
                     A                      A                      A
 Frequencies --  3358.2076              3367.5511              3369.6706
 Red. masses --     1.0669                 1.0695                 1.0649
 Frc consts  --     7.0890                 7.1462                 7.1244
 IR Inten    --    46.6220               101.8979                46.0483
 Raman Activ --   151.4825               167.5855                98.5051

                   127                    128                    129
                     A                      A                      A
 Frequencies --  3377.1399              3890.3637              3893.1737
 Red. masses --     1.0665                 1.0676                 1.0674
 Frc consts  --     7.1664                 9.5202                 9.5323
 IR Inten    --    41.6393                82.3921                77.4724
 Raman Activ --   151.5537                88.4701               120.9344

 - Thermochemistry -
 -------------------
 Temperature   298.150 Kelvin.  Pressure   1.00000 Atm.
 Atom     1 has atomic number  8 and mass  15.99491

 Molecular mass:   342.11621 amu.
 Principal axes and moments of inertia in atomic units:
                           1         2         3
     Eigenvalues --  4337.92657********************
           X            0.99998  -0.00646  -0.00036
           Y            0.00646   0.99998  -0.00078
           Z            0.00036   0.00078   1.00000
 This molecule is an asymmetric top.
 Rotational symmetry number  1.
 Warning -- assumption of classical behavior for rotation
           may cause significant error
 Rotational temperatures (Kelvin)      0.01997     0.00686     0.00523
 Rotational constants (GHZ):           0.41604     0.14300     0.10892
    7 imaginary frequencies ignored.
 Zero-point vibrational energy     972826.6 (Joules/Mol)
                                  232.51114 (Kcal/Mol)
 Warning -- explicit consideration of  32 degrees of freedom as
           vibrations may cause significant error
 Vibrational temperatures:     46.27    92.35   107.60   160.46   171.08
          (Kelvin)            232.91   240.64   259.47   315.19   362.80
                              396.32   408.03   426.92   432.56   435.20
                              447.93   474.49   506.66   535.88   549.38
                              569.27   606.50   626.51   674.61   686.74
                              696.25   736.52   766.27   817.66   829.40
                              861.65   872.97   893.38   919.17   978.88
                             1008.11  1017.56  1087.51  1092.46  1189.90
                             1223.80  1276.76  1316.29  1361.70  1392.87
                             1402.13  1420.70  1428.96  1441.84  1461.89
                             1481.88  1507.24  1514.72  1536.15  1541.09
                             1550.92  1557.41  1590.55  1600.22  1610.63
                             1618.73  1626.26  1633.00  1654.74  1662.99
                             1671.56  1683.24  1708.24  1733.92  1742.85
                             1758.83  1778.52  1786.73  1806.63  1810.96
                             1842.08  1852.88  1855.52  1864.67  1877.20
                             1885.44  1904.99  1909.62  1936.59  1943.51
                             1952.71  1965.29  1969.69  1973.80  1989.75
                             1991.28  2022.28  2028.05  2049.68  2073.84
                             2095.43  2109.86  2115.63  2130.78  2201.94
                             4551.79  4683.32  4685.48  4692.82  4696.09
                             4709.64  4711.21  4723.81  4730.54  4731.67
                             4741.60  4745.69  4755.33  4759.41  4765.09
                             4770.83  4831.71  4845.15  4848.20  4858.94
                             5597.36  5601.40

 Zero-point correction=                           0.370530 (Hartree/Particle)
 Thermal correction to Energy=                    0.388824
 Thermal correction to Enthalpy=                  0.389768
 Thermal correction to Gibbs Free Energy=         0.324898
 Sum of electronic and zero-point Energies=          -1297.603201
 Sum of electronic and thermal Energies=             -1297.584907
 Sum of electronic and thermal Enthalpies=           -1297.583963
 Sum of electronic and thermal Free Energies=        -1297.648833

                     E (Thermal)             CV                S
                      KCal/Mol        Cal/Mol-Kelvin    Cal/Mol-Kelvin
 Total                  243.991             76.105            136.530
 Electronic               0.000              0.000              0.000
 Translational            0.889              2.981             43.384
 Rotational               0.889              2.981             35.160
 Vibrational            242.213             70.144             57.985
 Vibration     1          0.594              1.983              5.691
 Vibration     2          0.597              1.971              4.324
 Vibration     3          0.599              1.966              4.023
 Vibration     4          0.607              1.940              3.242
 Vibration     5          0.609              1.934              3.118
 Vibration     6          0.622              1.889              2.528
 Vibration     7          0.624              1.883              2.466
 Vibration     8          0.629              1.866              2.325
 Vibration     9          0.647              1.812              1.967
 Vibration    10          0.664              1.759              1.715
 Vibration    11          0.677              1.719              1.562
 Vibration    12          0.682              1.704              1.512
 Vibration    13          0.690              1.680              1.435
 Vibration    14          0.693              1.672              1.413
 Vibration    15          0.694              1.669              1.403
 Vibration    16          0.700              1.652              1.355
 Vibration    17          0.713              1.616              1.261
 Vibration    18          0.729              1.571              1.157
 Vibration    19          0.744              1.529              1.070
 Vibration    20          0.751              1.509              1.032
 Vibration    21          0.762              1.479              0.979
 Vibration    22          0.784              1.423              0.887
 Vibration    23          0.796              1.393              0.841
 Vibration    24          0.826              1.319              0.741
 Vibration    25          0.834              1.300              0.717
 Vibration    26          0.840              1.286              0.700
 Vibration    27          0.867              1.224              0.629
 Vibration    28          0.888              1.178              0.581
 Vibration    29          0.924              1.100              0.508
 Vibration    30          0.933              1.082              0.492
 Vibration    31          0.957              1.034              0.452
 Vibration    32          0.965              1.018              0.438

 Normal termination of Gaussian 09 at Thu Mar 31 02:32:23 2016.
