 Gaussian 09, Revision B.01,
 Gaussian 09:  EM64L-G09RevB.01 12-Aug-2010

 -------------------------------------------------
 # freq=raman b3lyp/6-31+g(2d,p) geom=connectivity
 -------------------------------------------------

 -----------------
 300 7623/7623.com
 -----------------
 Symbolic Z-matrix:
 Charge =  0 Multiplicity = 1

                         Standard orientation:
 ---------------------------------------------------------------------
 Center     Atomic      Atomic             Coordinates (Angstroms)
 Number     Number       Type             X           Y           Z
 ---------------------------------------------------------------------
      1          8           0        5.072485   -0.369896   -0.180482
      2          6           0        3.777169   -0.029391    0.335793
      3          6           0        3.307813    1.271132   -0.295341
      4          8           0        4.201177    2.336312    0.063712
      5          1           0        5.077892    1.908283   -0.157574
      6          6           0        1.837551    1.558871   -0.039465
      7          8           0        1.123728    2.611127   -0.703039
      8          1           0        0.256930    2.805890   -0.244185
      9          6           0        2.952821   -2.590753    0.091216
     10          8           0        4.192283   -3.171557   -0.341798
     11          1           0        4.098735   -4.143718   -0.126221
     12          6           0        2.770574   -1.091310   -0.075490
     13          8           0        1.476792   -0.835707    0.488944
     14          6           0        0.964009    0.322831   -0.183848
     15          8           0       -0.204696    0.511030    0.627175
     16          6           0       -1.476433    0.185530    0.049637
     17          6           0       -1.995250   -1.199045    0.403500
     18          8           0       -0.965247   -2.042853   -0.132263
     19          1           0       -0.242286   -1.792689    0.511656
     20          6           0       -3.348437   -1.491955   -0.223688
     21          8           0       -3.926352   -2.736678    0.197835
     22          1           0       -4.866107   -2.828876   -0.132487
     23          6           0       -2.406809    2.632160   -0.136043
     24          8           0       -1.273492    3.322240    0.409268
     25          1           0       -1.446274    4.293642    0.249491
     26          6           0       -2.541286    1.213648    0.394422
     27          8           0       -3.841743    0.867131   -0.103633
     28          6           0       -4.375973   -0.439211    0.157800
     29          8           0       -5.469299   -0.638042   -0.748488
     30          1           0       -6.277082   -0.779234   -0.249338
     31          1           0       -3.293856    3.177813    0.109540
     32          1           0       -2.308089    2.594345   -1.200808
     33          1           0       -2.601910    1.269048    1.461266
     34          1           0       -1.350169    0.209323   -1.012621
     35          1           0       -2.048084   -1.312056    1.466202
     36          1           0       -3.241247   -1.502445   -1.288253
     37          1           0       -4.686360   -0.542432    1.176577
     38          1           0        5.675204   -0.531989    0.548940
     39          1           0        2.163123   -3.074999   -0.444304
     40          1           0        2.833229   -2.818543    1.129825
     41          1           0        2.654430   -0.949890   -1.129725
     42          1           0        3.810369    0.062245    1.401345
     43          1           0        3.405283    1.143417   -1.353210
     44          1           0        1.794335    1.814979    0.998534
     45          1           0        0.712334    0.118006   -1.203459
 ---------------------------------------------------------------------

 SCF Done:  E(RB3LYP) =  -1297.97926457     A.U. after   13 cycles

 The electronic state is 1-A.
 Alpha  occ. eigenvalues --  -19.18794 -19.18564 -19.17715 -19.17436 -19.17258
 Alpha  occ. eigenvalues --  -19.17134 -19.15848 -19.15780 -19.15252 -19.14556
 Alpha  occ. eigenvalues --  -19.13482 -10.30675 -10.29865 -10.25642 -10.25350
 Alpha  occ. eigenvalues --  -10.25164 -10.24974 -10.24771 -10.24727 -10.24576
 Alpha  occ. eigenvalues --  -10.24435 -10.24212 -10.23686  -1.10053  -1.08966
 Alpha  occ. eigenvalues --   -1.05639  -1.05392  -1.03911  -1.03549  -1.02680
 Alpha  occ. eigenvalues --   -1.02203  -1.01978  -1.01408  -1.00198  -0.81599
 Alpha  occ. eigenvalues --   -0.80393  -0.79360  -0.77491  -0.71529  -0.69991
 Alpha  occ. eigenvalues --   -0.67375  -0.64802  -0.62991  -0.61894  -0.61179
 Alpha  occ. eigenvalues --   -0.60017  -0.56478  -0.55785  -0.54982  -0.54732
 Alpha  occ. eigenvalues --   -0.53572  -0.52905  -0.52642  -0.52077  -0.50859
 Alpha  occ. eigenvalues --   -0.50756  -0.49711  -0.49009  -0.48800  -0.46237
 Alpha  occ. eigenvalues --   -0.45941  -0.44877  -0.44255  -0.43681  -0.43295
 Alpha  occ. eigenvalues --   -0.42475  -0.42093  -0.40820  -0.40343  -0.39265
 Alpha  occ. eigenvalues --   -0.38975  -0.38475  -0.37750  -0.36498  -0.36087
 Alpha  occ. eigenvalues --   -0.35531  -0.34418  -0.34253  -0.33963  -0.32984
 Alpha  occ. eigenvalues --   -0.32858  -0.31817  -0.31064  -0.30193  -0.29648
 Alpha  occ. eigenvalues --   -0.29476  -0.28353  -0.28237  -0.27284  -0.26578
 Alpha  occ. eigenvalues --   -0.26287
 Alpha virt. eigenvalues --   -0.02091  -0.01776  -0.01629  -0.00057   0.00422
 Alpha virt. eigenvalues --    0.01226   0.02146   0.02343   0.03042   0.03549
 Alpha virt. eigenvalues --    0.03771   0.04149   0.04987   0.05514   0.05731

 Mulliken atomic charges:
              1
     1  O   -0.540074
     2  C    0.087293
     3  C    0.146529
     4  O   -0.557024
     5  H    0.346632
     6  C   -0.112428
     7  O   -0.587436
     8  H    0.432517
     9  C   -0.082815
    10  O   -0.505823
    11  H    0.331370
    12  C    0.097965
    13  O   -0.234988
    14  C    0.102932
    15  O   -0.265944
    16  C    0.170997
    17  C    0.104992
    18  O   -0.505513
    19  H    0.363233
    20  C    0.063495
    21  O   -0.558602
    22  H    0.337728
    23  C   -0.210480
    24  O   -0.560476
    25  H    0.356553
    26  C   -0.102294
    27  O   -0.246267
    28  C    0.146082
    29  O   -0.540474
    30  H    0.335622
    31  H    0.148014
    32  H    0.158857
    33  H    0.117218
    34  H    0.110483
    35  H    0.126499
    36  H    0.135263
    37  H    0.136703
    38  H    0.338148
    39  H    0.156968
    40  H    0.135840
    41  H    0.102974
    42  H    0.117977
    43  H    0.125154
    44  H    0.131802
    45  H    0.144798
 Sum of Mulliken atomic charges =   0.00000

 Dipole moment (field-independent basis, Debye):
    X=             -3.1977    Y=             -0.3128    Z=              2.7040  Tot=              4.1994
 Quadrupole moment (field-independent basis, Debye-Ang):
   XX=           -114.4946   YY=           -136.7398   ZZ=           -139.4753
   XY=            -14.7577   XZ=              2.4234   YZ=             -1.8847

  Exact polarizability: 234.908   1.488 195.925   1.278  -1.070 143.174
 Approx polarizability: 276.096   0.783 254.974   1.213  -0.637 240.060

 ******    6 imaginary frequencies (negative Signs) ******

                     1                      2                      3
                     A                      A                      A
 Frequencies --  -264.6773              -215.5685              -205.3201
 Red. masses --     1.7269                 1.2263                 1.8865
 Frc consts  --     0.0713                 0.0336                 0.0469
 IR Inten    --    15.3783                84.0908                 4.0305
 Raman Activ --     0.1517                 0.7913                 0.0902

                     4                      5                      6
                     A                      A                      A
 Frequencies --  -102.6020               -83.8086               -55.3102
 Red. masses --     1.4011                 4.3536                 6.2632
 Frc consts  --     0.0087                 0.0180                 0.0113
 IR Inten    --    95.0712                11.3276                 1.1026
 Raman Activ --     0.7703                 0.1466                 0.0424

                     7                      8                      9
                     A                      A                      A
 Frequencies --    31.0303                42.3715                59.2191
 Red. masses --     6.3573                 7.0170                 5.8754
 Frc consts  --     0.0036                 0.0074                 0.0121
 IR Inten    --     0.6550                 0.2253                 3.1448
 Raman Activ --     0.0505                 0.0910                 0.0427

                    10                     11                     12
                     A                      A                      A
 Frequencies --    92.6490               102.8179               106.6526
 Red. masses --     5.8084                 5.8427                 5.8238
 Frc consts  --     0.0294                 0.0364                 0.0390
 IR Inten    --     4.2844                 1.1424                 7.8787
 Raman Activ --     0.2146                 0.1773                 0.1154

                    13                     14                     15
                     A                      A                      A
 Frequencies --   152.8201               165.1390               178.4453
 Red. masses --     5.8030                 5.8134                 7.9529
 Frc consts  --     0.0798                 0.0934                 0.1492
 IR Inten    --     0.6780                 7.4051                 0.0724
 Raman Activ --     0.2866                 0.2596                 0.5520

                    16                     17                     18
                     A                      A                      A
 Frequencies --   201.9356               229.1300               261.9910
 Red. masses --     6.8052                 5.8833                 4.9869
 Frc consts  --     0.1635                 0.1820                 0.2017
 IR Inten    --     0.4416                 0.6173                 5.6749
 Raman Activ --     2.5876                 0.5906                 0.3796

                    19                     20                     21
                     A                      A                      A
 Frequencies --   284.2183               293.2877               304.5422
 Red. masses --     4.8270                 5.3415                 4.5240
 Frc consts  --     0.2297                 0.2707                 0.2472
 IR Inten    --     5.7882                 2.1101                 1.4576
 Raman Activ --     0.3969                 0.0755                 0.0889

                    22                     23                     24
                     A                      A                      A
 Frequencies --   311.7130               324.9871               329.5311
 Red. masses --     6.1371                 4.7546                 5.8863
 Frc consts  --     0.3513                 0.2959                 0.3766
 IR Inten    --     6.0332                 5.1945                 2.3639
 Raman Activ --     1.3853                 0.9169                 1.6994

                    25                     26                     27
                     A                      A                      A
 Frequencies --   344.8894               360.3886               378.2949
 Red. masses --     6.7994                 4.5036                 8.3916
 Frc consts  --     0.4765                 0.3446                 0.7075
 IR Inten    --    11.7771                 6.2362                 2.6225
 Raman Activ --     5.9915                 0.1047                 2.5497

                    28                     29                     30
                     A                      A                      A
 Frequencies --   406.7465               412.4047               434.8164
 Red. masses --     3.8354                 5.7464                 4.8353
 Frc consts  --     0.3739                 0.5758                 0.5386
 IR Inten    --    19.1904                10.9545                 0.5326
 Raman Activ --     1.4105                 2.9402                 4.9522

                    31                     32                     33
                     A                      A                      A
 Frequencies --   439.5566               476.2759               491.7478
 Red. masses --     5.1084                 4.6665                 3.8163
 Frc consts  --     0.5815                 0.6237                 0.5437
 IR Inten    --     1.4146                 0.5453                12.3948
 Raman Activ --     2.4511                 3.0416                 0.8553

                    34                     35                     36
                     A                      A                      A
 Frequencies --   518.8930               521.5410               565.0045
 Red. masses --     3.4509                 3.9765                 3.6113
 Frc consts  --     0.5474                 0.6373                 0.6792
 IR Inten    --     2.8053                10.2774                17.2113
 Raman Activ --     5.1556                 1.9159                 1.5468

                    37                     38                     39
                     A                      A                      A
 Frequencies --   580.1914               609.3860               623.0235
 Red. masses --     2.7103                 6.5691                 5.6995
 Frc consts  --     0.5375                 1.4373                 1.3035
 IR Inten    --    57.9330                 1.9763                11.6644
 Raman Activ --     0.2537                 0.5788                 0.6104

                    40                     41                     42
                     A                      A                      A
 Frequencies --   629.1805               702.1103               732.0632
 Red. masses --     4.3916                 5.8720                 1.0836
 Frc consts  --     1.0243                 1.7055                 0.3421
 IR Inten    --    49.2407                10.3214                56.4326
 Raman Activ --     2.0444                 1.7070                 1.3804

                    43                     44                     45
                     A                      A                      A
 Frequencies --   733.0411               754.1042               788.4134
 Red. masses --     1.0566                 1.0934                 1.0924
 Frc consts  --     0.3345                 0.3663                 0.4001
 IR Inten    --   131.7459               127.2182                91.0148
 Raman Activ --     2.2164                 1.5368                 1.4011

                    46                     47                     48
                     A                      A                      A
 Frequencies --   827.4701               857.6469               865.6975
 Red. masses --     1.1470                 1.4050                 1.8460
 Frc consts  --     0.4627                 0.6089                 0.8151
 IR Inten    --   149.1099                34.4063                13.0523
 Raman Activ --     4.2243                 1.0870                 1.9460

                    49                     50                     51
                     A                      A                      A
 Frequencies --   885.0296               919.4927               953.9044
 Red. masses --     1.2637                 5.3320                 5.1726
 Frc consts  --     0.5832                 2.6560                 2.7731
 IR Inten    --    32.0251                94.2171                57.9461
 Raman Activ --     0.6608                 4.3872                 1.3035

                    52                     53                     54
                     A                      A                      A
 Frequencies --   976.5760               979.1484               987.7376
 Red. masses --     5.0358                 5.4697                 5.1924
 Frc consts  --     2.8297                 3.0896                 2.9847
 IR Inten    --    49.3665                67.4902               132.6424
 Raman Activ --     0.8741                 2.0706                 0.5414

                    55                     56                     57
                     A                      A                      A
 Frequencies --   996.9565              1011.4267              1029.5569
 Red. masses --     5.5316                 5.7583                 5.8925
 Frc consts  --     3.2393                 3.4707                 3.6800
 IR Inten    --   356.6071                35.8185                74.9184
 Raman Activ --     3.5370                 2.4311                 1.6527

                    58                     59                     60
                     A                      A                      A
 Frequencies --  1040.2646              1057.3934              1061.6681
 Red. masses --     5.5320                 3.3089                 5.5691
 Frc consts  --     3.5271                 2.1797                 3.6984
 IR Inten    --   354.3530                68.7333                50.0713
 Raman Activ --     3.1117                 7.4829                 1.4912

                    61                     62                     63
                     A                      A                      A
 Frequencies --  1063.3371              1071.9285              1077.7440
 Red. masses --     3.6096                 3.8069                 3.6751
 Frc consts  --     2.4046                 2.5772                 2.5151
 IR Inten    --    69.5534                80.3013                41.0731
 Raman Activ --    13.4334                10.7487                 2.3639

                    64                     65                     66
                     A                      A                      A
 Frequencies --  1093.9655              1101.6614              1103.3735
 Red. masses --     3.4949                 2.9958                 3.0899
 Frc consts  --     2.4643                 2.1422                 2.2163
 IR Inten    --    46.8775                14.4672               109.1020
 Raman Activ --    12.8434                 3.0204                11.6645

                    67                     68                     69
                     A                      A                      A
 Frequencies --  1114.4298              1117.5721              1129.1237
 Red. masses --     3.5208                 3.4123                 2.6952
 Frc consts  --     2.5763                 2.5110                 2.0245
 IR Inten    --    55.0061                25.3533                23.6512
 Raman Activ --     3.4794                 4.1484                 4.7128

                    70                     71                     72
                     A                      A                      A
 Frequencies --  1141.7370              1152.8086              1157.3960
 Red. masses --     2.4838                 1.7858                 1.5067
 Frc consts  --     1.9077                 1.3983                 1.1891
 IR Inten    --    12.8191                48.6476                 7.3683
 Raman Activ --     4.5377                 3.7322                 3.1376

                    73                     74                     75
                     A                      A                      A
 Frequencies --  1171.4857              1188.2228              1193.7615
 Red. masses --     1.7728                 1.9139                 1.4057
 Frc consts  --     1.4335                 1.5921                 1.1803
 IR Inten    --    15.8537                12.3050                16.2483
 Raman Activ --     4.9386                 3.0314                 2.6606

                    76                     77                     78
                     A                      A                      A
 Frequencies --  1205.1694              1217.6624              1232.7309
 Red. masses --     1.2551                 1.7243                 1.3249
 Frc consts  --     1.0741                 1.5063                 1.1862
 IR Inten    --     8.3977                 4.4097                 2.4091
 Raman Activ --     0.6449                 0.9380                 1.3851

                    79                     80                     81
                     A                      A                      A
 Frequencies --  1236.6360              1240.0781              1247.8324
 Red. masses --     1.2057                 1.2921                 1.3193
 Frc consts  --     1.0864                 1.1707                 1.2104
 IR Inten    --     7.1372                24.7435                 3.9355
 Raman Activ --     1.2540                 0.2677                 1.5584

                    82                     83                     84
                     A                      A                      A
 Frequencies --  1267.0486              1279.0171              1281.6845
 Red. masses --     1.3094                 1.2075                 1.2661
 Frc consts  --     1.2386                 1.1639                 1.2255
 IR Inten    --    25.3749                18.9171                 3.5054
 Raman Activ --     2.8323                 1.5593                 4.4085

                    85                     86                     87
                     A                      A                      A
 Frequencies --  1286.7861              1292.0798              1302.1003
 Red. masses --     1.2589                 1.3987                 1.3436
 Frc consts  --     1.2281                 1.3758                 1.3421
 IR Inten    --    17.7325                16.6239                24.6871
 Raman Activ --     1.6461                 3.8222                 5.7345

                    88                     89                     90
                     A                      A                      A
 Frequencies --  1315.4909              1323.8032              1328.5777
 Red. masses --     1.3295                 1.1764                 1.2073
 Frc consts  --     1.3555                 1.2146                 1.2556
 IR Inten    --    10.8796                17.3518                35.3473
 Raman Activ --     1.8679                 6.1845                 9.1527

                    91                     92                     93
                     A                      A                      A
 Frequencies --  1334.4044              1343.1435              1360.6206
 Red. masses --     1.2156                 1.4184                 1.2572
 Frc consts  --     1.2753                 1.5076                 1.3713
 IR Inten    --    28.3779                38.6835                21.3279
 Raman Activ --     0.2989                 5.7960                 2.1276

                    94                     95                     96
                     A                      A                      A
 Frequencies --  1366.7860              1370.3109              1372.7304
 Red. masses --     1.4283                 1.1852                 1.4465
 Frc consts  --     1.5721                 1.3113                 1.6060
 IR Inten    --     9.3894                33.1411                 5.6760
 Raman Activ --     7.0681                 5.8104                 4.7867

                    97                     98                     99
                     A                      A                      A
 Frequencies --  1385.5530              1404.3389              1414.4481
 Red. masses --     1.4426                 1.3633                 1.3505
 Frc consts  --     1.6318                 1.5841                 1.5919
 IR Inten    --     0.9292                 2.9502                 3.2519
 Raman Activ --     5.1536                 7.8841                 4.7707

                   100                    101                    102
                     A                      A                      A
 Frequencies --  1416.4824              1454.4108              1474.4937
 Red. masses --     1.5976                 1.3105                 1.0739
 Frc consts  --     1.8886                 1.6333                 1.3756
 IR Inten    --    32.8502                47.3553                 4.7698
 Raman Activ --     0.5331                 1.9473                 4.8249

                   103                    104                    105
                     A                      A                      A
 Frequencies --  1476.3361              1482.3165              1489.7292
 Red. masses --     1.0801                 1.3457                 1.3734
 Frc consts  --     1.3870                 1.7421                 1.7958
 IR Inten    --     4.1793                 2.0158                27.3712
 Raman Activ --     4.9367                 0.4269                 1.3303

                   106                    107                    108
                     A                      A                      A
 Frequencies --  1495.3162              1530.3969              3238.6326
 Red. masses --     1.3799                 1.2453                 1.0697
 Frc consts  --     1.8179                 1.7184                 6.6108
 IR Inten    --    63.7363                59.6424               909.2655
 Raman Activ --     2.0146                 2.3412               143.5909

                   109                    110                    111
                     A                      A                      A
 Frequencies --  3250.8121              3256.2229              3263.2728
 Red. masses --     1.0778                 1.0612                 1.0757
 Frc consts  --     6.7110                 6.6297                 6.7493
 IR Inten    --     0.8852                60.2704                 7.5930
 Raman Activ --    45.0656                64.8805               245.4718

                   112                    113                    114
                     A                      A                      A
 Frequencies --  3265.3792              3268.2854              3276.7853
 Red. masses --     1.0695                 1.0746                 1.0830
 Frc consts  --     6.7188                 6.7628                 6.8516
 IR Inten    --    24.8846                19.7897                23.5310
 Raman Activ --    88.5016                42.2972                19.1023

                   115                    116                    117
                     A                      A                      A
 Frequencies --  3277.5265              3286.5458              3289.9077
 Red. masses --     1.0834                 1.0846                 1.0864
 Frc consts  --     6.8569                 6.9023                 6.9280
 IR Inten    --     8.7470                17.7311                 5.1695
 Raman Activ --    24.8700               125.1759                42.3695

                   118                    119                    120
                     A                      A                      A
 Frequencies --  3296.1923              3302.6434              3304.3378
 Red. masses --     1.0872                 1.0872                 1.0869
 Frc consts  --     6.9593                 6.9867                 6.9922
 IR Inten    --    15.0048                 2.8850                88.1340
 Raman Activ --    52.6966                14.1694                 6.1099

                   121                    122                    123
                     A                      A                      A
 Frequencies --  3309.7193              3325.7518              3337.4204
 Red. masses --     1.1057                 1.1091                 1.0653
 Frc consts  --     7.1365                 7.2275                 6.9912
 IR Inten    --    52.9854                34.8855               304.4849
 Raman Activ --    34.3232                47.4051               109.0427

                   124                    125                    126
                     A                      A                      A
 Frequencies --  3354.1694              3362.3708              3364.6607
 Red. masses --     1.0644                 1.0656                 1.0662
 Frc consts  --     7.0556                 7.0979                 7.1117
 IR Inten    --    41.6045                39.7685                35.1507
 Raman Activ --    82.6608               133.6720               158.9644

                   127                    128                    129
                     A                      A                      A
 Frequencies --  3380.3023              3889.5855              3890.9093
 Red. masses --     1.0666                 1.0675                 1.0676
 Frc consts  --     7.1805                 9.5150                 9.5224
 IR Inten    --    53.2327                76.0254                74.9021
 Raman Activ --   137.2492               117.4238               104.7508

 - Thermochemistry -
 -------------------
 Temperature   298.150 Kelvin.  Pressure   1.00000 Atm.
 Atom     1 has atomic number  8 and mass  15.99491

 Molecular mass:   342.11621 amu.
 Principal axes and moments of inertia in atomic units:
                           1         2         3
     Eigenvalues --  4339.13434********************
           X            0.99997  -0.00714   0.00001
           Y            0.00714   0.99997  -0.00210
           Z            0.00000   0.00210   1.00000
 This molecule is an asymmetric top.
 Rotational symmetry number  1.
 Warning -- assumption of classical behavior for rotation
           may cause significant error
 Rotational temperatures (Kelvin)      0.01996     0.00696     0.00530
 Rotational constants (GHZ):           0.41592     0.14510     0.11044
    6 imaginary frequencies ignored.
 Zero-point vibrational energy     976888.6 (Joules/Mol)
                                  233.48197 (Kcal/Mol)
 Warning -- explicit consideration of  32 degrees of freedom as
           vibrations may cause significant error
 Vibrational temperatures:     44.65    60.96    85.20   133.30   147.93
          (Kelvin)            153.45   219.87   237.60   256.74   290.54
                              329.67   376.95   408.93   421.98   438.17
                              448.48   467.58   474.12   496.22   518.52
                              544.28   585.22   593.36   625.60   632.42
                              685.25   707.51   746.57   750.38   812.91
                              834.76   876.77   896.39   905.25  1010.18
                             1053.27  1054.68  1084.99  1134.35  1190.54
                             1233.96  1245.54  1273.36  1322.94  1372.45
                             1405.07  1408.77  1421.13  1434.40  1455.22
                             1481.30  1496.71  1521.35  1527.50  1529.90
                             1542.26  1550.63  1573.97  1585.04  1587.51
                             1603.41  1607.93  1624.56  1642.70  1658.63
                             1665.23  1685.50  1709.59  1717.55  1733.97
                             1751.94  1773.62  1779.24  1784.19  1795.35
                             1823.00  1840.22  1844.06  1851.40  1859.01
                             1873.43  1892.70  1904.66  1911.52  1919.91
                             1932.48  1957.63  1966.50  1971.57  1975.05
                             1993.50  2020.53  2035.07  2038.00  2092.57
                             2121.46  2124.12  2132.72  2143.39  2151.42
                             2201.90  4659.66  4677.19  4684.97  4695.12
                             4698.15  4702.33  4714.56  4715.62  4728.60
                             4733.44  4742.48  4751.76  4754.20  4761.94
                             4785.01  4801.80  4825.90  4837.70  4840.99
                             4863.49  5596.24  5598.14

 Zero-point correction=                           0.372077 (Hartree/Particle)
 Thermal correction to Energy=                    0.391200
 Thermal correction to Enthalpy=                  0.392144
 Thermal correction to Gibbs Free Energy=         0.324684
 Sum of electronic and zero-point Energies=          -1297.607187
 Sum of electronic and thermal Energies=             -1297.588065
 Sum of electronic and thermal Enthalpies=           -1297.587121
 Sum of electronic and thermal Free Energies=        -1297.654580

                     E (Thermal)             CV                S
                      KCal/Mol        Cal/Mol-Kelvin    Cal/Mol-Kelvin
 Total                  245.481             77.417            141.980
 Electronic               0.000              0.000              0.000
 Translational            0.889              2.981             43.384
 Rotational               0.889              2.981             35.132
 Vibrational            243.704             71.456             63.464
 Vibration     1          0.594              1.983              5.762
 Vibration     2          0.595              1.980              5.145
 Vibration     3          0.597              1.974              4.483
 Vibration     4          0.602              1.954              3.603
 Vibration     5          0.605              1.947              3.400
 Vibration     6          0.606              1.944              3.329
 Vibration     7          0.619              1.900              2.637
 Vibration     8          0.624              1.885              2.490
 Vibration     9          0.629              1.869              2.345
 Vibration    10          0.639              1.837              2.115
 Vibration    11          0.652              1.797              1.886
 Vibration    12          0.669              1.742              1.648
 Vibration    13          0.683              1.703              1.508
 Vibration    14          0.688              1.686              1.455
 Vibration    15          0.695              1.665              1.392
 Vibration    16          0.700              1.651              1.353
 Vibration    17          0.709              1.625              1.285
 Vibration    18          0.712              1.617              1.262
 Vibration    19          0.723              1.586              1.189
 Vibration    20          0.735              1.554              1.120
 Vibration    21          0.749              1.516              1.046
 Vibration    22          0.772              1.456              0.938
 Vibration    23          0.776              1.443              0.918
 Vibration    24          0.795              1.394              0.843
 Vibration    25          0.800              1.384              0.828
 Vibration    26          0.833              1.303              0.720
 Vibration    27          0.847              1.268              0.679
 Vibration    28          0.874              1.208              0.613
 Vibration    29          0.877              1.202              0.606
 Vibration    30          0.921              1.107              0.514
 Vibration    31          0.937              1.074              0.485
 Vibration    32          0.968              1.012              0.434

 Normal termination of Gaussian 09 at Wed Mar 23 06:35:44 2016.
