 Gaussian 09, Revision B.01,
 Gaussian 09:  EM64L-G09RevB.01 12-Aug-2010

 -------------------------------------------------
 # freq=raman b3lyp/6-31+g(2d,p) geom=connectivity
 -------------------------------------------------

 -----------------
 473 8985/8985.com
 -----------------
 Symbolic Z-matrix:
 Charge =  0 Multiplicity = 1

                         Standard orientation:
 ---------------------------------------------------------------------
 Center     Atomic      Atomic             Coordinates (Angstroms)
 Number     Number       Type             X           Y           Z
 ---------------------------------------------------------------------
      1          8           0        5.038642   -0.510267   -0.503956
      2          6           0        3.788884   -0.081553    0.054881
      3          6           0        3.244504    1.266026   -0.389176
      4          8           0        4.181027    2.308950   -0.084053
      5          1           0        5.077210    1.908012   -0.270596
      6          6           0        1.867466    1.535108    0.194665
      7          8           0        1.369166    2.747599   -0.390298
      8          1           0        0.574007    3.090053    0.109403
      9          6           0        3.030402   -2.521770    0.324287
     10          8           0        4.156141   -3.257470   -0.177448
     11          1           0        3.894183   -4.219863   -0.239569
     12          6           0        2.722537   -1.132816   -0.210539
     13          8           0        1.451310   -0.802610    0.368629
     14          6           0        0.868569    0.425555   -0.089384
     15          8           0       -0.332200    0.532656    0.689631
     16          6           0       -1.565026    0.234488    0.018245
     17          6           0       -2.041627   -1.159818    0.392162
     18          8           0       -1.073295   -2.217052    0.327152
     19          1           0       -0.178197   -1.773992    0.281755
     20          6           0       -3.369148   -1.534923   -0.246616
     21          8           0       -3.952769   -2.783236    0.151933
     22          1           0       -4.861904   -2.863744   -0.257463
     23          6           0       -2.255122    2.697854   -0.123821
     24          8           0       -1.154250    3.203878    0.643446
     25          1           0       -1.220622    4.200896    0.619477
     26          6           0       -2.629976    1.284092    0.290668
     27          8           0       -3.821149    0.904207   -0.413156
     28          6           0       -4.322403   -0.376129   -0.002469
     29          8           0       -5.474182   -0.569357   -0.836889
     30          1           0       -6.228229   -0.805705   -0.291772
     31          1           0       -4.613599   -0.346509    1.026719
     32          1           0       -3.203877   -1.591568   -1.302256
     33          1           0       -2.267065   -1.082164    1.435257
     34          1           0       -1.369568    0.238348   -1.033745
     35          1           0       -2.841940    1.285198    1.339463
     36          1           0       -3.101006    3.337852    0.016830
     37          1           0       -1.986725    2.697494   -1.159612
     38          1           0        5.610288   -0.829690    0.198034
     39          1           0        2.161336   -3.123295    0.157578
     40          1           0        2.593774   -1.208269   -1.270080
     41          1           0        3.924002   -0.029088    1.115018
     42          1           0        3.160166   -2.430260    1.382440
     43          1           0        3.138697    1.233118   -1.453424
     44          1           0        1.954725    1.665931    1.253046
     45          1           0        0.642447    0.372180   -1.133856
 ---------------------------------------------------------------------

 SCF Done:  E(RB3LYP) =  -1297.99872894     A.U. after   13 cycles

 The electronic state is 1-A.
 Alpha  occ. eigenvalues --  -19.19104 -19.18239 -19.18208 -19.18204 -19.17969
 Alpha  occ. eigenvalues --  -19.17184 -19.16397 -19.16272 -19.15338 -19.14187
 Alpha  occ. eigenvalues --  -19.13862 -10.30681 -10.30610 -10.26351 -10.26034
 Alpha  occ. eigenvalues --  -10.25769 -10.25331 -10.25202 -10.24701 -10.24645
 Alpha  occ. eigenvalues --  -10.24586 -10.24214 -10.24005  -1.10038  -1.09225
 Alpha  occ. eigenvalues --   -1.05935  -1.05323  -1.04072  -1.03650  -1.02767
 Alpha  occ. eigenvalues --   -1.02486  -1.02339  -1.00752  -1.00390  -0.82299
 Alpha  occ. eigenvalues --   -0.80403  -0.79662  -0.78534  -0.72077  -0.70047
 Alpha  occ. eigenvalues --   -0.67396  -0.65038  -0.63474  -0.62619  -0.61560
 Alpha  occ. eigenvalues --   -0.60303  -0.56669  -0.55833  -0.55116  -0.54834
 Alpha  occ. eigenvalues --   -0.54331  -0.53681  -0.53119  -0.51827  -0.51266
 Alpha  occ. eigenvalues --   -0.50643  -0.50230  -0.49362  -0.48857  -0.46618
 Alpha  occ. eigenvalues --   -0.46129  -0.45557  -0.44772  -0.43634  -0.43222
 Alpha  occ. eigenvalues --   -0.42694  -0.41847  -0.41534  -0.40132  -0.39463
 Alpha  occ. eigenvalues --   -0.38929  -0.38342  -0.37726  -0.36117  -0.35645
 Alpha  occ. eigenvalues --   -0.35531  -0.35044  -0.34758  -0.34281  -0.34235
 Alpha  occ. eigenvalues --   -0.32955  -0.31662  -0.31248  -0.30711  -0.30094
 Alpha  occ. eigenvalues --   -0.29273  -0.28847  -0.28009  -0.27930  -0.26777
 Alpha  occ. eigenvalues --   -0.26479
 Alpha virt. eigenvalues --   -0.02257  -0.01977  -0.01764  -0.00223   0.00373
 Alpha virt. eigenvalues --    0.00914   0.01881   0.02205   0.03219   0.03288
 Alpha virt. eigenvalues --    0.03826   0.04105   0.04662   0.05259   0.05532

 Mulliken atomic charges:
              1
     1  O   -0.522050
     2  C   -0.213415
     3  C    0.304721
     4  O   -0.551937
     5  H    0.342113
     6  C   -0.094451
     7  O   -0.558177
     8  H    0.389054
     9  C   -0.303361
    10  O   -0.539216
    11  H    0.339810
    12  C    0.316703
    13  O   -0.257167
    14  C    0.109762
    15  O   -0.184992
    16  C    0.230862
    17  C    0.267848
    18  O   -0.583841
    19  H    0.385572
    20  C    0.029788
    21  O   -0.538695
    22  H    0.335254
    23  C   -0.235879
    24  O   -0.549099
    25  H    0.360668
    26  C   -0.129351
    27  O   -0.245023
    28  C    0.167482
    29  O   -0.546290
    30  H    0.335855
    31  H    0.129889
    32  H    0.124723
    33  H    0.106404
    34  H    0.104960
    35  H    0.125026
    36  H    0.149484
    37  H    0.159686
    38  H    0.346423
    39  H    0.144728
    40  H    0.108953
    41  H    0.117916
    42  H    0.143308
    43  H    0.118754
    44  H    0.132405
    45  H    0.124793
 Sum of Mulliken atomic charges =   0.00000

 Dipole moment (field-independent basis, Debye):
    X=             -2.5664    Y=              0.7438    Z=              1.5081  Tot=              3.0682
 Quadrupole moment (field-independent basis, Debye-Ang):
   XX=           -120.9504   YY=           -135.3067   ZZ=           -141.2446
   XY=            -14.9312   XZ=              0.7490   YZ=              4.4223

  Exact polarizability: 233.256   1.297 197.909   0.750   0.155 144.352
 Approx polarizability: 274.126   0.348 258.255   0.910   0.557 240.365

 ******    6 imaginary frequencies (negative Signs) ******

                     1                      2                      3
                     A                      A                      A
 Frequencies --  -283.4235              -226.1016              -211.5092
 Red. masses --     1.6425                 1.2327                 1.1779
 Frc consts  --     0.0777                 0.0371                 0.0310
 IR Inten    --    14.8983               109.9640                99.0883
 Raman Activ --     0.1385                 0.9397                 0.7513

                     4                      5                      6
                     A                      A                      A
 Frequencies --  -200.2818               -60.6523               -52.1646
 Red. masses --     1.8893                 6.3581                 6.3856
 Frc consts  --     0.0447                 0.0138                 0.0102
 IR Inten    --     3.2409                 0.8339                 0.6029
 Raman Activ --     0.0587                 0.0431                 0.0409

                     7                      8                      9
                     A                      A                      A
 Frequencies --    19.0694                43.4260                80.8591
 Red. masses --     6.7102                 6.7860                 5.8723
 Frc consts  --     0.0014                 0.0075                 0.0226
 IR Inten    --     1.3818                 0.1773                 2.5677
 Raman Activ --     0.0415                 0.0403                 0.2651

                    10                     11                     12
                     A                      A                      A
 Frequencies --    82.9841                93.6438               123.0222
 Red. masses --     7.0478                 6.5500                 5.4236
 Frc consts  --     0.0286                 0.0338                 0.0484
 IR Inten    --     1.9290                 1.3100                 1.4830
 Raman Activ --     0.0534                 0.1826                 0.0593

                    13                     14                     15
                     A                      A                      A
 Frequencies --   159.8173               170.2256               184.5558
 Red. masses --     6.4553                 6.2123                 6.6400
 Frc consts  --     0.0971                 0.1061                 0.1333
 IR Inten    --     3.8800                 3.8410                 0.5765
 Raman Activ --     0.5109                 0.7918                 0.3802

                    16                     17                     18
                     A                      A                      A
 Frequencies --   204.6546               232.6477               253.6483
 Red. masses --     6.8756                 5.8249                 4.6864
 Frc consts  --     0.1697                 0.1858                 0.1776
 IR Inten    --     0.3126                 1.5171                19.8204
 Raman Activ --     1.4253                 0.6606                 0.2051

                    19                     20                     21
                     A                      A                      A
 Frequencies --   268.1013               285.2277               298.2213
 Red. masses --     4.4743                 5.0930                 4.5875
 Frc consts  --     0.1895                 0.2441                 0.2404
 IR Inten    --     5.0295                 1.0511                 4.0497
 Raman Activ --     0.1297                 0.1084                 0.1444

                    22                     23                     24
                     A                      A                      A
 Frequencies --   305.5390               319.8496               323.9299
 Red. masses --     6.3308                 4.9880                 5.3744
 Frc consts  --     0.3482                 0.3007                 0.3323
 IR Inten    --     5.6017                 2.3660                 2.3234
 Raman Activ --     1.1405                 2.4241                 2.2459

                    25                     26                     27
                     A                      A                      A
 Frequencies --   336.3446               350.1036               374.7254
 Red. masses --     7.1016                 4.9252                 7.8348
 Frc consts  --     0.4733                 0.3557                 0.6482
 IR Inten    --    14.4062                 6.5592                 1.6029
 Raman Activ --     5.7122                 0.3875                 2.0986

                    28                     29                     30
                     A                      A                      A
 Frequencies --   403.2108               412.0076               422.2222
 Red. masses --     4.0455                 6.0005                 4.9124
 Frc consts  --     0.3875                 0.6001                 0.5160
 IR Inten    --    19.0485                 2.7899                 1.5545
 Raman Activ --     1.7562                 3.6587                 5.3011

                    31                     32                     33
                     A                      A                      A
 Frequencies --   431.2973               474.9154               484.0476
 Red. masses --     5.5742                 4.5424                 4.2628
 Frc consts  --     0.6109                 0.6036                 0.5885
 IR Inten    --     0.7073                 3.1577                12.3881
 Raman Activ --     3.0918                 2.0578                 0.9898

                    34                     35                     36
                     A                      A                      A
 Frequencies --   496.3178               521.8884               557.6291
 Red. masses --     3.7140                 3.1406                 4.0845
 Frc consts  --     0.5390                 0.5040                 0.7483
 IR Inten    --     9.2674                11.7516                17.2789
 Raman Activ --     3.5549                 3.4330                 1.7287

                    37                     38                     39
                     A                      A                      A
 Frequencies --   574.2113               589.8761               615.1543
 Red. masses --     2.7300                 5.4525                 6.0750
 Frc consts  --     0.5304                 1.1178                 1.3545
 IR Inten    --    32.1776                 4.6943                17.9766
 Raman Activ --     0.2585                 0.7898                 0.6890

                    40                     41                     42
                     A                      A                      A
 Frequencies --   626.9709               676.3197               686.8692
 Red. masses --     4.3680                 1.4090                 2.5875
 Frc consts  --     1.0116                 0.3797                 0.7192
 IR Inten    --    19.4483                84.0018                21.3054
 Raman Activ --     0.9521                 0.8499                 1.5145

                    43                     44                     45
                     A                      A                      A
 Frequencies --   729.8535               741.0006               743.3898
 Red. masses --     1.0576                 1.0728                 1.0702
 Frc consts  --     0.3319                 0.3471                 0.3484
 IR Inten    --    82.1004                 6.5725               140.9044
 Raman Activ --     1.7083                 0.3965                 1.3292

                    46                     47                     48
                     A                      A                      A
 Frequencies --   747.6679               780.7932               843.9754
 Red. masses --     1.0890                 1.0722                 1.7699
 Frc consts  --     0.3587                 0.3851                 0.7428
 IR Inten    --    99.8480               144.2929                 3.3174
 Raman Activ --     1.6335                 1.6656                 0.7252

                    49                     50                     51
                     A                      A                      A
 Frequencies --   865.2266               920.4831               956.6324
 Red. masses --     1.7057                 6.4537                 5.3470
 Frc consts  --     0.7523                 3.2218                 2.8830
 IR Inten    --     1.4715               159.0197               127.4117
 Raman Activ --     0.4822                 2.5337                 0.6768

                    52                     53                     54
                     A                      A                      A
 Frequencies --   972.1316               979.8680               985.9454
 Red. masses --     5.4789                 5.6153                 5.2954
 Frc consts  --     3.0507                 3.1766                 3.0329
 IR Inten    --    24.9197               124.4500                60.1314
 Raman Activ --     1.4483                 1.5301                 0.8758

                    55                     56                     57
                     A                      A                      A
 Frequencies --   994.3221              1013.4593              1022.0727
 Red. masses --     5.9852                 6.3880                 6.0104
 Frc consts  --     3.4864                 3.8657                 3.6993
 IR Inten    --   352.3051                36.9471               109.4790
 Raman Activ --     2.3822                 1.8338                 2.5267

                    58                     59                     60
                     A                      A                      A
 Frequencies --  1039.2663              1050.1836              1062.3915
 Red. masses --     6.7554                 7.8464                 3.4596
 Frc consts  --     4.2989                 5.0986                 2.3006
 IR Inten    --   339.2941               120.3860                22.2089
 Raman Activ --     2.5383                 2.2971                12.6009

                    61                     62                     63
                     A                      A                      A
 Frequencies --  1070.0680              1073.3796              1075.6287
 Red. masses --     4.9717                 7.2521                 4.4961
 Frc consts  --     3.3541                 4.9229                 3.0649
 IR Inten    --    65.2632                44.2524                81.5118
 Raman Activ --     5.8408                 0.7998                18.3187

                    64                     65                     66
                     A                      A                      A
 Frequencies --  1100.4043              1105.5045              1109.7058
 Red. masses --     3.1712                 2.4171                 2.3535
 Frc consts  --     2.2624                 1.7404                 1.7076
 IR Inten    --    28.4689                89.5285                32.3198
 Raman Activ --     4.5590                 7.3257                 6.4572

                    67                     68                     69
                     A                      A                      A
 Frequencies --  1120.2159              1140.2015              1142.5577
 Red. masses --     2.3311                 2.7999                 3.6198
 Frc consts  --     1.7235                 2.1447                 2.7841
 IR Inten    --     3.6016                23.2546                39.8804
 Raman Activ --     1.4508                 4.3742                 6.5303

                    70                     71                     72
                     A                      A                      A
 Frequencies --  1146.4850              1154.8769              1162.3167
 Red. masses --     2.7935                 1.5540                 2.1088
 Frc consts  --     2.1634                 1.2212                 1.6786
 IR Inten    --    39.5194                 3.6225                 8.5775
 Raman Activ --     5.5156                 1.4447                 2.0028

                    73                     74                     75
                     A                      A                      A
 Frequencies --  1166.2014              1174.0596              1180.9140
 Red. masses --     1.8757                 1.8599                 1.6525
 Frc consts  --     1.5030                 1.5105                 1.3578
 IR Inten    --     8.8377                 1.9468                 6.9558
 Raman Activ --     4.6901                 2.4217                 1.8587

                    76                     77                     78
                     A                      A                      A
 Frequencies --  1214.4337              1217.1107              1226.1537
 Red. masses --     1.4616                 1.3087                 1.2592
 Frc consts  --     1.2701                 1.1422                 1.1154
 IR Inten    --    14.5326                10.3518                 5.5770
 Raman Activ --     3.9504                 0.5870                 1.0385

                    79                     80                     81
                     A                      A                      A
 Frequencies --  1238.2856              1244.8978              1263.9146
 Red. masses --     1.3135                 1.2015                 1.3093
 Frc consts  --     1.1866                 1.0971                 1.2323
 IR Inten    --     7.1332                 2.0608                24.2010
 Raman Activ --     1.1804                 1.8242                 0.7386

                    82                     83                     84
                     A                      A                      A
 Frequencies --  1272.7096              1281.6853              1290.4414
 Red. masses --     1.2251                 1.3459                 1.1879
 Frc consts  --     1.1692                 1.3027                 1.1655
 IR Inten    --     5.5053                36.0837                 0.4781
 Raman Activ --     2.8623                 4.8935                 2.8903

                    85                     86                     87
                     A                      A                      A
 Frequencies --  1296.3826              1300.9203              1305.0885
 Red. masses --     1.3358                 1.3033                 1.3081
 Frc consts  --     1.3227                 1.2996                 1.3127
 IR Inten    --     6.5333                 6.9260                39.9000
 Raman Activ --     1.5294                 3.1334                 2.8292

                    88                     89                     90
                     A                      A                      A
 Frequencies --  1316.1524              1322.8353              1335.6033
 Red. masses --     1.2479                 1.2484                 1.2375
 Frc consts  --     1.2736                 1.2871                 1.3006
 IR Inten    --    11.9489                 7.5174                25.3573
 Raman Activ --     8.3967                 2.1730                 7.2865

                    91                     92                     93
                     A                      A                      A
 Frequencies --  1340.0583              1348.7349              1357.4619
 Red. masses --     1.2713                 1.3035                 1.1633
 Frc consts  --     1.3451                 1.3970                 1.2630
 IR Inten    --    53.4999                11.6890                26.5730
 Raman Activ --     5.2605                 2.2554                 3.1914

                    94                     95                     96
                     A                      A                      A
 Frequencies --  1359.3971              1369.8265              1378.0069
 Red. masses --     1.3716                 1.6187                 1.1712
 Frc consts  --     1.4933                 1.7896                 1.3103
 IR Inten    --    14.6767                 7.4994                10.5383
 Raman Activ --     5.5470                 9.0082                 3.4084

                    97                     98                     99
                     A                      A                      A
 Frequencies --  1383.7614              1394.5701              1401.8060
 Red. masses --     1.5596                 1.3790                 1.3102
 Frc consts  --     1.7595                 1.5801                 1.5169
 IR Inten    --    12.9035                 5.0888                 1.9499
 Raman Activ --     4.2033                 7.6427                 4.8717

                   100                    101                    102
                     A                      A                      A
 Frequencies --  1423.6109              1452.3475              1461.5649
 Red. masses --     1.4742                 1.2888                 1.1960
 Frc consts  --     1.7603                 1.6017                 1.5052
 IR Inten    --    30.7552                46.7140                15.0716
 Raman Activ --     0.8098                 1.0085                 4.7635

                   103                    104                    105
                     A                      A                      A
 Frequencies --  1469.0648              1471.2627              1474.8933
 Red. masses --     1.3469                 1.2473                 1.0875
 Frc consts  --     1.7127                 1.5908                 1.3938
 IR Inten    --    25.2143                27.5252                 1.8573
 Raman Activ --     1.5254                 0.9649                 4.5775

                   106                    107                    108
                     A                      A                      A
 Frequencies --  1493.0034              1516.5032              3248.9187
 Red. masses --     1.3007                 1.2373                 1.0787
 Frc consts  --     1.7083                 1.6766                 6.7083
 IR Inten    --    32.0491                50.1591                29.7322
 Raman Activ --     0.9544                 1.4462                87.7906

                   109                    110                    111
                     A                      A                      A
 Frequencies --  3256.9658              3263.0645              3266.6531
 Red. masses --     1.0587                 1.0571                 1.0810
 Frc consts  --     6.6166                 6.6313                 6.7967
 IR Inten    --    20.6141                60.8362                 1.4661
 Raman Activ --    76.5256                81.5719               151.6194

                   112                    113                    114
                     A                      A                      A
 Frequencies --  3268.0298              3269.1830              3276.1241
 Red. masses --     1.0821                 1.0816                 1.0828
 Frc consts  --     6.8092                 6.8108                 6.8476
 IR Inten    --     0.3256                16.4480                 1.1345
 Raman Activ --     3.6739                20.7545               138.3667

                   115                    116                    117
                     A                      A                      A
 Frequencies --  3281.4745              3283.8290              3287.9768
 Red. masses --     1.0856                 1.0850                 1.0849
 Frc consts  --     6.8875                 6.8937                 6.9105
 IR Inten    --     8.3061                35.2527                 5.9656
 Raman Activ --    29.6921                52.8434                55.6654

                   118                    119                    120
                     A                      A                      A
 Frequencies --  3293.2587              3299.7461              3305.3778
 Red. masses --     1.0863                 1.0810                 1.0739
 Frc consts  --     6.9413                 6.9346                 6.9131
 IR Inten    --   104.9661                63.7620               160.0536
 Raman Activ --    17.8875               105.1119               247.8299

                   121                    122                    123
                     A                      A                      A
 Frequencies --  3312.1061              3313.5985              3325.7363
 Red. masses --     1.0802                 1.0927                 1.1082
 Frc consts  --     6.9817                 7.0688                 7.2215
 IR Inten    --   567.7049               367.4700                47.5352
 Raman Activ --    17.6210                62.4878                38.9206

                   124                    125                    126
                     A                      A                      A
 Frequencies --  3364.6721              3370.5608              3376.3017
 Red. masses --     1.0657                 1.0657                 1.0669
 Frc consts  --     7.1083                 7.1335                 7.1653
 IR Inten    --    40.4142                39.0319                47.5927
 Raman Activ --   126.6421                94.3275               130.2737

                   127                    128                    129
                     A                      A                      A
 Frequencies --  3378.6404              3889.7788              3890.9510
 Red. masses --     1.0688                 1.0674                 1.0676
 Frc consts  --     7.1882                 9.5155                 9.5232
 IR Inten    --    45.8762                75.6006                82.0998
 Raman Activ --   137.3500               104.9967                84.5944

 - Thermochemistry -
 -------------------
 Temperature   298.150 Kelvin.  Pressure   1.00000 Atm.
 Atom     1 has atomic number  8 and mass  15.99491

 Molecular mass:   342.11621 amu.
 Principal axes and moments of inertia in atomic units:
                           1         2         3
     Eigenvalues --  4463.43428********************
           X            0.99997  -0.00726   0.00004
           Y            0.00726   0.99997  -0.00015
           Z           -0.00004   0.00015   1.00000
 This molecule is an asymmetric top.
 Rotational symmetry number  1.
 Warning -- assumption of classical behavior for rotation
           may cause significant error
 Rotational temperatures (Kelvin)      0.01941     0.00697     0.00528
 Rotational constants (GHZ):           0.40434     0.14525     0.10999
    6 imaginary frequencies ignored.
 Zero-point vibrational energy     974359.3 (Joules/Mol)
                                  232.87746 (Kcal/Mol)
 Warning -- explicit consideration of  33 degrees of freedom as
           vibrations may cause significant error
 Vibrational temperatures:     27.44    62.48   116.34   119.40   134.73
          (Kelvin)            177.00   229.94   244.92   265.53   294.45
                              334.73   364.94   385.74   410.38   429.07
                              439.60   460.19   466.06   483.92   503.72
                              539.15   580.13   592.79   607.48   620.54
                              683.30   696.44   714.09   750.88   802.30
                              826.16   848.70   885.07   902.07   973.07
                              988.25  1050.10  1066.13  1069.57  1075.73
                             1123.39  1214.29  1244.87  1324.37  1376.38
                             1398.68  1409.81  1418.55  1430.61  1458.14
                             1470.53  1495.27  1510.98  1528.54  1539.59
                             1544.35  1547.59  1583.23  1590.57  1596.62
                             1611.74  1640.49  1643.88  1649.53  1661.61
                             1672.31  1677.90  1689.21  1699.07  1747.30
                             1751.15  1764.16  1781.61  1791.13  1818.49
                             1831.14  1844.06  1856.66  1865.20  1871.73
                             1877.73  1893.65  1903.26  1921.63  1928.04
                             1940.53  1953.08  1955.87  1970.87  1982.64
                             1990.92  2006.47  2016.88  2048.26  2089.60
                             2102.86  2113.65  2116.82  2122.04  2148.10
                             2181.91  4674.46  4686.04  4694.82  4699.98
                             4701.96  4703.62  4713.61  4721.30  4724.69
                             4730.66  4738.26  4747.59  4755.70  4765.38
                             4767.52  4784.99  4841.01  4849.48  4857.74
                             4861.10  5596.52  5598.20

 Zero-point correction=                           0.371114 (Hartree/Particle)
 Thermal correction to Energy=                    0.390447
 Thermal correction to Enthalpy=                  0.391391
 Thermal correction to Gibbs Free Energy=         0.323387
 Sum of electronic and zero-point Energies=          -1297.627615
 Sum of electronic and thermal Energies=             -1297.608282
 Sum of electronic and thermal Enthalpies=           -1297.607338
 Sum of electronic and thermal Free Energies=        -1297.675342

                     E (Thermal)             CV                S
                      KCal/Mol        Cal/Mol-Kelvin    Cal/Mol-Kelvin
 Total                  245.009             78.263            143.126
 Electronic               0.000              0.000              0.000
 Translational            0.889              2.981             43.384
 Rotational               0.889              2.981             35.163
 Vibrational            243.232             72.301             64.578
 Vibration     1          0.593              1.986              6.729
 Vibration     2          0.595              1.980              5.096
 Vibration     3          0.600              1.962              3.870
 Vibration     4          0.600              1.961              3.819
 Vibration     5          0.603              1.954              3.582
 Vibration     6          0.610              1.930              3.052
 Vibration     7          0.622              1.892              2.552
 Vibration     8          0.625              1.879              2.433
 Vibration     9          0.631              1.861              2.282
 Vibration    10          0.640              1.833              2.091
 Vibration    11          0.653              1.791              1.858
 Vibration    12          0.665              1.757              1.705
 Vibration    13          0.673              1.732              1.608
 Vibration    14          0.683              1.701              1.502
 Vibration    15          0.691              1.677              1.427
 Vibration    16          0.696              1.663              1.386
 Vibration    17          0.706              1.636              1.311
 Vibration    18          0.708              1.628              1.290
 Vibration    19          0.717              1.603              1.229
 Vibration    20          0.727              1.575              1.166
 Vibration    21          0.746              1.524              1.060
 Vibration    22          0.769              1.463              0.951
 Vibration    23          0.776              1.444              0.920
 Vibration    24          0.785              1.422              0.884
 Vibration    25          0.792              1.402              0.854
 Vibration    26          0.832              1.306              0.724
 Vibration    27          0.840              1.285              0.699
 Vibration    28          0.852              1.258              0.667
 Vibration    29          0.877              1.202              0.606
 Vibration    30          0.913              1.123              0.529
 Vibration    31          0.931              1.087              0.496
 Vibration    32          0.947              1.053              0.467
 Vibration    33          0.975              1.000              0.424

 Normal termination of Gaussian 09 at Tue Mar 29 18:46:09 2016.
