 Gaussian 09, Revision B.01,
 Gaussian 09:  EM64L-G09RevB.01 12-Aug-2010

 ------------------------------------------------
 # freq=raman b3lyp/6-31+g(d,p) geom=connectivity
 ------------------------------------------------

 ------------
 300 7000.com
 ------------
 Symbolic Z-matrix:
 Charge =  0 Multiplicity = 1

                         Standard orientation:
 ---------------------------------------------------------------------
 Center     Atomic      Atomic             Coordinates (Angstroms)
 Number     Number       Type             X           Y           Z
 ---------------------------------------------------------------------
      1          8           0        4.956704   -0.453872   -0.326901
      2          6           0        3.714957   -0.030464    0.255434
      3          6           0        3.222608    1.230529   -0.436534
      4          8           0        4.122586    2.296882   -0.098545
      5          1           0        5.086848    2.036836   -0.152301
      6          6           0        1.849292    1.647852    0.062505
      7          8           0        1.345085    2.852727   -0.532225
      8          1           0        0.421660    2.951526   -0.160276
      9          6           0        3.072692   -2.488587    0.511581
     10          8           0        4.173553   -3.255427    0.002693
     11          1           0        3.911132   -4.202686    0.182312
     12          6           0        2.733332   -1.136825   -0.094683
     13          8           0        1.409387   -0.797078    0.341234
     14          6           0        1.001821    0.432852   -0.274919
     15          8           0       -0.290485    0.679855    0.298142
     16          6           0       -1.573370    0.291105   -0.213803
     17          6           0       -1.856742   -1.155707    0.155587
     18          8           0       -0.873710   -2.121870   -0.241499
     19          1           0       -0.043828   -1.765283    0.189259
     20          6           0       -3.277926   -1.541114   -0.223019
     21          8           0       -3.751529   -2.883487   -0.044561
     22          1           0       -4.725155   -2.893629   -0.273372
     23          6           0       -2.492002    2.648566    0.161495
     24          8           0       -1.267665    3.269375    0.579704
     25          1           0       -1.433223    4.239303    0.403020
     26          6           0       -2.698750    1.152364    0.336351
     27          8           0       -3.999018    0.740842   -0.108861
     28          6           0       -4.321214   -0.585489    0.333892
     29          8           0       -5.436103   -0.632776   -0.568610
     30          1           0       -6.249979   -0.722142   -0.067391
     31          1           0        5.564454   -0.713816    0.369280
     32          1           0        3.798356    0.103262    1.313764
     33          1           0        3.202608    1.086754   -1.496642
     34          1           0        1.883263    1.768696    1.125116
     35          1           0        0.922572    0.312953   -1.335222
     36          1           0        2.718018   -1.243206   -1.159271
     37          1           0        2.198228   -3.099512    0.428003
     38          1           0        3.255192   -2.329246    1.553792
     39          1           0       -1.560613    0.379463   -1.280073
     40          1           0       -1.839941   -1.174325    1.225293
     41          1           0       -2.692558    0.985636    1.393264
     42          1           0       -3.286858    3.138489    0.684066
     43          1           0       -2.612720    2.862557   -0.879915
     44          1           0       -4.564637   -0.682582    1.371302
     45          1           0       -3.311456   -1.390910   -1.281894
 ---------------------------------------------------------------------

 SCF Done:  E(RB3LYP) =  -1297.91585076     A.U. after   13 cycles

 The electronic state is 1-A.
 Alpha  occ. eigenvalues --  -19.20009 -19.19518 -19.18741 -19.18681 -19.17916
 Alpha  occ. eigenvalues --  -19.17820 -19.17438 -19.16628 -19.15465 -19.15141
 Alpha  occ. eigenvalues --  -19.14803 -10.31541 -10.31160 -10.26218 -10.26010
 Alpha  occ. eigenvalues --  -10.25799 -10.25772 -10.25524 -10.24934 -10.24815
 Alpha  occ. eigenvalues --  -10.24758 -10.24665 -10.24607  -1.10522  -1.10067
 Alpha  occ. eigenvalues --   -1.05589  -1.05324  -1.03854  -1.03134  -1.03042
 Alpha  occ. eigenvalues --   -1.02294  -1.01840  -1.00816  -1.00205  -0.82592
 Alpha  occ. eigenvalues --   -0.80925  -0.79269  -0.78592  -0.72019  -0.70209
 Alpha  occ. eigenvalues --   -0.67770  -0.64488  -0.62993  -0.62498  -0.61563
 Alpha  occ. eigenvalues --   -0.60999  -0.56853  -0.55836  -0.54921  -0.54601
 Alpha  occ. eigenvalues --   -0.53912  -0.53628  -0.52734  -0.51602  -0.51256
 Alpha  occ. eigenvalues --   -0.50886  -0.50056  -0.49561  -0.48662  -0.46809
 Alpha  occ. eigenvalues --   -0.45857  -0.45493  -0.44540  -0.43671  -0.43150
 Alpha  occ. eigenvalues --   -0.42653  -0.41806  -0.41065  -0.40726  -0.39918
 Alpha  occ. eigenvalues --   -0.39221  -0.38844  -0.37608  -0.36738  -0.36328
 Alpha  occ. eigenvalues --   -0.35151  -0.34554  -0.33954  -0.33797  -0.32946
 Alpha  occ. eigenvalues --   -0.32015  -0.31260  -0.30951  -0.30228  -0.29774
 Alpha  occ. eigenvalues --   -0.29345  -0.29063  -0.28054  -0.27827  -0.26729
 Alpha  occ. eigenvalues --   -0.26618
 Alpha virt. eigenvalues --   -0.02029  -0.01965  -0.01948  -0.00245   0.00085
 Alpha virt. eigenvalues --    0.00948   0.01898   0.02025   0.03040   0.03276
 Alpha virt. eigenvalues --    0.03545   0.04230   0.04838   0.05316   0.05690

 Mulliken atomic charges:
              1
     1  O   -0.522916
     2  C   -0.109092
     3  C    0.047073
     4  O   -0.512993
     5  H    0.352040
     6  C    0.032054
     7  O   -0.525258
     8  H    0.428817
     9  C   -0.214527
    10  O   -0.520422
    11  H    0.353822
    12  C    0.198359
    13  O   -0.384546
    14  C    0.345131
    15  O   -0.396396
    16  C   -0.070456
    17  C    0.022703
    18  O   -0.504195
    19  H    0.416681
    20  C   -0.045376
    21  O   -0.499857
    22  H    0.349961
    23  C   -0.081816
    24  O   -0.573058
    25  H    0.375109
    26  C   -0.031210
    27  O   -0.307474
    28  C    0.266862
    29  O   -0.556816
    30  H    0.354466
    31  H    0.368239
    32  H    0.145701
    33  H    0.141446
    34  H    0.147016
    35  H    0.135329
    36  H    0.148742
    37  H    0.136766
    38  H    0.131335
    39  H    0.132942
    40  H    0.123065
    41  H    0.125381
    42  H    0.137398
    43  H    0.144745
    44  H    0.145530
    45  H    0.149695
 Sum of Mulliken atomic charges =   0.00000

 Dipole moment (field-independent basis, Debye):
    X=             -2.6388    Y=              0.1940    Z=              3.4569  Tot=              4.3533
 Quadrupole moment (field-independent basis, Debye-Ang):
   XX=           -114.8254   YY=           -140.9630   ZZ=           -138.4089
   XY=            -15.4793   XZ=              0.9489   YZ=             -3.1560

  Exact polarizability: 230.357   1.553 194.118   0.038  -0.774 141.561
 Approx polarizability: 268.877   0.303 250.823   0.801  -1.246 230.834

 ******    7 imaginary frequencies (negative Signs) ******

                     1                      2                      3
                     A                      A                      A
 Frequencies --  -321.1906              -309.5926              -292.3801
 Red. masses --     1.3083                 1.1568                 1.7701
 Frc consts  --     0.0795                 0.0653                 0.0892
 IR Inten    --    79.7778               104.7338                 2.5073
 Raman Activ --     0.7324                 1.5035                 0.0531

                     4                      5                      6
                     A                      A                      A
 Frequencies --  -277.9409               -92.9903               -63.4282
 Red. masses --     1.3868                 5.5787                 6.6471
 Frc consts  --     0.0631                 0.0284                 0.0158
 IR Inten    --    43.6194                 0.7204                 1.7120
 Raman Activ --     0.5919                 0.0928                 0.0382

                     7                      8                      9
                     A                      A                      A
 Frequencies --    -5.7564                32.8767                43.8897
 Red. masses --     6.4054                 6.0382                 7.1163
 Frc consts  --     0.0001                 0.0038                 0.0081
 IR Inten    --     0.8540                 0.9012                 1.4368
 Raman Activ --     0.0847                 0.0452                 0.1504

                    10                     11                     12
                     A                      A                      A
 Frequencies --    66.4570                96.0364               112.8442
 Red. masses --     6.5104                 6.6600                 7.0479
 Frc consts  --     0.0169                 0.0362                 0.0529
 IR Inten    --     2.0208                 0.1798                 0.7798
 Raman Activ --     0.1317                 0.0872                 0.0776

                    13                     14                     15
                     A                      A                      A
 Frequencies --   143.9954               158.3666               186.1912
 Red. masses --     6.0403                 6.5501                 6.0240
 Frc consts  --     0.0738                 0.0968                 0.1230
 IR Inten    --     3.3342                 0.6025                 0.2710
 Raman Activ --     0.4148                 0.2841                 0.4861

                    16                     17                     18
                     A                      A                      A
 Frequencies --   198.7349               220.6886               263.1002
 Red. masses --     7.1623                 6.2978                 4.4427
 Frc consts  --     0.1667                 0.1807                 0.1812
 IR Inten    --     0.1724                 0.8158                12.7535
 Raman Activ --     2.1743                 0.9924                 0.2088

                    19                     20                     21
                     A                      A                      A
 Frequencies --   269.9455               283.1398               293.8450
 Red. masses --     5.3299                 4.8323                 5.3901
 Frc consts  --     0.2288                 0.2282                 0.2742
 IR Inten    --     3.9601                 2.4137                 4.3831
 Raman Activ --     0.3464                 0.1299                 0.2467

                    22                     23                     24
                     A                      A                      A
 Frequencies --   306.3125               313.3054               325.1584
 Red. masses --     5.2077                 6.1386                 6.3607
 Frc consts  --     0.2879                 0.3550                 0.3962
 IR Inten    --     9.0221                 5.3509                 2.6382
 Raman Activ --     0.7230                 2.1835                 1.7793

                    25                     26                     27
                     A                      A                      A
 Frequencies --   329.6272               359.7854               372.5775
 Red. masses --     6.7234                 4.3781                 5.6207
 Frc consts  --     0.4304                 0.3339                 0.4597
 IR Inten    --     5.3088                 5.0692                 3.2674
 Raman Activ --     6.9985                 0.2496                 1.0023

                    28                     29                     30
                     A                      A                      A
 Frequencies --   402.7663               416.6429               431.4944
 Red. masses --     5.5660                 6.1346                 6.0944
 Frc consts  --     0.5320                 0.6274                 0.6685
 IR Inten    --    12.5428                 6.5222                 4.6601
 Raman Activ --     1.9334                 7.2184                 2.6207

                    31                     32                     33
                     A                      A                      A
 Frequencies --   440.8361               466.0130               495.1787
 Red. masses --     3.8207                 3.5034                 3.7955
 Frc consts  --     0.4375                 0.4483                 0.5483
 IR Inten    --     1.1058                 8.5773                13.9835
 Raman Activ --     1.7084                 1.7633                 5.9765

                    34                     35                     36
                     A                      A                      A
 Frequencies --   502.4911               527.7990               564.4223
 Red. masses --     5.4597                 3.4611                 3.9366
 Frc consts  --     0.8122                 0.5681                 0.7389
 IR Inten    --     1.2550                15.4279                 4.2056
 Raman Activ --     0.0665                 2.8878                 1.1698

                    37                     38                     39
                     A                      A                      A
 Frequencies --   589.0959               591.9827               615.0289
 Red. masses --     4.6724                 3.1390                 3.8873
 Frc consts  --     0.9554                 0.6481                 0.8663
 IR Inten    --    16.9634                60.8379                16.6684
 Raman Activ --     0.2990                 0.6332                 1.0407

                    40                     41                     42
                     A                      A                      A
 Frequencies --   659.9853               689.9114               711.0869
 Red. masses --     6.3198                 1.0790                 4.0636
 Frc consts  --     1.6219                 0.3026                 1.2106
 IR Inten    --    34.4072               104.5026                29.3480
 Raman Activ --     0.6858                 1.5502                 3.4588

                    43                     44                     45
                     A                      A                      A
 Frequencies --   715.9525               721.4425               753.8580
 Red. masses --     1.0661                 1.1166                 1.1115
 Frc consts  --     0.3220                 0.3424                 0.3722
 IR Inten    --    79.7166                98.0718               113.9729
 Raman Activ --     2.3702                 1.7224                 1.4484

                    46                     47                     48
                     A                      A                      A
 Frequencies --   845.6847               846.8121               852.3178
 Red. masses --     1.2200                 1.4894                 1.1976
 Frc consts  --     0.5141                 0.6293                 0.5126
 IR Inten    --   112.8965                35.8787                35.8158
 Raman Activ --     1.4559                 1.6080                 0.6413

                    49                     50                     51
                     A                      A                      A
 Frequencies --   874.0859               921.4871               947.5939
 Red. masses --     1.5664                 5.0818                 5.0695
 Frc consts  --     0.7051                 2.5424                 2.6820
 IR Inten    --    41.9988                84.2279                59.9293
 Raman Activ --     1.2408                 3.6001                 1.2035

                    52                     53                     54
                     A                      A                      A
 Frequencies --   984.9273               991.2592               996.1862
 Red. masses --     5.2333                 4.8369                 4.8054
 Frc consts  --     2.9911                 2.8002                 2.8097
 IR Inten    --    83.5049               129.2447                14.0729
 Raman Activ --     0.6427                 4.1964                 2.1088

                    55                     56                     57
                     A                      A                      A
 Frequencies --  1005.7026              1017.9338              1026.6673
 Red. masses --     4.3683                 5.3464                 4.9871
 Frc consts  --     2.6032                 3.2640                 3.0971
 IR Inten    --    33.1506                49.9310               132.9317
 Raman Activ --     3.7755                 0.9398                 4.2041

                    58                     59                     60
                     A                      A                      A
 Frequencies --  1041.4481              1061.3322              1067.1037
 Red. masses --     3.7137                 2.3796                 2.6481
 Frc consts  --     2.3732                 1.5793                 1.7767
 IR Inten    --   611.8318                58.5089                41.9358
 Raman Activ --     1.6283                 6.9739                 1.9070

                    61                     62                     63
                     A                      A                      A
 Frequencies --  1079.8850              1082.8455              1089.7082
 Red. masses --     2.6531                 3.4799                 3.2894
 Frc consts  --     1.8229                 2.4041                 2.3014
 IR Inten    --    23.9432                54.5797                46.0879
 Raman Activ --     4.7009                 7.4568                 8.0424

                    64                     65                     66
                     A                      A                      A
 Frequencies --  1096.3702              1108.3542              1109.3483
 Red. masses --     5.3647                 3.4498                 4.7588
 Frc consts  --     3.7994                 2.4969                 3.4505
 IR Inten    --     8.2856                 6.4303               229.1753
 Raman Activ --     5.6114                16.5212                 2.7540

                    67                     68                     69
                     A                      A                      A
 Frequencies --  1127.2771              1129.3783              1144.6824
 Red. masses --     2.3820                 2.1552                 1.8001
 Frc consts  --     1.7834                 1.6196                 1.3897
 IR Inten    --     9.7764                 5.7796                10.1863
 Raman Activ --    11.8456                 8.7046                 4.6266

                    70                     71                     72
                     A                      A                      A
 Frequencies --  1147.6076              1154.1388              1156.7016
 Red. masses --     2.4736                 2.3988                 2.1904
 Frc consts  --     1.9194                 1.8826                 1.7267
 IR Inten    --    24.2838                21.4073               102.0140
 Raman Activ --     5.2911                 3.6837                 0.3321

                    73                     74                     75
                     A                      A                      A
 Frequencies --  1167.6597              1171.2642              1191.7770
 Red. masses --     2.2871                 2.3408                 1.5877
 Frc consts  --     1.8373                 1.8920                 1.3287
 IR Inten    --    37.6703                13.3844                 8.8741
 Raman Activ --     1.3603                 7.8645                 2.2200

                    76                     77                     78
                     A                      A                      A
 Frequencies --  1193.1845              1198.3270              1213.2249
 Red. masses --     1.5294                 2.1269                 1.3298
 Frc consts  --     1.2829                 1.7995                 1.1532
 IR Inten    --    11.5808                15.5764                 6.0620
 Raman Activ --     0.1496                 3.5344                 1.2199

                    79                     80                     81
                     A                      A                      A
 Frequencies --  1230.1467              1240.1891              1263.3931
 Red. masses --     1.6547                 1.1692                 1.2570
 Frc consts  --     1.4753                 1.0596                 1.1821
 IR Inten    --     5.7984                13.8873                16.5630
 Raman Activ --     2.2840                 2.0441                 2.7762

                    82                     83                     84
                     A                      A                      A
 Frequencies --  1269.5229              1289.2529              1297.2155
 Red. masses --     1.3622                 1.2606                 1.2397
 Frc consts  --     1.2935                 1.2345                 1.2291
 IR Inten    --    32.5052                10.5987                 4.0049
 Raman Activ --     1.1223                 3.4459                 5.2962

                    85                     86                     87
                     A                      A                      A
 Frequencies --  1299.0612              1305.2594              1310.2223
 Red. masses --     1.2764                 1.2101                 1.2923
 Frc consts  --     1.2691                 1.2147                 1.3071
 IR Inten    --    22.2201                27.0646                14.0138
 Raman Activ --     4.0801                 7.4902                 2.5003

                    88                     89                     90
                     A                      A                      A
 Frequencies --  1316.8942              1321.2318              1330.7451
 Red. masses --     1.3277                 1.2042                 1.1879
 Frc consts  --     1.3566                 1.2386                 1.2395
 IR Inten    --    40.7551                 2.6165                21.2863
 Raman Activ --     4.8170                 2.0306                10.3698

                    91                     92                     93
                     A                      A                      A
 Frequencies --  1344.6530              1350.9148              1360.4510
 Red. masses --     1.4249                 1.4411                 1.1991
 Frc consts  --     1.5179                 1.5496                 1.3076
 IR Inten    --    13.1632                17.1811                34.2785
 Raman Activ --     9.3591                 6.1447                 2.7883

                    94                     95                     96
                     A                      A                      A
 Frequencies --  1371.0970              1372.9561              1377.0449
 Red. masses --     1.3810                 1.3099                 1.2598
 Frc consts  --     1.5296                 1.4548                 1.4075
 IR Inten    --    18.4593                33.3821                20.5433
 Raman Activ --     2.1252                 6.2886                 9.8695

                    97                     98                     99
                     A                      A                      A
 Frequencies --  1381.9991              1389.3369              1397.5753
 Red. masses --     1.2082                 1.6181                 1.5463
 Frc consts  --     1.3596                 1.8403                 1.7795
 IR Inten    --    22.7377                15.1822                 1.8894
 Raman Activ --     2.1730                 3.3803                 3.4637

                   100                    101                    102
                     A                      A                      A
 Frequencies --  1400.7767              1450.0119              1473.5704
 Red. masses --     1.6694                 1.4370                 1.1539
 Frc consts  --     1.9299                 1.7802                 1.4762
 IR Inten    --    15.7576                21.2954                 7.7963
 Raman Activ --     2.9118                 0.9347                 5.1584

                   103                    104                    105
                     A                      A                      A
 Frequencies --  1480.0691              1481.1714              1485.4571
 Red. masses --     1.2652                 1.3179                 1.1252
 Frc consts  --     1.6330                 1.7034                 1.4629
 IR Inten    --    24.2985                14.6886                 0.8964
 Raman Activ --     0.7828                 3.0998                 3.9908

                   106                    107                    108
                     A                      A                      A
 Frequencies --  1513.9743              1541.2126              3258.9442
 Red. masses --     1.2648                 1.2394                 1.0807
 Frc consts  --     1.7081                 1.7346                 6.7624
 IR Inten    --    30.9127                33.4994                11.6386
 Raman Activ --     0.5556                 1.5673                29.3291

                   109                    110                    111
                     A                      A                      A
 Frequencies --  3263.5724              3267.1160              3270.1369
 Red. masses --     1.0584                 1.0647                 1.0748
 Frc consts  --     6.6417                 6.6956                 6.7718
 IR Inten    --    30.1982                80.5274                30.2721
 Raman Activ --    83.5030               201.4729                49.5827

                   112                    113                    114
                     A                      A                      A
 Frequencies --  3284.0035              3291.2578              3297.5225
 Red. masses --     1.0836                 1.0784                 1.0784
 Frc consts  --     6.8856                 6.8827                 6.9090
 IR Inten    --    14.3225               178.4789               141.3340
 Raman Activ --    11.1456                81.9027                49.6367

                   115                    116                    117
                     A                      A                      A
 Frequencies --  3300.2337              3301.0815              3303.1424
 Red. masses --     1.0840                 1.0848                 1.0807
 Frc consts  --     6.9561                 6.9649                 6.9471
 IR Inten    --    28.0408                67.7246                49.1110
 Raman Activ --   108.2717                24.7525               219.8034

                   118                    119                    120
                     A                      A                      A
 Frequencies --  3311.5692              3315.6944              3318.6427
 Red. masses --     1.0864                 1.0796                 1.0916
 Frc consts  --     7.0195                 6.9927                 7.0832
 IR Inten    --    63.6867               528.8255               245.7051
 Raman Activ --    92.1672                59.5276                36.0535

                   121                    122                    123
                     A                      A                      A
 Frequencies --  3320.9940              3324.6222              3327.2954
 Red. masses --     1.1061                 1.0897                 1.0883
 Frc consts  --     7.1874                 7.0967                 7.0988
 IR Inten    --    40.8714               117.8085                42.6195
 Raman Activ --    62.0913                22.5969                72.2628

                   124                    125                    126
                     A                      A                      A
 Frequencies --  3381.7582              3384.8313              3396.7253
 Red. masses --     1.0658                 1.0665                 1.0660
 Frc consts  --     7.1812                 7.1992                 7.2462
 IR Inten    --    40.5584                28.1833                50.9258
 Raman Activ --   118.5138               152.6330               132.9326

                   127                    128                    129
                     A                      A                      A
 Frequencies --  3401.4432              3919.1463              3921.7808
 Red. masses --     1.0675                 1.0674                 1.0676
 Frc consts  --     7.2766                 9.6597                 9.6745
 IR Inten    --    37.8294                47.1449                69.5396
 Raman Activ --   136.6849               160.2775                95.0792

 - Thermochemistry -
 -------------------
 Temperature   298.150 Kelvin.  Pressure   1.00000 Atm.
 Atom     1 has atomic number  8 and mass  15.99491

 Molecular mass:   342.11621 amu.
 Principal axes and moments of inertia in atomic units:
                           1         2         3
     Eigenvalues --  4459.73321********************
           X            0.99997  -0.00818   0.00032
           Y            0.00818   0.99996  -0.00270
           Z           -0.00030   0.00270   1.00000
 This molecule is an asymmetric top.
 Rotational symmetry number  1.
 Warning -- assumption of classical behavior for rotation
           may cause significant error
 Rotational temperatures (Kelvin)      0.01942     0.00706     0.00530
 Rotational constants (GHZ):           0.40467     0.14708     0.11045
    7 imaginary frequencies ignored.
 Zero-point vibrational energy     978079.1 (Joules/Mol)
                                  233.76652 (Kcal/Mol)
 Warning -- explicit consideration of  32 degrees of freedom as
           vibrations may cause significant error
 Vibrational temperatures:     47.30    63.15    95.62   138.17   162.36
          (Kelvin)            207.18   227.85   267.89   285.93   317.52
                              378.54   388.39   407.37   422.78   440.71
                              450.78   467.83   474.26   517.65   536.06
                              579.49   599.46   620.82   634.26   670.49
                              712.45   722.97   759.38   812.08   847.58
                              851.73   884.89   949.57   992.63  1023.09
                             1030.09  1037.99  1084.63  1216.75  1218.37
                             1226.29  1257.61  1325.81  1363.37  1417.09
                             1426.20  1433.29  1446.98  1464.58  1477.14
                             1498.41  1527.02  1535.32  1553.71  1557.97
                             1567.85  1577.43  1594.67  1596.10  1621.90
                             1624.92  1646.94  1651.15  1660.55  1664.23
                             1680.00  1685.19  1714.70  1716.72  1724.12
                             1745.56  1769.90  1784.35  1817.74  1826.56
                             1854.95  1866.40  1869.06  1877.97  1885.12
                             1894.71  1900.96  1914.64  1934.65  1943.66
                             1957.38  1972.70  1975.38  1981.26  1988.39
                             1998.94  2010.80  2015.40  2086.24  2120.14
                             2129.49  2131.07  2137.24  2178.27  2217.46
                             4688.89  4695.55  4700.65  4704.99  4724.94
                             4735.38  4744.39  4748.29  4749.51  4752.48
                             4764.60  4770.54  4774.78  4778.16  4783.38
                             4787.23  4865.59  4870.01  4887.12  4893.91
                             5638.77  5642.56

 Zero-point correction=                           0.372531 (Hartree/Particle)
 Thermal correction to Energy=                    0.391048
 Thermal correction to Enthalpy=                  0.391992
 Thermal correction to Gibbs Free Energy=         0.326069
 Sum of electronic and zero-point Energies=          -1297.543320
 Sum of electronic and thermal Energies=             -1297.524802
 Sum of electronic and thermal Enthalpies=           -1297.523858
 Sum of electronic and thermal Free Energies=        -1297.589782

                     E (Thermal)             CV                S
                      KCal/Mol        Cal/Mol-Kelvin    Cal/Mol-Kelvin
 Total                  245.387             75.759            138.748
 Electronic               0.000              0.000              0.000
 Translational            0.889              2.981             43.384
 Rotational               0.889              2.981             35.146
 Vibrational            243.609             69.797             60.218
 Vibration     1          0.594              1.983              5.648
 Vibration     2          0.595              1.980              5.075
 Vibration     3          0.598              1.970              4.256
 Vibration     4          0.603              1.952              3.533
 Vibration     5          0.607              1.939              3.219
 Vibration     6          0.616              1.909              2.750
 Vibration     7          0.621              1.893              2.569
 Vibration     8          0.632              1.859              2.265
 Vibration     9          0.637              1.842              2.145
 Vibration    10          0.647              1.810              1.953
 Vibration    11          0.670              1.740              1.641
 Vibration    12          0.674              1.729              1.597
 Vibration    13          0.682              1.705              1.515
 Vibration    14          0.689              1.685              1.452
 Vibration    15          0.697              1.662              1.382
 Vibration    16          0.701              1.648              1.345
 Vibration    17          0.709              1.625              1.284
 Vibration    18          0.712              1.616              1.262
 Vibration    19          0.734              1.555              1.123
 Vibration    20          0.744              1.528              1.069
 Vibration    21          0.768              1.464              0.953
 Vibration    22          0.780              1.434              0.903
 Vibration    23          0.793              1.402              0.854
 Vibration    24          0.801              1.381              0.824
 Vibration    25          0.823              1.325              0.749
 Vibration    26          0.851              1.261              0.670
 Vibration    27          0.858              1.244              0.652
 Vibration    28          0.883              1.188              0.592
 Vibration    29          0.920              1.108              0.515
 Vibration    30          0.946              1.055              0.469
 Vibration    31          0.949              1.049              0.464
 Vibration    32          0.975              1.000              0.425

 Normal termination of Gaussian 09 at Thu Jan 21 05:03:57 2016.
