 Gaussian 09, Revision B.01,
 Gaussian 09:  EM64L-G09RevB.01 12-Aug-2010

 ------------------------------------------------
 # freq=raman b3lyp/6-31+g(d,p) geom=connectivity
 ------------------------------------------------

 ------------
 550 8000.com
 ------------
 Symbolic Z-matrix:
 Charge =  0 Multiplicity = 1

                         Standard orientation:
 ---------------------------------------------------------------------
 Center     Atomic      Atomic             Coordinates (Angstroms)
 Number     Number       Type             X           Y           Z
 ---------------------------------------------------------------------
      1          8           0       -4.901043    0.466725   -0.686253
      2          6           0       -3.697984    0.107103    0.007983
      3          6           0       -3.132511   -1.207553   -0.505712
      4          8           0       -4.133603   -2.211064   -0.278152
      5          1           0       -5.029440   -1.769818   -0.239396
      6          6           0       -1.834094   -1.515443    0.222622
      7          8           0       -1.277698   -2.613039   -0.515172
      8          1           0       -1.930255   -3.259525   -0.912610
      9          6           0       -2.886647    2.544745   -0.375737
     10          8           0       -3.636397    3.308817    0.580648
     11          1           0       -4.505461    2.842275    0.740757
     12          6           0       -2.545775    1.072200   -0.218322
     13          8           0       -1.509779    0.749322    0.721270
     14          6           0       -0.799783   -0.402178    0.242894
     15          8           0        0.340020   -0.691529    1.065842
     16          6           0        1.488384   -0.195862    0.364163
     17          6           0        2.012831    1.204748    0.636216
     18          8           0        1.051742    2.252524    0.438934
     19          1           0        0.789646    2.403218   -0.513990
     20          6           0        3.167515    1.442474   -0.323399
     21          8           0        3.739799    2.757210   -0.381204
     22          1           0        2.922526    3.280476   -0.139880
     23          6           0        2.144633   -2.592005    0.871953
     24          8           0        1.511651   -3.323062   -0.188392
     25          1           0        0.854317   -2.809858   -0.740225
     26          6           0        2.624252   -1.192862    0.523980
     27          8           0        3.526099   -0.938711   -0.562900
     28          6           0        4.170326    0.302844   -0.241283
     29          8           0        5.372903    0.541165   -0.987097
     30          1           0       -5.654446    0.058379   -0.253543
     31          1           0       -3.412521    2.630972   -1.303596
     32          1           0       -1.954020    3.054637   -0.498690
     33          1           0       -2.144004    0.793826   -1.170157
     34          1           0       -3.898326    0.026588    1.055972
     35          1           0       -2.941384   -1.126956   -1.555414
     36          1           0       -2.047934   -1.826668    1.223777
     37          1           0       -0.468251   -0.216540   -0.757369
     38          1           0        6.101806    0.068556   -0.578511
     39          1           0        4.463965    0.232969    0.785262
     40          1           0        2.722382    1.323379   -1.289097
     41          1           0        2.378150    1.251325    1.640841
     42          1           0        1.222730   -0.209232   -0.672249
     43          1           0        3.156260   -0.872824    1.395441
     44          1           0        1.449888   -2.513156    1.681899
     45          1           0        2.987940   -3.158145    1.208434
 ---------------------------------------------------------------------

 SCF Done:  E(RB3LYP) =  -1297.89272030     A.U. after   14 cycles

 The electronic state is 1-A.
 Alpha  occ. eigenvalues --  -19.21099 -19.20563 -19.19552 -19.19223 -19.18932
 Alpha  occ. eigenvalues --  -19.18432 -19.18099 -19.17802 -19.17549 -19.17468
 Alpha  occ. eigenvalues --  -19.14234 -10.32216 -10.30785 -10.27500 -10.27249
 Alpha  occ. eigenvalues --  -10.27172 -10.27089 -10.27015 -10.26295 -10.25711
 Alpha  occ. eigenvalues --  -10.25653 -10.25142 -10.23539  -1.10725  -1.08814
 Alpha  occ. eigenvalues --   -1.08434  -1.05909  -1.05688  -1.05297  -1.03567
 Alpha  occ. eigenvalues --   -1.03100  -1.02852  -1.02340  -0.99793  -0.83286
 Alpha  occ. eigenvalues --   -0.82751  -0.79938  -0.78371  -0.72978  -0.71535
 Alpha  occ. eigenvalues --   -0.68233  -0.66640  -0.64865  -0.63523  -0.63293
 Alpha  occ. eigenvalues --   -0.62109  -0.58116  -0.56898  -0.56476  -0.56062
 Alpha  occ. eigenvalues --   -0.54147  -0.53758  -0.52478  -0.52019  -0.51402
 Alpha  occ. eigenvalues --   -0.51232  -0.50764  -0.49327  -0.48981  -0.48090
 Alpha  occ. eigenvalues --   -0.47069  -0.46807  -0.45659  -0.44706  -0.44403
 Alpha  occ. eigenvalues --   -0.43875  -0.42974  -0.42382  -0.40331  -0.39254
 Alpha  occ. eigenvalues --   -0.39010  -0.38937  -0.38448  -0.37679  -0.37583
 Alpha  occ. eigenvalues --   -0.36665  -0.36085  -0.35152  -0.35082  -0.33978
 Alpha  occ. eigenvalues --   -0.33090  -0.32340  -0.32017  -0.31400  -0.30858
 Alpha  occ. eigenvalues --   -0.30569  -0.29973  -0.28921  -0.28038  -0.27919
 Alpha  occ. eigenvalues --   -0.26410
 Alpha virt. eigenvalues --   -0.05065  -0.03273  -0.01335  -0.00918  -0.00111
 Alpha virt. eigenvalues --    0.00878   0.01422   0.01891   0.02592   0.02825
 Alpha virt. eigenvalues --    0.03870   0.04148   0.04337   0.04896   0.05254

 Mulliken atomic charges:
              1
     1  O   -0.524789
     2  C   -0.375241
     3  C   -0.300520
     4  O   -0.499968
     5  H    0.311924
     6  C    0.286112
     7  O   -0.588923
     8  H    0.395144
     9  C    0.096099
    10  O   -0.483854
    11  H    0.342815
    12  C    0.630263
    13  O   -0.296649
    14  C    0.025519
    15  O   -0.285960
    16  C   -0.105470
    17  C   -0.297806
    18  O   -0.492183
    19  H    0.359219
    20  C   -0.084192
    21  O   -0.433580
    22  H    0.350000
    23  C   -0.377093
    24  O   -0.480536
    25  H    0.374115
    26  C    0.410818
    27  O   -0.335343
    28  C    0.354643
    29  O   -0.501768
    30  H    0.347701
    31  H    0.144885
    32  H    0.137712
    33  H    0.101851
    34  H    0.162728
    35  H    0.155401
    36  H    0.160828
    37  H    0.085923
    38  H    0.350096
    39  H    0.098479
    40  H    0.127608
    41  H    0.158161
    42  H    0.108638
    43  H    0.105547
    44  H    0.150313
    45  H    0.131331
 Sum of Mulliken atomic charges =   0.00000

 Dipole moment (field-independent basis, Debye):
    X=             -5.0606    Y=             -0.5075    Z=              0.4580  Tot=              5.1065
 Quadrupole moment (field-independent basis, Debye-Ang):
   XX=           -117.4984   YY=           -165.2372   ZZ=           -140.4013
   XY=              1.7919   XZ=             13.3180   YZ=             -7.2495

  Exact polarizability: 220.615   0.675 188.253   0.214  -2.288 144.065
 Approx polarizability: 264.758   0.843 246.481   0.302  -1.649 238.421

 ******    6 imaginary frequencies (negative Signs) ******

                     1                      2                      3
                     A                      A                      A
 Frequencies --  -272.6037              -222.9502              -212.7646
 Red. masses --     1.2896                 1.0916                 1.5920
 Frc consts  --     0.0565                 0.0320                 0.0425
 IR Inten    --    88.4219               112.2681                 4.8764
 Raman Activ --     0.6481                 1.2287                 0.0871

                     4                      5                      6
                     A                      A                      A
 Frequencies --   -98.6113               -72.3847               -52.3285
 Red. masses --     6.7186                 6.4781                 6.4611
 Frc consts  --     0.0385                 0.0200                 0.0104
 IR Inten    --     0.5701                 0.5344                 0.5937
 Raman Activ --     0.0684                 0.0836                 0.0305

                     7                      8                      9
                     A                      A                      A
 Frequencies --    35.4442                51.6357                65.1329
 Red. masses --     6.4492                 6.7950                 6.6824
 Frc consts  --     0.0048                 0.0107                 0.0167
 IR Inten    --     0.7877                 3.7649                 5.0545
 Raman Activ --     0.0870                 0.0779                 0.0918

                    10                     11                     12
                     A                      A                      A
 Frequencies --    87.0573               107.2214               138.2102
 Red. masses --     6.2669                 5.0121                 5.4611
 Frc consts  --     0.0280                 0.0339                 0.0615
 IR Inten    --     2.8932                 0.1578                 1.2582
 Raman Activ --     0.1149                 0.5179                 0.4909

                    13                     14                     15
                     A                      A                      A
 Frequencies --   157.3795               165.7153               191.3458
 Red. masses --     6.4989                 5.4180                 5.4743
 Frc consts  --     0.0948                 0.0877                 0.1181
 IR Inten    --     1.4322                 0.7863                 0.2883
 Raman Activ --     0.7220                 0.2833                 0.5986

                    16                     17                     18
                     A                      A                      A
 Frequencies --   231.2022               246.3127               261.3454
 Red. masses --     4.6650                 3.6957                 4.9052
 Frc consts  --     0.1469                 0.1321                 0.1974
 IR Inten    --     7.8295                 1.0091                11.0672
 Raman Activ --     1.2768                 0.9995                 2.4853

                    19                     20                     21
                     A                      A                      A
 Frequencies --   270.1670               279.2650               288.4621
 Red. masses --     5.7194                 4.7703                 5.6570
 Frc consts  --     0.2460                 0.2192                 0.2773
 IR Inten    --    14.3901                 8.0682                 2.9777
 Raman Activ --     0.2392                 0.1084                 0.3774

                    22                     23                     24
                     A                      A                      A
 Frequencies --   303.3517               313.4568               323.3419
 Red. masses --     4.8537                 5.0323                 5.6355
 Frc consts  --     0.2632                 0.2913                 0.3471
 IR Inten    --     3.1864                 4.1086                 3.0818
 Raman Activ --     1.1797                 3.4898                 0.1821

                    25                     26                     27
                     A                      A                      A
 Frequencies --   345.0754               376.8470               401.3193
 Red. masses --     3.6623                 3.8057                 6.0544
 Frc consts  --     0.2569                 0.3184                 0.5745
 IR Inten    --    16.5886                 9.7612                 8.4632
 Raman Activ --     0.2637                 0.5414                 3.7648

                    28                     29                     30
                     A                      A                      A
 Frequencies --   419.8004               427.2262               464.5661
 Red. masses --     6.5326                 5.4300                 7.0763
 Frc consts  --     0.6783                 0.5839                 0.8998
 IR Inten    --     2.0948                 3.4666                20.4207
 Raman Activ --     4.2646                 1.7578                 1.3354

                    31                     32                     33
                     A                      A                      A
 Frequencies --   482.4347               510.8711               522.8619
 Red. masses --     5.1810                 3.9143                 4.6214
 Frc consts  --     0.7105                 0.6019                 0.7444
 IR Inten    --    12.0830                14.6274                 4.2158
 Raman Activ --     2.1056                 7.0911                 2.1353

                    34                     35                     36
                     A                      A                      A
 Frequencies --   533.8478               543.6843               568.3873
 Red. masses --     4.2157                 4.5884                 1.2549
 Frc consts  --     0.7079                 0.7991                 0.2389
 IR Inten    --     7.0945                27.1326               139.1821
 Raman Activ --     4.9599                 2.5589                 2.9857

                    37                     38                     39
                     A                      A                      A
 Frequencies --   576.1989               579.3825               596.6118
 Red. masses --     3.1581                 3.3308                 1.2359
 Frc consts  --     0.6178                 0.6588                 0.2592
 IR Inten    --    56.1386                12.3227                79.6841
 Raman Activ --     0.7695                 0.2735                 1.5933

                    40                     41                     42
                     A                      A                      A
 Frequencies --   630.7137               644.1125               652.3278
 Red. masses --     2.4603                 1.3429                 2.7579
 Frc consts  --     0.5766                 0.3283                 0.6914
 IR Inten    --    49.4772               136.9120                 6.3054
 Raman Activ --     0.2919                 1.6817                 0.9063

                    43                     44                     45
                     A                      A                      A
 Frequencies --   666.6134               711.1330               723.2550
 Red. masses --     1.1513                 1.2220                 2.2683
 Frc consts  --     0.3014                 0.3641                 0.6991
 IR Inten    --    59.4054                46.2605                83.8635
 Raman Activ --     2.3536                 0.9016                 0.4291

                    46                     47                     48
                     A                      A                      A
 Frequencies --   731.3099               765.9957               832.5219
 Red. masses --     3.3795                 1.0877                 2.9851
 Frc consts  --     1.0649                 0.3760                 1.2190
 IR Inten    --    14.7563               119.8162                 4.2725
 Raman Activ --     1.7921                 1.4744                 3.7771

                    49                     50                     51
                     A                      A                      A
 Frequencies --   856.4387               874.5876               900.3408
 Red. masses --     2.8657                 3.1164                 2.7301
 Frc consts  --     1.2385                 1.4044                 1.3039
 IR Inten    --     5.1381                19.1466                27.4614
 Raman Activ --     1.3349                 2.6413                 1.1368

                    52                     53                     54
                     A                      A                      A
 Frequencies --   965.5467               978.0456               985.2214
 Red. masses --     5.7203                 6.6924                 6.9665
 Frc consts  --     3.1421                 3.7718                 3.9841
 IR Inten    --    31.4740               387.1656                25.6591
 Raman Activ --     2.2169                 0.4795                 1.2336

                    55                     56                     57
                     A                      A                      A
 Frequencies --  1003.1142              1005.1915              1032.7269
 Red. masses --     9.0433                 4.2152                 6.2066
 Frc consts  --     5.3614                 2.5094                 3.9001
 IR Inten    --   393.0761                13.0665               213.8325
 Raman Activ --     2.4992                 3.3306                 2.0828

                    58                     59                     60
                     A                      A                      A
 Frequencies --  1034.6633              1041.7821              1048.7138
 Red. masses --     3.7361                 3.1888                 3.6349
 Frc consts  --     2.3565                 2.0391                 2.3554
 IR Inten    --   278.6560                14.4505                98.2397
 Raman Activ --     4.9117                 2.1393                 3.3041

                    61                     62                     63
                     A                      A                      A
 Frequencies --  1065.3059              1068.9052              1093.1009
 Red. masses --     3.5613                 2.7772                 2.9519
 Frc consts  --     2.3813                 1.8695                 2.0781
 IR Inten    --    70.7756                43.9901                85.1995
 Raman Activ --    11.9184                 1.8816                 2.3403

                    64                     65                     66
                     A                      A                      A
 Frequencies --  1094.2285              1099.1881              1115.9881
 Red. masses --     2.6635                 2.4309                 2.4266
 Frc consts  --     1.8790                 1.7305                 1.7806
 IR Inten    --    42.0471                73.8852                16.8698
 Raman Activ --     1.4373                 1.6716                 9.3863

                    67                     68                     69
                     A                      A                      A
 Frequencies --  1120.4093              1124.2080              1146.7815
 Red. masses --     2.2528                 3.5750                 2.6911
 Frc consts  --     1.6662                 2.6621                 2.0852
 IR Inten    --    30.1405                16.4366                 9.4322
 Raman Activ --     6.1658                 1.4011                 4.7029

                    70                     71                     72
                     A                      A                      A
 Frequencies --  1149.1563              1158.9014              1164.5197
 Red. masses --     2.4072                 2.2203                 2.2226
 Frc consts  --     1.8729                 1.7569                 1.7758
 IR Inten    --    56.2716                47.2976                29.9652
 Raman Activ --     4.1401                 4.5800                 1.0285

                    73                     74                     75
                     A                      A                      A
 Frequencies --  1177.9803              1182.6945              1200.5622
 Red. masses --     1.6783                 1.3390                 1.8266
 Frc consts  --     1.3721                 1.1035                 1.5512
 IR Inten    --     4.5664                30.1964                25.3530
 Raman Activ --     2.0902                 4.6105                 2.5396

                    76                     77                     78
                     A                      A                      A
 Frequencies --  1217.1893              1224.8715              1236.3450
 Red. masses --     2.1713                 1.6086                 1.3616
 Frc consts  --     1.8953                 1.4219                 1.2263
 IR Inten    --    10.3654                 5.4421                10.3449
 Raman Activ --     1.6358                 0.6906                 0.8140

                    79                     80                     81
                     A                      A                      A
 Frequencies --  1248.8387              1257.5273              1264.0090
 Red. masses --     1.4414                 1.3064                 1.2511
 Frc consts  --     1.3245                 1.2172                 1.1778
 IR Inten    --     2.1045                17.0436                 9.0596
 Raman Activ --     5.1760                 3.2887                 2.7550

                    82                     83                     84
                     A                      A                      A
 Frequencies --  1271.2820              1291.6942              1295.8666
 Red. masses --     1.7803                 1.3982                 1.4361
 Frc consts  --     1.6952                 1.3745                 1.4208
 IR Inten    --     2.0179                22.7619                28.9797
 Raman Activ --     2.0350                 6.2491                 3.0022

                    85                     86                     87
                     A                      A                      A
 Frequencies --  1300.1189              1317.9636              1324.1506
 Red. masses --     1.2821                 1.3164                 1.2796
 Frc consts  --     1.2768                 1.3473                 1.3219
 IR Inten    --     7.1270                12.2905                 4.0614
 Raman Activ --     2.4851                 2.3129                 2.2118

                    88                     89                     90
                     A                      A                      A
 Frequencies --  1338.6114              1342.6376              1348.6334
 Red. masses --     1.3437                 1.2688                 1.3060
 Frc consts  --     1.4186                 1.3476                 1.3995
 IR Inten    --     8.0412                31.0052                18.7938
 Raman Activ --     4.0754                 2.3100                 3.0865

                    91                     92                     93
                     A                      A                      A
 Frequencies --  1367.0357              1373.9275              1374.9969
 Red. masses --     1.3968                 1.2632                 1.2256
 Frc consts  --     1.5380                 1.4049                 1.3652
 IR Inten    --    27.2225                37.1862                 5.3707
 Raman Activ --     4.2901                 3.5604                 1.2139

                    94                     95                     96
                     A                      A                      A
 Frequencies --  1378.6933              1390.4825              1397.8918
 Red. masses --     1.2035                 1.3467                 1.5046
 Frc consts  --     1.3479                 1.5341                 1.7322
 IR Inten    --    40.8904                 9.2478                 2.9102
 Raman Activ --     8.9049                 3.0534                 8.1661

                    97                     98                     99
                     A                      A                      A
 Frequencies --  1403.3871              1409.0965              1417.8396
 Red. masses --     1.2325                 1.3710                 1.2964
 Frc consts  --     1.4302                 1.6039                 1.5355
 IR Inten    --    46.6844                10.3534                41.7716
 Raman Activ --     7.5670                 4.2940                 1.7666

                   100                    101                    102
                     A                      A                      A
 Frequencies --  1422.5805              1428.3589              1436.3779
 Red. masses --     1.3344                 1.3219                 1.2720
 Frc consts  --     1.5911                 1.5890                 1.5463
 IR Inten    --    24.1430               133.6783                30.4709
 Raman Activ --     2.3885                 1.9592                 3.2150

                   103                    104                    105
                     A                      A                      A
 Frequencies --  1444.5658              1448.7703              1467.6975
 Red. masses --     1.0801                 1.1787                 1.0720
 Frc consts  --     1.3280                 1.4576                 1.3605
 IR Inten    --    15.3678                10.5549                 8.8761
 Raman Activ --     5.0935                 2.4536                 6.6122

                   106                    107                    108
                     A                      A                      A
 Frequencies --  1493.5794              1506.7491              3248.9916
 Red. masses --     1.4501                 1.1255                 1.0819
 Frc consts  --     1.9060                 1.5054                 6.7290
 IR Inten    --    66.3806                 0.5513                 4.4128
 Raman Activ --     1.6080                12.5240                15.3930

                   109                    110                    111
                     A                      A                      A
 Frequencies --  3259.4437              3260.8887              3263.7459
 Red. masses --     1.0834                 1.0803                 1.0831
 Frc consts  --     6.7812                 6.7684                 6.7976
 IR Inten    --     2.8929                 1.9788                11.2071
 Raman Activ --    40.2937                27.7829                54.7110

                   112                    113                    114
                     A                      A                      A
 Frequencies --  3271.0027              3285.1576              3288.4185
 Red. masses --     1.0834                 1.0648                 1.0783
 Frc consts  --     6.8299                 6.7705                 6.8704
 IR Inten    --    54.6893                25.4458                21.5427
 Raman Activ --     4.4824                77.3880               203.2732

                   115                    116                    117
                     A                      A                      A
 Frequencies --  3290.3960              3298.1882              3308.2075
 Red. masses --     1.0613                 1.0845                 1.0861
 Frc consts  --     6.7699                 6.9508                 7.0031
 IR Inten    --    77.6339                 9.0148                 8.7713
 Raman Activ --   106.3080               150.6010                 5.2579

                   118                    119                    120
                     A                      A                      A
 Frequencies --  3319.5519              3320.5093              3335.6041
 Red. masses --     1.0865                 1.0863                 1.1034
 Frc consts  --     7.0541                 7.0568                 7.2331
 IR Inten    --    17.5942                66.4563                22.7196
 Raman Activ --    12.2951                68.8471                70.1770

                   121                    122                    123
                     A                      A                      A
 Frequencies --  3339.9581              3378.2357              3382.9717
 Red. masses --     1.1081                 1.0654                 1.0682
 Frc consts  --     7.2827                 7.1637                 7.2027
 IR Inten    --    25.3410                46.1736                91.5626
 Raman Activ --    84.5095                77.6770               131.0389

                   124                    125                    126
                     A                      A                      A
 Frequencies --  3387.5883              3389.0025              3390.1847
 Red. masses --     1.0664                 1.0660                 1.0676
 Frc consts  --     7.2103                 7.2137                 7.2298
 IR Inten    --     8.7525                43.3879                57.6494
 Raman Activ --    18.9962               120.2928                31.1784

                   127                    128                    129
                     A                      A                      A
 Frequencies --  3402.6679              3903.9519              3916.1839
 Red. masses --     1.0669                 1.0675                 1.0675
 Frc consts  --     7.2783                 9.5857                 9.6455
 IR Inten    --    15.2647                40.4431                70.1834
 Raman Activ --    52.8566               112.3327               131.3766

 - Thermochemistry -
 -------------------
 Temperature   298.150 Kelvin.  Pressure   1.00000 Atm.
 Atom     1 has atomic number  8 and mass  15.99491

 Molecular mass:   342.11621 amu.
 Principal axes and moments of inertia in atomic units:
                           1         2         3
     Eigenvalues --  4543.70502********************
           X            0.99998  -0.00314   0.00520
           Y            0.00319   0.99996  -0.00863
           Z           -0.00517   0.00865   0.99995
 This molecule is an asymmetric top.
 Rotational symmetry number  1.
 Warning -- assumption of classical behavior for rotation
           may cause significant error
 Rotational temperatures (Kelvin)      0.01906     0.00740     0.00563
 Rotational constants (GHZ):           0.39720     0.15417     0.11737
    6 imaginary frequencies ignored.
 Zero-point vibrational energy     978509.8 (Joules/Mol)
                                  233.86946 (Kcal/Mol)
 Warning -- explicit consideration of  33 degrees of freedom as
           vibrations may cause significant error
 Vibrational temperatures:     51.00    74.29    93.71   125.26   154.27
          (Kelvin)            198.85   226.43   238.43   275.30   332.65
                              354.39   376.02   388.71   401.80   415.03
                              436.45   450.99   465.22   496.49   542.20
                              577.41   604.00   614.68   668.41   694.12
                              735.03   752.28   768.09   782.24   817.78
                              829.02   833.60   858.39   907.46   926.73
                              938.55   959.11  1023.16  1040.60  1052.19
                             1102.10  1197.81  1232.22  1258.33  1295.39
                             1389.20  1407.19  1417.51  1443.26  1446.24
                             1485.86  1488.65  1498.89  1508.86  1532.74
                             1537.91  1572.73  1574.35  1581.48  1605.66
                             1612.02  1617.48  1649.96  1653.38  1667.40
                             1675.48  1694.85  1701.63  1727.34  1751.26
                             1762.31  1778.82  1796.80  1809.30  1818.62
                             1829.09  1858.46  1864.46  1870.58  1896.25
                             1905.15  1925.96  1931.75  1940.38  1966.86
                             1976.77  1978.31  1983.63  2000.59  2011.25
                             2019.16  2027.37  2039.95  2046.77  2055.09
                             2066.62  2078.41  2084.45  2111.69  2148.92
                             2167.87  4674.57  4689.61  4691.69  4695.80
                             4706.24  4726.60  4731.29  4734.14  4745.35
                             4759.77  4776.09  4777.47  4799.18  4805.45
                             4860.52  4867.34  4873.98  4876.01  4877.71
                             4895.67  5616.91  5634.51

 Zero-point correction=                           0.372695 (Hartree/Particle)
 Thermal correction to Energy=                    0.391738
 Thermal correction to Enthalpy=                  0.392682
 Thermal correction to Gibbs Free Energy=         0.325978
 Sum of electronic and zero-point Energies=          -1297.520026
 Sum of electronic and thermal Energies=             -1297.500982
 Sum of electronic and thermal Enthalpies=           -1297.500038
 Sum of electronic and thermal Free Energies=        -1297.566742

                     E (Thermal)             CV                S
                      KCal/Mol        Cal/Mol-Kelvin    Cal/Mol-Kelvin
 Total                  245.819             77.983            140.391
 Electronic               0.000              0.000              0.000
 Translational            0.889              2.981             43.384
 Rotational               0.889              2.981             35.057
 Vibrational            244.042             72.021             61.949
 Vibration     1          0.594              1.982              5.499
 Vibration     2          0.596              1.977              4.754
 Vibration     3          0.597              1.971              4.295
 Vibration     4          0.601              1.958              3.725
 Vibration     5          0.606              1.943              3.319
 Vibration     6          0.614              1.915              2.829
 Vibration     7          0.621              1.894              2.581
 Vibration     8          0.624              1.885              2.484
 Vibration     9          0.634              1.852              2.215
 Vibration    10          0.653              1.793              1.870
 Vibration    11          0.661              1.769              1.757
 Vibration    12          0.669              1.744              1.653
 Vibration    13          0.674              1.728              1.595
 Vibration    14          0.680              1.712              1.538
 Vibration    15          0.685              1.695              1.483
 Vibration    16          0.695              1.667              1.398
 Vibration    17          0.701              1.648              1.344
 Vibration    18          0.708              1.629              1.293
 Vibration    19          0.723              1.585              1.189
 Vibration    20          0.747              1.519              1.052
 Vibration    21          0.767              1.467              0.958
 Vibration    22          0.782              1.427              0.893
 Vibration    23          0.789              1.411              0.868
 Vibration    24          0.822              1.329              0.753
 Vibration    25          0.839              1.289              0.704
 Vibration    26          0.866              1.226              0.631
 Vibration    27          0.878              1.199              0.603
 Vibration    28          0.889              1.175              0.579
 Vibration    29          0.899              1.154              0.557
 Vibration    30          0.924              1.100              0.507
 Vibration    31          0.933              1.083              0.492
 Vibration    32          0.936              1.076              0.487
 Vibration    33          0.954              1.039              0.456

 Normal termination of Gaussian 09 at Tue Mar  1 17:34:05 2016.
