 Gaussian 09, Revision B.01,
 Gaussian 09:  EM64L-G09RevB.01 12-Aug-2010

 -------------------------------------------------
 # freq=raman b3lyp/6-31+g(2d,p) geom=connectivity
 -------------------------------------------------

 -----------------
 423 7048/7048.com
 -----------------
 Symbolic Z-matrix:
 Charge =  0 Multiplicity = 1

                         Standard orientation:
 ---------------------------------------------------------------------
 Center     Atomic      Atomic             Coordinates (Angstroms)
 Number     Number       Type             X           Y           Z
 ---------------------------------------------------------------------
      1          8           0       -5.052222   -0.339152    0.451701
      2          6           0       -3.763413   -0.047465   -0.106835
      3          6           0       -3.182949    1.271358    0.377129
      4          8           0       -4.028707    2.350733   -0.044484
      5          1           0       -4.975304    2.116026    0.175157
      6          6           0       -1.806133    1.583638   -0.185850
      7          8           0       -1.230785    2.789008    0.339603
      8          1           0       -0.314481    2.860873   -0.053234
      9          6           0       -3.043386   -2.546161   -0.131180
     10          8           0       -4.333194   -3.111313    0.142937
     11          1           0       -4.097797   -4.059161    0.360118
     12          6           0       -2.738747   -1.108694    0.258885
     13          8           0       -1.446807   -0.831364   -0.301909
     14          6           0       -0.875453    0.418237    0.111291
     15          8           0        0.295893    0.624939   -0.691157
     16          6           0        1.529701    0.236478   -0.070041
     17          6           0        1.930060   -1.166757   -0.496242
     18          8           0        0.923985   -2.151526   -0.219663
     19          1           0        0.098555   -1.616301   -0.398401
     20          6           0        3.224392   -1.574225    0.188823
     21          8           0        3.631390   -2.796107   -0.444929
     22          1           0        4.526331   -2.961242   -0.029405
     23          6           0        2.487049    2.624365    0.055164
     24          8           0        1.376267    3.336163   -0.509944
     25          1           0        1.625887    4.274304   -0.270449
     26          6           0        2.723767    1.157603   -0.265411
     27          8           0        3.856315    0.748284    0.514819
     28          6           0        4.316199   -0.526456    0.044232
     29          8           0        5.410639   -0.776227    0.939241
     30          1           0        6.197205   -0.988554    0.431471
     31          1           0        4.656507   -0.460623   -0.968071
     32          1           0        3.037768   -1.755004    1.226797
     33          1           0        2.101918   -1.155838   -1.552294
     34          1           0        1.341879    0.198593    0.982664
     35          1           0        3.005223    1.097421   -1.295974
     36          1           0        3.373021    3.152543   -0.229409
     37          1           0        2.397482    2.700463    1.118689
     38          1           0       -5.671561   -0.531733   -0.256063
     39          1           0       -2.318344   -3.165047    0.354817
     40          1           0       -2.881160   -2.627752   -1.185659
     41          1           0       -2.634182   -1.087016    1.323543
     42          1           0       -3.853583   -0.011184   -1.172411
     43          1           0       -3.131685    1.261435    1.445854
     44          1           0       -1.891455    1.685952   -1.247524
     45          1           0       -0.620925    0.392805    1.150266
 ---------------------------------------------------------------------

 SCF Done:  E(RB3LYP) =  -1297.99758384     A.U. after   13 cycles

 The electronic state is 1-A.
 Alpha  occ. eigenvalues --  -19.18929 -19.18846 -19.18611 -19.18550 -19.18444
 Alpha  occ. eigenvalues --  -19.17029 -19.16417 -19.16407 -19.14839 -19.13793
 Alpha  occ. eigenvalues --  -19.13742 -10.30929 -10.30545 -10.26471 -10.25592
 Alpha  occ. eigenvalues --  -10.25503 -10.25322 -10.25246 -10.24542 -10.24237
 Alpha  occ. eigenvalues --  -10.24095 -10.23946 -10.23855  -1.10411  -1.09758
 Alpha  occ. eigenvalues --   -1.05850  -1.05319  -1.04400  -1.03925  -1.03250
 Alpha  occ. eigenvalues --   -1.02971  -1.02052  -1.00801  -1.00081  -0.82261
 Alpha  occ. eigenvalues --   -0.80467  -0.79139  -0.78350  -0.71753  -0.69968
 Alpha  occ. eigenvalues --   -0.67432  -0.65232  -0.63086  -0.62538  -0.61475
 Alpha  occ. eigenvalues --   -0.60302  -0.56813  -0.55863  -0.54717  -0.54583
 Alpha  occ. eigenvalues --   -0.54068  -0.53298  -0.53028  -0.52109  -0.51638
 Alpha  occ. eigenvalues --   -0.50821  -0.49844  -0.49306  -0.48020  -0.46830
 Alpha  occ. eigenvalues --   -0.45575  -0.45389  -0.44228  -0.43770  -0.43370
 Alpha  occ. eigenvalues --   -0.42597  -0.41965  -0.41232  -0.40031  -0.39869
 Alpha  occ. eigenvalues --   -0.39316  -0.38682  -0.38129  -0.36573  -0.36279
 Alpha  occ. eigenvalues --   -0.35858  -0.35348  -0.34676  -0.34446  -0.34012
 Alpha  occ. eigenvalues --   -0.33218  -0.31494  -0.30997  -0.30652  -0.30031
 Alpha  occ. eigenvalues --   -0.29714  -0.28713  -0.28691  -0.27768  -0.26684
 Alpha  occ. eigenvalues --   -0.26436
 Alpha virt. eigenvalues --   -0.02254  -0.02063  -0.01763  -0.00257   0.00368
 Alpha virt. eigenvalues --    0.01068   0.02135   0.02359   0.03317   0.03476
 Alpha virt. eigenvalues --    0.03873   0.04396   0.04675   0.05340   0.05691

 Mulliken atomic charges:
              1
     1  O   -0.531555
     2  C   -0.110907
     3  C    0.318957
     4  O   -0.559777
     5  H    0.338883
     6  C   -0.140623
     7  O   -0.575007
     8  H    0.417140
     9  C   -0.329079
    10  O   -0.506589
    11  H    0.334436
    12  C    0.272055
    13  O   -0.270182
    14  C    0.337479
    15  O   -0.251913
    16  C    0.171237
    17  C    0.075598
    18  O   -0.561168
    19  H    0.405574
    20  C    0.176200
    21  O   -0.523808
    22  H    0.324071
    23  C   -0.337704
    24  O   -0.527644
    25  H    0.351009
    26  C   -0.065819
    27  O   -0.230889
    28  C    0.015667
    29  O   -0.529904
    30  H    0.333708
    31  H    0.135884
    32  H    0.137504
    33  H    0.121539
    34  H    0.108297
    35  H    0.115874
    36  H    0.146635
    37  H    0.158186
    38  H    0.344704
    39  H    0.147527
    40  H    0.148305
    41  H    0.107386
    42  H    0.120854
    43  H    0.122744
    44  H    0.134572
    45  H    0.130544
 Sum of Mulliken atomic charges =   0.00000

 Dipole moment (field-independent basis, Debye):
    X=              3.0124    Y=             -0.1087    Z=             -0.9129  Tot=              3.1495
 Quadrupole moment (field-independent basis, Debye-Ang):
   XX=           -115.1426   YY=           -138.1949   ZZ=           -141.0560
   XY=             13.8150   XZ=             -1.8564   YZ=             -3.0954

  Exact polarizability: 232.452  -0.638 196.268   0.714   0.346 143.391
 Approx polarizability: 274.119   0.662 256.026   1.364   0.037 239.666

 ******    6 imaginary frequencies (negative Signs) ******

                     1                      2                      3
                     A                      A                      A
 Frequencies --  -296.3657              -286.6746              -254.1250
 Red. masses --     1.6109                 1.7640                 1.1883
 Frc consts  --     0.0834                 0.0854                 0.0452
 IR Inten    --    17.7520                 2.2019                90.1405
 Raman Activ --     0.1861                 0.0570                 0.7131

                     4                      5                      6
                     A                      A                      A
 Frequencies --  -217.9886               -65.2255               -43.8215
 Red. masses --     1.2301                 6.5789                 6.2899
 Frc consts  --     0.0344                 0.0165                 0.0071
 IR Inten    --   104.1036                 0.4293                 1.1434
 Raman Activ --     0.7263                 0.0311                 0.0440

                     7                      8                      9
                     A                      A                      A
 Frequencies --    22.3560                50.2030                53.5213
 Red. masses --     6.0944                 6.8492                 6.4864
 Frc consts  --     0.0018                 0.0102                 0.0109
 IR Inten    --     0.1951                 0.2411                 2.2091
 Raman Activ --     0.0314                 0.0479                 0.0191

                    10                     11                     12
                     A                      A                      A
 Frequencies --    79.5302                89.9278               126.2871
 Red. masses --     6.0297                 6.7611                 5.4199
 Frc consts  --     0.0225                 0.0322                 0.0509
 IR Inten    --     1.5852                 0.6026                 0.8769
 Raman Activ --     0.2876                 0.0371                 0.0637

                    13                     14                     15
                     A                      A                      A
 Frequencies --   148.7563               180.4812               189.4064
 Red. masses --     6.3147                 6.9295                 6.0706
 Frc consts  --     0.0823                 0.1330                 0.1283
 IR Inten    --     3.5774                 0.1302                 2.0589
 Raman Activ --     0.4412                 0.2132                 0.6600

                    16                     17                     18
                     A                      A                      A
 Frequencies --   208.3458               225.5722               261.4318
 Red. masses --     6.7109                 6.3783                 4.5284
 Frc consts  --     0.1716                 0.1912                 0.1824
 IR Inten    --     0.1015                 2.5920                17.3418
 Raman Activ --     1.9385                 1.1576                 0.2967

                    19                     20                     21
                     A                      A                      A
 Frequencies --   275.1360               280.6861               301.9529
 Red. masses --     4.4582                 4.6253                 5.3932
 Frc consts  --     0.1988                 0.2147                 0.2897
 IR Inten    --     0.4432                 2.3043                 3.1315
 Raman Activ --     0.0758                 0.1724                 0.2293

                    22                     23                     24
                     A                      A                      A
 Frequencies --   313.1949               319.5886               324.8181
 Red. masses --     4.4414                 6.5283                 6.1162
 Frc consts  --     0.2567                 0.3929                 0.3802
 IR Inten    --     4.7954                 0.2468                 6.3164
 Raman Activ --     0.0509                 2.0029                 5.9304

                    25                     26                     27
                     A                      A                      A
 Frequencies --   340.2205               365.2928               383.8795
 Red. masses --     6.3808                 4.6305                 6.8202
 Frc consts  --     0.4352                 0.3641                 0.5922
 IR Inten    --     2.8666                 4.4542                 1.8361
 Raman Activ --     1.4066                 0.4210                 2.2445

                    28                     29                     30
                     A                      A                      A
 Frequencies --   408.9887               419.7347               433.3012
 Red. masses --     7.0140                 4.1608                 5.6211
 Frc consts  --     0.6913                 0.4319                 0.6218
 IR Inten    --     5.0172                13.1664                 5.1025
 Raman Activ --     4.6857                 2.9230                 2.6880

                    31                     32                     33
                     A                      A                      A
 Frequencies --   436.2952               480.9579               487.7525
 Red. masses --     4.6695                 4.4071                 5.0784
 Frc consts  --     0.5237                 0.6006                 0.7118
 IR Inten    --     5.9760                 5.9740                 5.5795
 Raman Activ --     2.0170                 3.9461                 0.1769

                    34                     35                     36
                     A                      A                      A
 Frequencies --   511.1270               532.7790               567.8625
 Red. masses --     3.3803                 3.2156                 4.1565
 Frc consts  --     0.5203                 0.5378                 0.7897
 IR Inten    --    10.1046                10.3685                 9.4396
 Raman Activ --     3.7684                 2.5117                 2.2199

                    37                     38                     39
                     A                      A                      A
 Frequencies --   587.8389               597.4913               620.7781
 Red. masses --     2.9731                 5.7200                 5.6858
 Frc consts  --     0.6053                 1.2031                 1.2910
 IR Inten    --    43.8640                12.1035                 9.8469
 Raman Activ --     0.3556                 0.5606                 0.5696

                    40                     41                     42
                     A                      A                      A
 Frequencies --   636.3878               677.3781               713.2473
 Red. masses --     3.9576                 5.7875                 1.0895
 Frc consts  --     0.9443                 1.5646                 0.3265
 IR Inten    --    31.1289                13.3275                88.8477
 Raman Activ --     1.0390                 1.3527                 1.3119

                    43                     44                     45
                     A                      A                      A
 Frequencies --   760.3447               761.0566               773.6267
 Red. masses --     1.0729                 1.1127                 1.0940
 Frc consts  --     0.3655                 0.3797                 0.3858
 IR Inten    --    59.2394               129.9831                99.9181
 Raman Activ --     1.2258                 2.0483                 1.5982

                    46                     47                     48
                     A                      A                      A
 Frequencies --   818.5951               848.7890               855.5002
 Red. masses --     1.1046                 1.7125                 1.1520
 Frc consts  --     0.4361                 0.7269                 0.4968
 IR Inten    --    77.4788                 5.3210                52.4766
 Raman Activ --     1.5518                 2.0360                 0.1910

                    49                     50                     51
                     A                      A                      A
 Frequencies --   876.0001               935.8211               959.0652
 Red. masses --     1.6025                 5.8505                 5.7406
 Frc consts  --     0.7245                 3.0188                 3.1110
 IR Inten    --    26.9140               121.3015                73.8396
 Raman Activ --     0.7209                 2.7158                 0.7460

                    52                     53                     54
                     A                      A                      A
 Frequencies --   978.3735               981.5392               988.5806
 Red. masses --     5.5941                 4.9279                 5.4225
 Frc consts  --     3.1549                 2.7973                 3.1223
 IR Inten    --   156.9064               152.9858                16.8020
 Raman Activ --     1.1133                 3.3076                 1.3855

                    55                     56                     57
                     A                      A                      A
 Frequencies --  1005.7947              1012.0401              1021.8899
 Red. masses --     7.1812                 7.0242                 5.7553
 Frc consts  --     4.2802                 4.2388                 3.5410
 IR Inten    --   395.1587                10.5462               133.9073
 Raman Activ --     1.1207                 1.4092                 1.8556

                    58                     59                     60
                     A                      A                      A
 Frequencies --  1036.9716              1052.5514              1068.2345
 Red. masses --     6.4804                 6.0911                 4.9072
 Frc consts  --     4.1057                 3.9759                 3.2993
 IR Inten    --   265.3529               142.1815                31.3147
 Raman Activ --     2.6238                 3.2550                 2.6002

                    61                     62                     63
                     A                      A                      A
 Frequencies --  1073.2309              1074.8380              1083.6020
 Red. masses --     4.5534                 4.0712                 3.1488
 Frc consts  --     3.0901                 2.7711                 2.1784
 IR Inten    --     5.7928                46.2392                21.6806
 Raman Activ --     4.5248                 3.5201                18.2040

                    64                     65                     66
                     A                      A                      A
 Frequencies --  1099.7381              1104.3069              1106.8433
 Red. masses --     2.6601                 2.4448                 2.9984
 Frc consts  --     1.8955                 1.7566                 2.1643
 IR Inten    --   104.0587                25.3269                21.4890
 Raman Activ --     6.7746                 2.6421                12.6184

                    67                     68                     69
                     A                      A                      A
 Frequencies --  1118.1433              1127.4135              1131.6922
 Red. masses --     2.9706                 2.6150                 3.6581
 Frc consts  --     2.1882                 1.9583                 2.7604
 IR Inten    --    12.6919                32.8291                36.3771
 Raman Activ --     5.2409                 8.3332                 3.4345

                    70                     71                     72
                     A                      A                      A
 Frequencies --  1136.5002              1152.9125              1161.5647
 Red. masses --     2.7512                 1.4583                 2.1347
 Frc consts  --     2.0937                 1.1421                 1.6970
 IR Inten    --    12.0190                 0.9317                15.2794
 Raman Activ --     7.9021                 3.5539                 2.5822

                    73                     74                     75
                     A                      A                      A
 Frequencies --  1169.2842              1192.9886              1201.6525
 Red. masses --     2.0520                 1.8727                 1.9816
 Frc consts  --     1.6530                 1.5703                 1.6858
 IR Inten    --    14.2864                 2.7237                 8.7034
 Raman Activ --     3.2266                 0.4852                 2.6656

                    76                     77                     78
                     A                      A                      A
 Frequencies --  1212.0189              1212.5697              1229.6882
 Red. masses --     1.3688                 1.3104                 1.2742
 Frc consts  --     1.1847                 1.1352                 1.1352
 IR Inten    --    12.6879                 6.1379                 8.8028
 Raman Activ --     2.0519                 1.0069                 0.6697

                    79                     80                     81
                     A                      A                      A
 Frequencies --  1237.9284              1246.8832              1255.2727
 Red. masses --     1.1984                 1.3033                 1.1717
 Frc consts  --     1.0820                 1.1938                 1.0878
 IR Inten    --    16.4018                 5.8619                 4.7257
 Raman Activ --     0.9692                 0.4002                 1.1541

                    82                     83                     84
                     A                      A                      A
 Frequencies --  1268.1642              1286.2858              1297.2920
 Red. masses --     1.2302                 1.4132                 1.2942
 Frc consts  --     1.1657                 1.3776                 1.2833
 IR Inten    --    13.8337                43.2512                 3.9399
 Raman Activ --     0.6678                 3.6011                 2.3041

                    85                     86                     87
                     A                      A                      A
 Frequencies --  1301.7927              1308.4444              1312.0051
 Red. masses --     1.3331                 1.2702                 1.2995
 Frc consts  --     1.3311                 1.2813                 1.3179
 IR Inten    --    50.2795                16.0491                 8.4502
 Raman Activ --     1.3720                 6.1458                 6.6494

                    88                     89                     90
                     A                      A                      A
 Frequencies --  1320.9448              1324.6093              1331.4042
 Red. masses --     1.2322                 1.3156                 1.2560
 Frc consts  --     1.2667                 1.3601                 1.3117
 IR Inten    --     2.0751                22.8610                 7.5913
 Raman Activ --     6.3804                 6.4045                 2.9274

                    91                     92                     93
                     A                      A                      A
 Frequencies --  1332.3028              1336.9627              1364.7180
 Red. masses --     1.2988                 1.3427                 1.3058
 Frc consts  --     1.3583                 1.4140                 1.4329
 IR Inten    --     9.0022                27.7504                12.1343
 Raman Activ --     9.1074                 2.2530                 4.6824

                    94                     95                     96
                     A                      A                      A
 Frequencies --  1370.4945              1371.7469              1378.7653
 Red. masses --     1.1922                 1.2537                 1.5149
 Frc consts  --     1.3193                 1.3899                 1.6967
 IR Inten    --    27.2234                29.6144                 3.0231
 Raman Activ --     2.0900                 4.0116                 8.7129

                    97                     98                     99
                     A                      A                      A
 Frequencies --  1383.9355              1406.2522              1413.1616
 Red. masses --     1.4422                 1.3532                 1.3182
 Frc consts  --     1.6274                 1.5767                 1.5510
 IR Inten    --     4.9022                17.7052                 1.1706
 Raman Activ --     4.0981                 1.9421                 8.6575

                   100                    101                    102
                     A                      A                      A
 Frequencies --  1434.6317              1469.4397              1475.1607
 Red. masses --     1.4057                 1.0781                 1.2733
 Frc consts  --     1.7046                 1.3716                 1.6325
 IR Inten    --    43.1414                 7.3539                30.5398
 Raman Activ --     2.0685                 4.9269                 0.3540

                   103                    104                    105
                     A                      A                      A
 Frequencies --  1475.9672              1486.5319              1502.3225
 Red. masses --     1.1199                 1.3615                 1.2892
 Frc consts  --     1.4375                 1.7726                 1.7144
 IR Inten    --    16.0955                54.2129                33.5050
 Raman Activ --     5.7388                 1.2052                 0.7160

                   106                    107                    108
                     A                      A                      A
 Frequencies --  1513.3600              1540.6746              3256.5878
 Red. masses --     1.3142                 1.2423                 1.0577
 Frc consts  --     1.7733                 1.7374                 6.6088
 IR Inten    --    23.7145                69.5183                20.0299
 Raman Activ --     0.8110                 1.2690                68.6584

                   109                    110                    111
                     A                      A                      A
 Frequencies --  3257.4772              3259.6550              3264.0114
 Red. masses --     1.0610                 1.0790                 1.0820
 Frc consts  --     6.6334                 6.7551                 6.7918
 IR Inten    --    75.5553                14.0061                40.9881
 Raman Activ --    78.3514                30.6633                21.5192

                   112                    113                    114
                     A                      A                      A
 Frequencies --  3267.2702              3277.1998              3279.5560
 Red. masses --     1.0817                 1.0814                 1.0832
 Frc consts  --     6.8036                 6.8431                 6.8640
 IR Inten    --    34.8195                19.5770                11.2692
 Raman Activ --    84.7687               181.6597               125.3919

                   115                    116                    117
                     A                      A                      A
 Frequencies --  3283.4002              3286.0689              3286.6036
 Red. masses --     1.0819                 1.0836                 1.0780
 Frc consts  --     6.8719                 6.8939                 6.8609
 IR Inten    --   156.6653                15.8561                75.4762
 Raman Activ --    40.1581               131.7986               107.7125

                   118                    119                    120
                     A                      A                      A
 Frequencies --  3291.4558              3300.5758              3302.0607
 Red. masses --     1.0821                 1.0786                 1.0853
 Frc consts  --     6.9068                 6.9226                 6.9720
 IR Inten    --    90.4702               585.2735               100.2650
 Raman Activ --    86.5914                23.2826                21.3967

                   121                    122                    123
                     A                      A                      A
 Frequencies --  3304.9035              3311.0996              3311.7737
 Red. masses --     1.0816                 1.1051                 1.1006
 Frc consts  --     6.9605                 7.1385                 7.1120
 IR Inten    --   328.5121                37.9346               151.3887
 Raman Activ --    53.3165                46.3532                36.5296

                   124                    125                    126
                     A                      A                      A
 Frequencies --  3358.5382              3367.0946              3369.8723
 Red. masses --     1.0649                 1.0684                 1.0656
 Frc consts  --     7.0775                 7.1365                 7.1300
 IR Inten    --    19.0772                35.2964                29.9286
 Raman Activ --   121.2974               116.1163               131.5340

                   127                    128                    129
                     A                      A                      A
 Frequencies --  3375.2083              3891.2682              3891.5385
 Red. masses --     1.0657                 1.0676                 1.0674
 Frc consts  --     7.1533                 9.5249                 9.5243
 IR Inten    --    59.4267               109.3174                49.3184
 Raman Activ --   121.0373                58.4830               143.5029

 - Thermochemistry -
 -------------------
 Temperature   298.150 Kelvin.  Pressure   1.00000 Atm.
 Atom     1 has atomic number  8 and mass  15.99491

 Molecular mass:   342.11621 amu.
 Principal axes and moments of inertia in atomic units:
                           1         2         3
     Eigenvalues --  4463.83290********************
           X            0.99997   0.00757  -0.00084
           Y           -0.00757   0.99997  -0.00007
           Z            0.00084   0.00007   1.00000
 This molecule is an asymmetric top.
 Rotational symmetry number  1.
 Warning -- assumption of classical behavior for rotation
           may cause significant error
 Rotational temperatures (Kelvin)      0.01940     0.00707     0.00534
 Rotational constants (GHZ):           0.40430     0.14727     0.11118
    6 imaginary frequencies ignored.
 Zero-point vibrational energy     978048.5 (Joules/Mol)
                                  233.75921 (Kcal/Mol)
 Warning -- explicit consideration of  33 degrees of freedom as
           vibrations may cause significant error
 Vibrational temperatures:     32.17    72.23    77.01   114.43   129.39
          (Kelvin)            181.70   214.03   259.67   272.51   299.76
                              324.55   376.14   395.86   403.84   434.44
                              450.62   459.82   467.34   489.50   525.57
                              552.32   588.44   603.90   623.42   627.73
                              691.99   701.77   735.40   766.55   817.03
                              845.77   859.66   893.16   915.62   974.59
                             1026.20  1093.97  1094.99  1113.07  1177.77
                             1221.22  1230.87  1260.37  1346.44  1379.88
                             1407.66  1412.21  1422.35  1447.11  1456.10
                             1470.27  1491.97  1514.38  1536.95  1544.14
                             1546.45  1559.06  1582.28  1588.85  1592.50
                             1608.76  1622.09  1628.25  1635.17  1658.78
                             1671.23  1682.34  1716.44  1728.91  1743.82
                             1744.62  1769.24  1781.10  1793.98  1806.06
                             1824.60  1850.68  1866.51  1872.99  1882.56
                             1887.68  1900.54  1905.81  1915.59  1916.88
                             1923.59  1963.52  1971.83  1973.64  1983.73
                             1991.17  2023.28  2033.22  2064.11  2114.19
                             2122.42  2123.58  2138.79  2161.50  2177.38
                             2216.68  4685.50  4686.78  4689.91  4696.18
                             4700.87  4715.15  4718.54  4724.07  4727.91
                             4728.68  4735.66  4748.79  4750.92  4755.01
                             4763.93  4764.90  4832.18  4844.49  4848.49
                             4856.17  5598.66  5599.05

 Zero-point correction=                           0.372519 (Hartree/Particle)
 Thermal correction to Energy=                    0.391659
 Thermal correction to Enthalpy=                  0.392603
 Thermal correction to Gibbs Free Energy=         0.324836
 Sum of electronic and zero-point Energies=          -1297.625065
 Sum of electronic and thermal Energies=             -1297.605925
 Sum of electronic and thermal Enthalpies=           -1297.604981
 Sum of electronic and thermal Free Energies=        -1297.672748

                     E (Thermal)             CV                S
                      KCal/Mol        Cal/Mol-Kelvin    Cal/Mol-Kelvin
 Total                  245.769             77.363            142.628
 Electronic               0.000              0.000              0.000
 Translational            0.889              2.981             43.384
 Rotational               0.889              2.981             35.139
 Vibrational            243.992             71.401             64.105
 Vibration     1          0.593              1.985              6.413
 Vibration     2          0.595              1.978              4.809
 Vibration     3          0.596              1.976              4.683
 Vibration     4          0.600              1.963              3.902
 Vibration     5          0.602              1.956              3.662
 Vibration     6          0.611              1.927              3.002
 Vibration     7          0.618              1.904              2.688
 Vibration     8          0.629              1.866              2.323
 Vibration     9          0.633              1.854              2.234
 Vibration    10          0.642              1.828              2.058
 Vibration    11          0.650              1.802              1.914
 Vibration    12          0.669              1.743              1.652
 Vibration    13          0.677              1.719              1.564
 Vibration    14          0.680              1.709              1.529
 Vibration    15          0.694              1.670              1.406
 Vibration    16          0.701              1.649              1.345
 Vibration    17          0.706              1.636              1.312
 Vibration    18          0.709              1.626              1.286
 Vibration    19          0.720              1.595              1.211
 Vibration    20          0.739              1.544              1.099
 Vibration    21          0.753              1.505              1.024
 Vibration    22          0.773              1.451              0.930
 Vibration    23          0.782              1.427              0.893
 Vibration    24          0.794              1.398              0.848
 Vibration    25          0.797              1.391              0.838
 Vibration    26          0.837              1.292              0.707
 Vibration    27          0.844              1.277              0.689
 Vibration    28          0.866              1.225              0.631
 Vibration    29          0.888              1.177              0.581
 Vibration    30          0.924              1.101              0.508
 Vibration    31          0.945              1.058              0.471
 Vibration    32          0.955              1.037              0.454
 Vibration    33          0.981              0.988              0.415

 Normal termination of Gaussian 09 at Sun Mar 27 06:22:15 2016.
