 Gaussian 09, Revision B.01,
 Gaussian 09:  EM64L-G09RevB.01 12-Aug-2010

 -------------------------------------------------
 # freq=raman b3lyp/6-31+g(2d,p) geom=connectivity
 -------------------------------------------------

 -----------------
 493 7000/7000.com
 -----------------
 Symbolic Z-matrix:
 Charge =  0 Multiplicity = 1

                         Standard orientation:
 ---------------------------------------------------------------------
 Center     Atomic      Atomic             Coordinates (Angstroms)
 Number     Number       Type             X           Y           Z
 ---------------------------------------------------------------------
      1          8           0       -5.055710   -0.439890    0.407446
      2          6           0       -3.797205   -0.176905   -0.229976
      3          6           0       -3.330257    1.231118    0.102663
      4          8           0       -4.177944    2.049691   -0.717222
      5          1           0       -5.108902    1.687235   -0.764288
      6          6           0       -1.875049    1.516258   -0.229991
      7          8           0       -1.521561    2.695325    0.508531
      8          1           0       -0.568067    2.849648    0.250247
      9          6           0       -2.758263   -2.554698   -0.024029
     10          8           0       -3.602709   -3.375348    0.796005
     11          1           0       -3.271770   -4.316124    0.724587
     12          6           0       -2.645423   -1.059655    0.223063
     13          8           0       -1.397453   -0.799079   -0.434464
     14          6           0       -0.912762    0.409339    0.168614
     15          8           0        0.320529    0.541386   -0.553458
     16          6           0        1.488687    0.165972    0.191606
     17          6           0        1.904221   -1.183733   -0.369748
     18          8           0        0.895104   -2.200304   -0.278405
     19          1           0        0.077416   -1.758493   -0.646064
     20          6           0        3.332329   -1.441292    0.082706
     21          8           0        3.983835   -2.545446   -0.559815
     22          1           0        4.902866   -2.564685   -0.165494
     23          6           0        2.211657    2.620848    0.357770
     24          8           0        1.042777    3.330835   -0.074308
     25          1           0        1.225850    4.304285    0.057879
     26          6           0        2.530392    1.221079   -0.143772
     27          8           0        3.780270    0.916255    0.489969
     28          6           0        4.269497   -0.268228   -0.156666
     29          8           0        5.506638   -0.515327    0.529606
     30          1           0        6.187049   -0.741494   -0.108743
     31          1           0        4.431211   -0.102895   -1.201373
     32          1           0        3.311317   -1.637688    1.134317
     33          1           0        1.995100   -1.016395   -1.422667
     34          1           0        1.291263    0.118610    1.242168
     35          1           0        2.671389    1.251001   -1.204019
     36          1           0        3.053326    3.234982    0.114185
     37          1           0        2.160005    2.561936    1.424897
     38          1           0       -5.707605   -0.675891   -0.256585
     39          1           0       -1.769530   -2.958077    0.043742
     40          1           0       -3.086538   -2.680446   -1.034634
     41          1           0       -2.507473   -0.906021    1.272952
     42          1           0       -3.914281   -0.267844   -1.289657
     43          1           0       -3.514352    1.439833    1.135837
     44          1           0       -1.780482    1.710419   -1.277970
     45          1           0       -0.774936    0.322696    1.226157
 ---------------------------------------------------------------------

 SCF Done:  E(RB3LYP) =  -1297.97227795     A.U. after   13 cycles

 The electronic state is 1-A.
 Alpha  occ. eigenvalues --  -19.19091 -19.18771 -19.18589 -19.18322 -19.18052
 Alpha  occ. eigenvalues --  -19.17472 -19.16274 -19.15413 -19.14695 -19.14437
 Alpha  occ. eigenvalues --  -19.13375 -10.31086 -10.30483 -10.26382 -10.25738
 Alpha  occ. eigenvalues --  -10.25536 -10.25076 -10.25033 -10.25001 -10.24501
 Alpha  occ. eigenvalues --  -10.24031 -10.23932 -10.23162  -1.11009  -1.10000
 Alpha  occ. eigenvalues --   -1.05949  -1.05529  -1.04556  -1.04184  -1.02869
 Alpha  occ. eigenvalues --   -1.02107  -1.01787  -1.01132  -1.00309  -0.82436
 Alpha  occ. eigenvalues --   -0.80065  -0.79582  -0.77721  -0.71644  -0.69682
 Alpha  occ. eigenvalues --   -0.67726  -0.65590  -0.63765  -0.62243  -0.61580
 Alpha  occ. eigenvalues --   -0.60668  -0.56893  -0.55952  -0.55378  -0.54600
 Alpha  occ. eigenvalues --   -0.53966  -0.53507  -0.52968  -0.52032  -0.51061
 Alpha  occ. eigenvalues --   -0.51002  -0.50204  -0.49193  -0.48812  -0.47013
 Alpha  occ. eigenvalues --   -0.45924  -0.45307  -0.44680  -0.43618  -0.43406
 Alpha  occ. eigenvalues --   -0.42368  -0.41849  -0.41172  -0.40679  -0.40371
 Alpha  occ. eigenvalues --   -0.39441  -0.38466  -0.38084  -0.36757  -0.35801
 Alpha  occ. eigenvalues --   -0.35576  -0.35272  -0.34586  -0.34413  -0.33906
 Alpha  occ. eigenvalues --   -0.33401  -0.31665  -0.31243  -0.30759  -0.30207
 Alpha  occ. eigenvalues --   -0.29831  -0.28185  -0.28058  -0.27559  -0.26877
 Alpha  occ. eigenvalues --   -0.25972
 Alpha virt. eigenvalues --   -0.02255  -0.02198  -0.02061  -0.00229   0.00206
 Alpha virt. eigenvalues --    0.01033   0.02025   0.02476   0.03130   0.03544
 Alpha virt. eigenvalues --    0.03847   0.04256   0.04695   0.05291   0.05590

 Mulliken atomic charges:
              1
     1  O   -0.517097
     2  C   -0.279546
     3  C    0.283423
     4  O   -0.563373
     5  H    0.327638
     6  C   -0.046473
     7  O   -0.582846
     8  H    0.420061
     9  C   -0.151666
    10  O   -0.527967
    11  H    0.332521
    12  C    0.340905
    13  O   -0.201532
    14  C   -0.223625
    15  O   -0.224071
    16  C    0.497853
    17  C   -0.066436
    18  O   -0.552706
    19  H    0.377224
    20  C    0.219835
    21  O   -0.540826
    22  H    0.331647
    23  C   -0.276521
    24  O   -0.565350
    25  H    0.361315
    26  C    0.004810
    27  O   -0.251615
    28  C    0.085578
    29  O   -0.553795
    30  H    0.338803
    31  H    0.139647
    32  H    0.131031
    33  H    0.114162
    34  H    0.112971
    35  H    0.122480
    36  H    0.148226
    37  H    0.156891
    38  H    0.334056
    39  H    0.147329
    40  H    0.132723
    41  H    0.110854
    42  H    0.127206
    43  H    0.141447
    44  H    0.145140
    45  H    0.139668
 Sum of Mulliken atomic charges =   0.00000

 Dipole moment (field-independent basis, Debye):
    X=              2.8085    Y=              0.7845    Z=             -1.9057  Tot=              3.4835
 Quadrupole moment (field-independent basis, Debye-Ang):
   XX=           -119.2753   YY=           -138.7303   ZZ=           -140.7239
   XY=             14.4840   XZ=              3.5206   YZ=              0.8524

  Exact polarizability: 232.390  -1.646 193.591   1.349   1.173 143.837
 Approx polarizability: 273.933  -0.964 252.632   1.805   2.963 241.621

 ******    7 imaginary frequencies (negative Signs) ******

                     1                      2                      3
                     A                      A                      A
 Frequencies --  -301.6842              -273.7993              -203.9050
 Red. masses --     1.7280                 1.7475                 1.2619
 Frc consts  --     0.0927                 0.0772                 0.0309
 IR Inten    --     5.2786                 2.0018                96.1250
 Raman Activ --     0.2522                 0.0621                 0.7112

                     4                      5                      6
                     A                      A                      A
 Frequencies --  -166.8944               -82.0224               -43.9259
 Red. masses --     1.3162                 6.5213                 5.7343
 Frc consts  --     0.0216                 0.0258                 0.0065
 IR Inten    --   121.3591                 2.9491                 3.8936
 Raman Activ --     0.7319                 0.0716                 0.0839

                     7                      8                      9
                     A                      A                      A
 Frequencies --   -20.3218                36.0293                49.1670
 Red. masses --     6.1836                 6.9654                 6.2845
 Frc consts  --     0.0015                 0.0053                 0.0090
 IR Inten    --     1.1781                 0.3052                 0.0537
 Raman Activ --     0.0206                 0.0413                 0.0325

                    10                     11                     12
                     A                      A                      A
 Frequencies --    78.1894                97.4583               139.8800
 Red. masses --     6.5635                 6.8953                 5.2676
 Frc consts  --     0.0236                 0.0386                 0.0607
 IR Inten    --     2.5618                 0.2363                 1.1270
 Raman Activ --     0.0745                 0.3071                 0.0139

                    13                     14                     15
                     A                      A                      A
 Frequencies --   162.7059               175.2767               195.5086
 Red. masses --     6.4759                 7.0119                 5.3925
 Frc consts  --     0.1010                 0.1269                 0.1214
 IR Inten    --     4.0649                 0.0264                 4.3251
 Raman Activ --     0.4918                 0.4206                 0.6352

                    16                     17                     18
                     A                      A                      A
 Frequencies --   212.5073               238.6311               281.5364
 Red. masses --     7.3534                 6.0669                 5.1928
 Frc consts  --     0.1957                 0.2035                 0.2425
 IR Inten    --     0.0293                 1.8357                 0.6238
 Raman Activ --     2.7652                 0.2437                 0.2097

                    19                     20                     21
                     A                      A                      A
 Frequencies --   283.2733               306.3296               308.6138
 Red. masses --     4.9451                 4.3983                 4.3103
 Frc consts  --     0.2338                 0.2432                 0.2419
 IR Inten    --    18.2501                 3.2444                 1.1942
 Raman Activ --     0.8032                 0.4661                 0.3763

                    22                     23                     24
                     A                      A                      A
 Frequencies --   320.1782               334.4577               340.7498
 Red. masses --     6.0975                 4.5286                 6.1849
 Frc consts  --     0.3683                 0.2985                 0.4231
 IR Inten    --     1.6198                 1.0211                 3.5796
 Raman Activ --     0.5512                 2.6238                 1.8199

                    25                     26                     27
                     A                      A                      A
 Frequencies --   354.6531               369.7187               387.9691
 Red. masses --     6.3763                 5.1912                 6.3242
 Frc consts  --     0.4725                 0.4181                 0.5609
 IR Inten    --    18.2385                 1.0143                 1.3587
 Raman Activ --     1.4608                 1.9341                 1.2955

                    28                     29                     30
                     A                      A                      A
 Frequencies --   414.3999               427.8770               439.6870
 Red. masses --     5.8526                 4.4981                 4.6267
 Frc consts  --     0.5922                 0.4852                 0.5270
 IR Inten    --     9.4519                 7.2376                 1.3623
 Raman Activ --     2.1294                 6.3579                 6.5146

                    31                     32                     33
                     A                      A                      A
 Frequencies --   458.7300               489.3466               503.3889
 Red. masses --     5.1470                 5.0382                 3.4132
 Frc consts  --     0.6381                 0.7108                 0.5096
 IR Inten    --     9.1382                 2.9681                23.3940
 Raman Activ --     1.9777                 0.6184                 1.4320

                    34                     35                     36
                     A                      A                      A
 Frequencies --   511.2570               557.5648               577.1375
 Red. masses --     3.7573                 3.3595                 3.8163
 Frc consts  --     0.5786                 0.6153                 0.7489
 IR Inten    --     5.9035                17.0000                 4.1762
 Raman Activ --     2.1396                 3.6588                 1.3934

                    37                     38                     39
                     A                      A                      A
 Frequencies --   590.0265               616.3223               634.2325
 Red. masses --     2.8869                 5.7190                 5.5254
 Frc consts  --     0.5921                 1.2799                 1.3095
 IR Inten    --    50.3011                 2.1755                58.5433
 Raman Activ --     0.4687                 0.6198                 1.0312

                    40                     41                     42
                     A                      A                      A
 Frequencies --   645.3630               699.9689               707.1232
 Red. masses --     4.7881                 1.1005                 1.6179
 Frc consts  --     1.1750                 0.3177                 0.4767
 IR Inten    --     3.7845               101.4532                41.3564
 Raman Activ --     0.3378                 1.2799                 2.7555

                    43                     44                     45
                     A                      A                      A
 Frequencies --   715.3508               715.5050               776.3591
 Red. masses --     1.2055                 1.6051                 1.0902
 Frc consts  --     0.3635                 0.4841                 0.3872
 IR Inten    --    43.0026               114.9066               168.6251
 Raman Activ --     1.7408                 0.6604                 4.4899

                    46                     47                     48
                     A                      A                      A
 Frequencies --   799.6174               852.3744               854.1930
 Red. masses --     1.0764                 1.7508                 1.7332
 Frc consts  --     0.4055                 0.7494                 0.7451
 IR Inten    --    83.4174                 8.7280                 0.5225
 Raman Activ --     1.3135                 0.9960                 0.4609

                    49                     50                     51
                     A                      A                      A
 Frequencies --   910.0847               933.9475               957.7338
 Red. masses --     1.2045                 3.9174                 6.1961
 Frc consts  --     0.5878                 2.0133                 3.3486
 IR Inten    --    53.9315               118.7839                42.0828
 Raman Activ --     0.8031                 3.1865                 1.3589

                    52                     53                     54
                     A                      A                      A
 Frequencies --   965.9522               993.6120               998.9939
 Red. masses --     3.9144                 4.5156                 7.7343
 Frc consts  --     2.1519                 2.6267                 4.5477
 IR Inten    --    33.8894                20.4393               341.0893
 Raman Activ --     2.8292                 2.7345                 1.4761

                    55                     56                     57
                     A                      A                      A
 Frequencies --  1010.4384              1012.6827              1022.4714
 Red. masses --     7.6953                 5.2973                 6.0429
 Frc consts  --     4.6291                 3.2008                 3.7222
 IR Inten    --   148.8309               166.0375               106.2645
 Raman Activ --     3.5183                 2.9088                 2.7848

                    58                     59                     60
                     A                      A                      A
 Frequencies --  1039.2791              1056.7774              1066.4941
 Red. masses --     5.5126                 6.1908                 4.0948
 Frc consts  --     3.5081                 4.0735                 2.7441
 IR Inten    --   142.6462               159.3212                30.4229
 Raman Activ --     3.1939                 2.4339                 7.3503

                    61                     62                     63
                     A                      A                      A
 Frequencies --  1072.9839              1076.1960              1079.5721
 Red. masses --     4.5205                 3.5428                 3.9157
 Frc consts  --     3.0664                 2.4176                 2.6889
 IR Inten    --    20.3963                72.5652                 7.1019
 Raman Activ --    12.1638                 0.4922                13.7802

                    64                     65                     66
                     A                      A                      A
 Frequencies --  1091.3643              1103.2747              1109.7061
 Red. masses --     4.1686                 2.9722                 2.6395
 Frc consts  --     2.9253                 2.1315                 1.9151
 IR Inten    --    92.5281                16.7699                11.8223
 Raman Activ --    20.0199                 2.9958                 3.1547

                    67                     68                     69
                     A                      A                      A
 Frequencies --  1122.4501              1126.5091              1131.8332
 Red. masses --     2.2395                 2.4083                 2.5593
 Frc consts  --     1.6624                 1.8007                 1.9317
 IR Inten    --    45.7797                20.9174                23.6518
 Raman Activ --     7.0853                 1.6026                 5.0974

                    70                     71                     72
                     A                      A                      A
 Frequencies --  1135.9431              1152.4377              1154.3468
 Red. masses --     2.4405                 1.7317                 1.9592
 Frc consts  --     1.8554                 1.3551                 1.5381
 IR Inten    --    47.0186                17.5170                68.0587
 Raman Activ --     4.1927                 3.6187                 1.7335

                    73                     74                     75
                     A                      A                      A
 Frequencies --  1166.0205              1173.4460              1178.8513
 Red. masses --     2.2647                 1.8076                 1.5154
 Frc consts  --     1.8142                 1.4665                 1.2408
 IR Inten    --    10.5482                19.8686                 3.7219
 Raman Activ --     2.9455                 1.9176                 0.5951

                    76                     77                     78
                     A                      A                      A
 Frequencies --  1212.4670              1218.7983              1222.2947
 Red. masses --     1.2838                 1.5321                 1.2396
 Frc consts  --     1.1120                 1.3409                 1.0911
 IR Inten    --    12.3436                13.2696                11.4746
 Raman Activ --     0.8323                 3.2351                 1.6022

                    79                     80                     81
                     A                      A                      A
 Frequencies --  1233.6568              1238.3681              1249.8718
 Red. masses --     1.2974                 1.2754                 1.2727
 Frc consts  --     1.1633                 1.1524                 1.1714
 IR Inten    --    10.5255                15.2251                23.5706
 Raman Activ --     1.8135                 1.1946                 1.0238

                    82                     83                     84
                     A                      A                      A
 Frequencies --  1264.5654              1284.0167              1291.8366
 Red. masses --     1.3540                 1.3324                 1.3336
 Frc consts  --     1.2757                 1.2943                 1.3113
 IR Inten    --     7.4755                15.4796                32.7092
 Raman Activ --     0.9329                 3.4240                 0.6127

                    85                     86                     87
                     A                      A                      A
 Frequencies --  1300.5065              1302.2769              1304.4712
 Red. masses --     1.2717                 1.3286                 1.3534
 Frc consts  --     1.2672                 1.3276                 1.3569
 IR Inten    --    38.8248                 5.0294                20.5056
 Raman Activ --     3.7774                 4.5911                 2.6644

                    88                     89                     90
                     A                      A                      A
 Frequencies --  1316.2470              1320.0574              1332.0642
 Red. masses --     1.3106                 1.3629                 1.2990
 Frc consts  --     1.3378                 1.3992                 1.3580
 IR Inten    --     1.8059                20.1063                21.3899
 Raman Activ --    11.1191                 4.7461                 3.5333

                    91                     92                     93
                     A                      A                      A
 Frequencies --  1335.6908              1352.5499              1354.5591
 Red. masses --     1.2550                 1.1535                 1.2443
 Frc consts  --     1.3192                 1.2433                 1.3452
 IR Inten    --    17.0369                46.5142                18.3941
 Raman Activ --    11.4554                 5.1456                 5.0283

                    94                     95                     96
                     A                      A                      A
 Frequencies --  1365.1734              1366.8278              1371.8081
 Red. masses --     1.3696                 1.4191                 1.3692
 Frc consts  --     1.5039                 1.5620                 1.5181
 IR Inten    --    35.7702                 6.9276                10.2768
 Raman Activ --     5.7603                 3.5276                 3.0406

                    97                     98                     99
                     A                      A                      A
 Frequencies --  1388.2452              1395.3849              1408.1290
 Red. masses --     1.5602                 1.1007                 1.4158
 Frc consts  --     1.7716                 1.2627                 1.6540
 IR Inten    --    10.8494                18.6769                18.5104
 Raman Activ --     5.4544                 2.3698                 3.7557

                   100                    101                    102
                     A                      A                      A
 Frequencies --  1425.4879              1458.6912              1471.9111
 Red. masses --     1.5116                 1.3754                 1.1193
 Frc consts  --     1.8098                 1.7243                 1.4288
 IR Inten    --    43.9069                38.2682                12.5188
 Raman Activ --     1.3970                 1.5958                 5.1115

                   103                    104                    105
                     A                      A                      A
 Frequencies --  1473.4453              1477.8477              1478.7833
 Red. masses --     1.0891                 1.3328                 1.3172
 Frc consts  --     1.3931                 1.7150                 1.6972
 IR Inten    --     2.8779                23.7459                 4.0000
 Raman Activ --     3.1392                 1.3790                 0.7011

                   106                    107                    108
                     A                      A                      A
 Frequencies --  1528.6724              1540.8143              3251.8823
 Red. masses --     1.2654                 1.2167                 1.0671
 Frc consts  --     1.7423                 1.7018                 6.6486
 IR Inten    --    35.5183                49.0731               375.2780
 Raman Activ --     3.3226                 0.5042               114.4116

                   109                    110                    111
                     A                      A                      A
 Frequencies --  3252.2618              3255.3010              3265.6137
 Red. masses --     1.0597                 1.0779                 1.0616
 Frc consts  --     6.6038                 6.7297                 6.6704
 IR Inten    --    53.8190               216.2674               121.1942
 Raman Activ --    71.1407                56.7880               259.3182

                   112                    113                    114
                     A                      A                      A
 Frequencies --  3271.1647              3277.1414              3281.3396
 Red. masses --     1.0819                 1.0839                 1.0835
 Frc consts  --     6.8212                 6.8582                 6.8737
 IR Inten    --    25.7814                 6.0347                 0.8279
 Raman Activ --    46.2321                22.4925               103.7519

                   115                    116                    117
                     A                      A                      A
 Frequencies --  3285.9948              3291.5730              3294.4142
 Red. masses --     1.0854                 1.0854                 1.0857
 Frc consts  --     6.9049                 6.9286                 6.9424
 IR Inten    --    11.6507                38.6959                 0.2988
 Raman Activ --    73.6893                15.2130                94.9691

                   118                    119                    120
                     A                      A                      A
 Frequencies --  3296.8150              3301.1992              3303.9660
 Red. masses --     1.0853                 1.0824                 1.0793
 Frc consts  --     6.9501                 6.9496                 6.9419
 IR Inten    --    67.0692               205.2516               337.5107
 Raman Activ --    14.8005                16.9298                64.3430

                   121                    122                    123
                     A                      A                      A
 Frequencies --  3306.4776              3310.5518              3315.5862
 Red. masses --     1.1006                 1.0871                 1.1035
 Frc consts  --     7.0897                 7.0199                 7.1476
 IR Inten    --    14.8434               190.4631                59.8140
 Raman Activ --    24.7424                74.6629                36.9636

                   124                    125                    126
                     A                      A                      A
 Frequencies --  3357.6866              3357.8910              3370.8876
 Red. masses --     1.0662                 1.0646                 1.0677
 Frc consts  --     7.0824                 7.0724                 7.1479
 IR Inten    --    31.3195                30.6365                44.4342
 Raman Activ --   100.7775               122.6180               134.5492

                   127                    128                    129
                     A                      A                      A
 Frequencies --  3381.9522              3887.8941              3891.2332
 Red. masses --     1.0671                 1.0678                 1.0673
 Frc consts  --     7.1909                 9.5097                 9.5219
 IR Inten    --    65.2549                76.1396                71.3665
 Raman Activ --   148.2096                92.3770               109.3893

 - Thermochemistry -
 -------------------
 Temperature   298.150 Kelvin.  Pressure   1.00000 Atm.
 Atom     1 has atomic number  8 and mass  15.99491

 Molecular mass:   342.11621 amu.
 Principal axes and moments of inertia in atomic units:
                           1         2         3
     Eigenvalues --  4362.23847********************
           X            0.99998   0.00699   0.00035
           Y           -0.00700   0.99997   0.00223
           Z           -0.00034  -0.00224   1.00000
 This molecule is an asymmetric top.
 Rotational symmetry number  1.
 Warning -- assumption of classical behavior for rotation
           may cause significant error
 Rotational temperatures (Kelvin)      0.01986     0.00719     0.00546
 Rotational constants (GHZ):           0.41372     0.14986     0.11371
    7 imaginary frequencies ignored.
 Zero-point vibrational energy     978523.8 (Joules/Mol)
                                  233.87280 (Kcal/Mol)
 Warning -- explicit consideration of  31 degrees of freedom as
           vibrations may cause significant error
 Vibrational temperatures:     51.84    70.74   112.50   140.22   201.26
          (Kelvin)            234.10   252.18   281.29   305.75   343.34
                              405.07   407.57   440.74   444.03   460.66
                              481.21   490.26   510.27   531.94   558.20
                              596.23   615.62   632.61   660.01   704.06
                              724.26   735.58   802.21   830.37   848.92
                              886.75   912.52   928.53  1007.10  1017.39
                             1029.23  1029.45  1117.01  1150.47  1226.38
                             1228.99  1309.41  1343.74  1377.96  1389.79
                             1429.58  1437.33  1453.79  1457.02  1471.11
                             1495.29  1520.47  1534.45  1543.78  1548.40
                             1553.26  1570.23  1587.36  1596.62  1614.95
                             1620.79  1628.45  1634.37  1658.10  1660.85
                             1677.64  1688.33  1696.10  1744.47  1753.58
                             1758.61  1774.95  1781.73  1798.28  1819.43
                             1847.41  1858.66  1871.14  1873.68  1876.84
                             1893.78  1899.27  1916.54  1921.76  1946.02
                             1948.91  1964.18  1966.56  1973.72  1997.37
                             2007.65  2025.98  2050.96  2098.73  2117.75
                             2119.96  2126.29  2127.64  2199.42  2216.89
                             4678.73  4679.27  4683.65  4698.48  4706.47
                             4715.07  4721.11  4727.81  4735.83  4739.92
                             4743.38  4749.68  4753.66  4757.28  4763.14
                             4770.38  4830.96  4831.25  4849.95  4865.87
                             5593.81  5598.61

 Zero-point correction=                           0.372700 (Hartree/Particle)
 Thermal correction to Energy=                    0.390679
 Thermal correction to Enthalpy=                  0.391623
 Thermal correction to Gibbs Free Energy=         0.327271
 Sum of electronic and zero-point Energies=          -1297.599578
 Sum of electronic and thermal Energies=             -1297.581599
 Sum of electronic and thermal Enthalpies=           -1297.580655
 Sum of electronic and thermal Free Energies=        -1297.645007

                     E (Thermal)             CV                S
                      KCal/Mol        Cal/Mol-Kelvin    Cal/Mol-Kelvin
 Total                  245.155             74.957            135.441
 Electronic               0.000              0.000              0.000
 Translational            0.889              2.981             43.384
 Rotational               0.889              2.981             35.077
 Vibrational            243.377             68.995             56.980
 Vibration     1          0.594              1.982              5.466
 Vibration     2          0.595              1.978              4.851
 Vibration     3          0.599              1.964              3.936
 Vibration     4          0.603              1.951              3.505
 Vibration     5          0.615              1.913              2.806
 Vibration     6          0.623              1.888              2.518
 Vibration     7          0.627              1.873              2.378
 Vibration     8          0.636              1.846              2.175
 Vibration     9          0.644              1.822              2.022
 Vibration    10          0.657              1.781              1.813
 Vibration    11          0.681              1.708              1.524
 Vibration    12          0.682              1.705              1.514
 Vibration    13          0.697              1.662              1.382
 Vibration    14          0.698              1.657              1.370
 Vibration    15          0.706              1.635              1.309
 Vibration    16          0.716              1.607              1.238
 Vibration    17          0.720              1.594              1.209
 Vibration    18          0.731              1.566              1.145
 Vibration    19          0.742              1.534              1.081
 Vibration    20          0.756              1.496              1.008
 Vibration    21          0.778              1.439              0.911
 Vibration    22          0.789              1.410              0.866
 Vibration    23          0.800              1.384              0.828
 Vibration    24          0.817              1.342              0.770
 Vibration    25          0.845              1.274              0.685
 Vibration    26          0.859              1.242              0.650
 Vibration    27          0.866              1.225              0.631
 Vibration    28          0.913              1.123              0.529
 Vibration    29          0.934              1.081              0.491
 Vibration    30          0.947              1.053              0.467
 Vibration    31          0.976              0.997              0.422

 Normal termination of Gaussian 09 at Fri Apr  1 09:00:26 2016.
