 Gaussian 09, Revision B.01,
 Gaussian 09:  EM64L-G09RevB.01 12-Aug-2010

 -------------------------------------------------
 # freq=raman b3lyp/6-31+g(2d,p) geom=connectivity
 -------------------------------------------------

 -----------------
 450 9892/9892.com
 -----------------
 Symbolic Z-matrix:
 Charge =  0 Multiplicity = 1

                         Standard orientation:
 ---------------------------------------------------------------------
 Center     Atomic      Atomic             Coordinates (Angstroms)
 Number     Number       Type             X           Y           Z
 ---------------------------------------------------------------------
      1          8           0       -5.094101    0.363310   -0.854550
      2          6           0       -3.961352   -0.008068   -0.055846
      3          6           0       -3.279883   -1.327578   -0.381858
      4          8           0       -4.303481   -2.321446   -0.229139
      5          1           0       -5.207733   -2.211539   -0.642730
      6          6           0       -2.001839   -1.656832    0.372092
      7          8           0       -1.291720   -2.887113    0.169000
      8          1           0       -1.877057   -3.686920    0.034009
      9          6           0       -3.271093    2.273825    0.702993
     10          8           0       -2.586661    3.503798    0.423816
     11          1           0       -3.024189    4.317947    0.805016
     12          6           0       -2.885802    1.063115   -0.130376
     13          8           0       -1.563444    0.711250    0.301594
     14          6           0       -1.065386   -0.566335   -0.120874
     15          8           0        0.207492   -0.656829    0.535451
     16          6           0        1.394426   -0.161611   -0.101137
     17          6           0        1.756385    1.274948    0.242519
     18          8           0        0.724232    2.241021   -0.000817
     19          1           0       -0.081584    1.650766   -0.040344
     20          6           0        3.074204    1.514853   -0.475264
     21          8           0        3.202167    2.944102   -0.433624
     22          1           0        2.869786    3.371535   -1.273781
     23          6           0        2.369509   -2.523684   -0.271142
     24          8           0        3.355861   -3.343123    0.373104
     25          1           0        3.036584   -3.816741    1.193771
     26          6           0        2.528735   -1.107657    0.257641
     27          8           0        3.804060   -0.704251   -0.261701
     28          6           0        4.116985    0.623805    0.180118
     29          8           0        5.471096    0.756847   -0.277632
     30          1           0        6.060784    0.308315    0.332849
     31          1           0       -5.896592    0.030519   -0.446066
     32          1           0       -3.103168    2.031066    1.731472
     33          1           0       -4.319027    2.443916    0.569561
     34          1           0       -2.818200    1.378597   -1.150573
     35          1           0       -4.292848   -0.062302    0.960062
     36          1           0       -3.024541   -1.297558   -1.420511
     37          1           0       -2.172554   -1.523545    1.419943
     38          1           0       -0.953898   -0.603159   -1.184412
     39          1           0        4.064350    0.690603    1.246733
     40          1           0        2.966801    1.214209   -1.496527
     41          1           0        1.962444    1.303309    1.292107
     42          1           0        1.244380   -0.215326   -1.159202
     43          1           0        2.599548   -1.153588    1.324307
     44          1           0        1.389726   -2.888189   -0.042972
     45          1           0        2.523639   -2.535111   -1.329921
 ---------------------------------------------------------------------

 SCF Done:  E(RB3LYP) =  -1297.96213313     A.U. after   13 cycles

 The electronic state is 1-A.
 Alpha  occ. eigenvalues --  -19.20028 -19.19037 -19.18354 -19.17903 -19.17335
 Alpha  occ. eigenvalues --  -19.15640 -19.15368 -19.14953 -19.14363 -19.13701
 Alpha  occ. eigenvalues --  -19.13165 -10.31551 -10.28653 -10.27750 -10.27431
 Alpha  occ. eigenvalues --  -10.27309 -10.26437 -10.24599 -10.24372 -10.23462
 Alpha  occ. eigenvalues --  -10.23383 -10.22541 -10.22332  -1.10340  -1.07774
 Alpha  occ. eigenvalues --   -1.07087  -1.05123  -1.04062  -1.03412  -1.01885
 Alpha  occ. eigenvalues --   -1.01609  -1.01112  -0.99596  -0.99003  -0.83181
 Alpha  occ. eigenvalues --   -0.82466  -0.79103  -0.77456  -0.72018  -0.69422
 Alpha  occ. eigenvalues --   -0.67506  -0.64802  -0.63496  -0.62805  -0.61202
 Alpha  occ. eigenvalues --   -0.60046  -0.57850  -0.56164  -0.56066  -0.54125
 Alpha  occ. eigenvalues --   -0.53435  -0.52979  -0.52470  -0.52097  -0.51394
 Alpha  occ. eigenvalues --   -0.49952  -0.48998  -0.48794  -0.48468  -0.47083
 Alpha  occ. eigenvalues --   -0.46152  -0.44786  -0.44178  -0.43614  -0.42935
 Alpha  occ. eigenvalues --   -0.42828  -0.42127  -0.40644  -0.40020  -0.39395
 Alpha  occ. eigenvalues --   -0.38200  -0.37319  -0.36135  -0.35898  -0.35617
 Alpha  occ. eigenvalues --   -0.34752  -0.34600  -0.34015  -0.33475  -0.32550
 Alpha  occ. eigenvalues --   -0.31934  -0.31175  -0.30740  -0.30692  -0.29801
 Alpha  occ. eigenvalues --   -0.29652  -0.28456  -0.27554  -0.27360  -0.26321
 Alpha  occ. eigenvalues --   -0.25207
 Alpha virt. eigenvalues --   -0.04199  -0.01537  -0.00610  -0.00546   0.00651
 Alpha virt. eigenvalues --    0.00911   0.01374   0.01797   0.02201   0.03366
 Alpha virt. eigenvalues --    0.03797   0.04526   0.05055   0.05254   0.05528

 Mulliken atomic charges:
              1
     1  O   -0.533499
     2  C   -0.254115
     3  C    0.218187
     4  O   -0.611729
     5  H    0.339975
     6  C   -0.053724
     7  O   -0.541422
     8  H    0.358971
     9  C   -0.444522
    10  O   -0.532416
    11  H    0.340850
    12  C    0.437771
    13  O   -0.279274
    14  C    0.359688
    15  O   -0.252611
    16  C    0.314179
    17  C    0.142709
    18  O   -0.552400
    19  H    0.395172
    20  C   -0.063351
    21  O   -0.526817
    22  H    0.343093
    23  C   -0.228461
    24  O   -0.505302
    25  H    0.327270
    26  C   -0.172398
    27  O   -0.235667
    28  C    0.291424
    29  O   -0.519452
    30  H    0.325308
    31  H    0.332789
    32  H    0.145611
    33  H    0.143138
    34  H    0.124634
    35  H    0.124920
    36  H    0.118234
    37  H    0.133147
    38  H    0.125973
    39  H    0.118260
    40  H    0.112673
    41  H    0.106585
    42  H    0.102449
    43  H    0.110355
    44  H    0.164028
    45  H    0.149766
 Sum of Mulliken atomic charges =   0.00000

 Dipole moment (field-independent basis, Debye):
    X=             -9.0031    Y=             -2.5422    Z=              1.2741  Tot=              9.4415
 Quadrupole moment (field-independent basis, Debye-Ang):
   XX=           -122.3199   YY=           -143.1566   ZZ=           -131.3737
   XY=             -2.7451   XZ=              4.6982   YZ=             -1.0891

  Exact polarizability: 229.476   0.721 201.909   2.529  -1.234 147.120
 Approx polarizability: 273.830  -1.463 262.159   2.389  -2.793 242.520

 ******    6 imaginary frequencies (negative Signs) ******

                     1                      2                      3
                     A                      A                      A
 Frequencies --  -275.5232              -248.7726               -98.3973
 Red. masses --     1.0805                 1.8699                 4.6289
 Frc consts  --     0.0483                 0.0682                 0.0264
 IR Inten    --   112.6518                 5.8953                 3.6014
 Raman Activ --     1.5872                 0.0167                 0.0856

                     4                      5                      6
                     A                      A                      A
 Frequencies --   -61.2283               -47.7068               -31.5856
 Red. masses --     2.9310                 5.6439                 2.4017
 Frc consts  --     0.0065                 0.0076                 0.0014
 IR Inten    --    11.5021                 4.1205                57.9998
 Raman Activ --     0.2398                 0.0549                 0.2510

                     7                      8                      9
                     A                      A                      A
 Frequencies --    13.4849                53.0862                66.6780
 Red. masses --     6.3002                 2.4912                 5.1708
 Frc consts  --     0.0007                 0.0041                 0.0135
 IR Inten    --     5.9813                40.2638                 4.3558
 Raman Activ --     0.0764                 0.2828                 0.1578

                    10                     11                     12
                     A                      A                      A
 Frequencies --    79.9838                83.5309               113.4312
 Red. masses --     5.1255                 6.2235                 5.6482
 Frc consts  --     0.0193                 0.0256                 0.0428
 IR Inten    --    13.2717                 0.2836                 3.4210
 Raman Activ --     0.3001                 0.1119                 0.5136

                    13                     14                     15
                     A                      A                      A
 Frequencies --   136.3077               172.2767               181.6111
 Red. masses --     5.4398                 5.4471                 5.3124
 Frc consts  --     0.0595                 0.0953                 0.1032
 IR Inten    --     1.0186                 0.3257                 5.6383
 Raman Activ --     0.1358                 0.3480                 0.1919

                    16                     17                     18
                     A                      A                      A
 Frequencies --   195.1683               210.6689               252.4795
 Red. masses --     6.5616                 6.0647                 5.2284
 Frc consts  --     0.1473                 0.1586                 0.1964
 IR Inten    --     0.5203                 1.5567                13.0421
 Raman Activ --     1.2194                 1.0631                 0.7838

                    19                     20                     21
                     A                      A                      A
 Frequencies --   266.8394               282.6530               292.4404
 Red. masses --     7.4619                 3.8937                 4.4444
 Frc consts  --     0.3130                 0.1833                 0.2239
 IR Inten    --     0.0456                15.3381                 1.2681
 Raman Activ --     0.3077                 0.5644                 0.8033

                    22                     23                     24
                     A                      A                      A
 Frequencies --   313.0392               320.7236               331.7331
 Red. masses --     4.2401                 5.5403                 5.6382
 Frc consts  --     0.2448                 0.3358                 0.3656
 IR Inten    --     2.9609                 1.6530                 2.5401
 Raman Activ --     0.9483                 2.1702                 3.2886

                    25                     26                     27
                     A                      A                      A
 Frequencies --   354.1296               371.6428               380.4455
 Red. masses --     6.4831                 4.7925                 4.7011
 Frc consts  --     0.4790                 0.3900                 0.4009
 IR Inten    --     0.3906                 4.3271                11.0983
 Raman Activ --     3.4745                 0.9875                 1.1506

                    28                     29                     30
                     A                      A                      A
 Frequencies --   405.6663               416.0002               431.7964
 Red. masses --     6.6781                 4.3724                 5.1996
 Frc consts  --     0.6475                 0.4458                 0.5712
 IR Inten    --     1.6732                 8.5242                 2.8768
 Raman Activ --     4.4857                 5.8244                 2.2363

                    31                     32                     33
                     A                      A                      A
 Frequencies --   434.0599               476.7394               490.6213
 Red. masses --     5.7371                 3.6773                 4.6291
 Frc consts  --     0.6369                 0.4924                 0.6565
 IR Inten    --     8.1178                 6.0734                17.3118
 Raman Activ --     2.2222                 1.1598                 0.3042

                    34                     35                     36
                     A                      A                      A
 Frequencies --   535.6981               548.1716               555.5910
 Red. masses --     3.1009                 3.6898                 4.0720
 Frc consts  --     0.5243                 0.6533                 0.7406
 IR Inten    --    49.5583                18.0442                12.1882
 Raman Activ --     1.7950                 6.8298                 1.1037

                    37                     38                     39
                     A                      A                      A
 Frequencies --   578.0905               584.6948               601.6725
 Red. masses --     2.8263                 1.3258                 2.7379
 Frc consts  --     0.5565                 0.2670                 0.5840
 IR Inten    --    20.9031                95.9518                35.7863
 Raman Activ --     1.7128                 0.7455                 1.8237

                    40                     41                     42
                     A                      A                      A
 Frequencies --   606.0235               627.6596               634.7635
 Red. masses --     2.8222                 1.2819                 1.4047
 Frc consts  --     0.6107                 0.2975                 0.3335
 IR Inten    --    20.1081                83.8676                72.6200
 Raman Activ --     0.3527                 2.1953                 1.7811

                    43                     44                     45
                     A                      A                      A
 Frequencies --   639.4708               667.4110               671.2899
 Red. masses --     1.2657                 1.4666                 2.9945
 Frc consts  --     0.3049                 0.3849                 0.7951
 IR Inten    --    80.6488                31.6466                11.9116
 Raman Activ --     0.7394                 1.3045                 0.2479

                    46                     47                     48
                     A                      A                      A
 Frequencies --   689.3807               758.1826               846.8616
 Red. masses --     1.1328                 1.0962                 2.7246
 Frc consts  --     0.3172                 0.3713                 1.1513
 IR Inten    --    88.1557                54.0993                 4.4533
 Raman Activ --     1.8059                 0.3878                 4.1075

                    49                     50                     51
                     A                      A                      A
 Frequencies --   861.3746               917.8862               937.3340
 Red. masses --     2.5828                 5.8314                 5.9668
 Frc consts  --     1.1291                 2.8947                 3.0888
 IR Inten    --    11.5954                66.6058               213.3654
 Raman Activ --     2.6218                 1.4155                 2.1592

                    52                     53                     54
                     A                      A                      A
 Frequencies --   962.3003               977.0829               986.4366
 Red. masses --     6.7495                 4.0474                 5.3946
 Frc consts  --     3.6825                 2.2766                 3.0928
 IR Inten    --    63.1385                93.6576               286.7879
 Raman Activ --     2.3295                 4.9981                 1.6536

                    55                     56                     57
                     A                      A                      A
 Frequencies --   988.1137              1002.4321              1016.8625
 Red. masses --     5.1269                 4.1325                 4.4796
 Frc consts  --     2.9493                 2.4467                 2.7290
 IR Inten    --    65.2122                31.2650               156.7204
 Raman Activ --     0.3992                 4.6615                 0.8408

                    58                     59                     60
                     A                      A                      A
 Frequencies --  1020.3955              1033.7816              1044.1519
 Red. masses --     3.1283                 3.8562                 3.2281
 Frc consts  --     1.9191                 2.4281                 2.0736
 IR Inten    --   212.2142                18.4978               117.2960
 Raman Activ --     1.4683                17.7931                 6.9267

                    61                     62                     63
                     A                      A                      A
 Frequencies --  1051.3094              1065.1968              1075.9434
 Red. masses --     5.6245                 4.0713                 3.4537
 Frc consts  --     3.6627                 2.7217                 2.3556
 IR Inten    --   150.0675                39.0397                91.3156
 Raman Activ --     6.1358                 3.3674                10.0668

                    64                     65                     66
                     A                      A                      A
 Frequencies --  1092.9099              1093.7652              1106.2531
 Red. masses --     2.8139                 2.7294                 2.6459
 Frc consts  --     1.9803                 1.9239                 1.9078
 IR Inten    --    91.9930                32.5619                37.3658
 Raman Activ --     4.8094                 4.3738                 4.5592

                    67                     68                     69
                     A                      A                      A
 Frequencies --  1111.4209              1119.5806              1128.7595
 Red. masses --     2.7003                 3.4312                 1.6473
 Frc consts  --     1.9653                 2.5340                 1.2366
 IR Inten    --    38.4783                51.5765                 5.5489
 Raman Activ --    15.3813                 4.9661                 2.4486

                    70                     71                     72
                     A                      A                      A
 Frequencies --  1139.1955              1144.2700              1150.1621
 Red. masses --     2.1650                 2.6917                 1.8697
 Frc consts  --     1.6554                 2.0765                 1.4573
 IR Inten    --    10.2165                16.5325                 0.1506
 Raman Activ --     2.3171                 2.0328                 2.3915

                    73                     74                     75
                     A                      A                      A
 Frequencies --  1156.2402              1169.7294              1173.0833
 Red. masses --     2.8226                 1.9467                 2.5754
 Frc consts  --     2.2233                 1.5693                 2.0881
 IR Inten    --    19.5301                29.3243                33.0707
 Raman Activ --     2.8562                 0.9397                 1.0049

                    76                     77                     78
                     A                      A                      A
 Frequencies --  1193.2866              1204.7276              1226.9610
 Red. masses --     1.4799                 1.4018                 1.2271
 Frc consts  --     1.2416                 1.1987                 1.0884
 IR Inten    --     3.5702                 0.8672                15.1788
 Raman Activ --     5.5122                 2.0939                 5.9355

                    79                     80                     81
                     A                      A                      A
 Frequencies --  1230.7867              1233.2309              1246.3076
 Red. masses --     1.2347                 1.1781                 1.2532
 Frc consts  --     1.1020                 1.0557                 1.1469
 IR Inten    --    23.9140                 9.3459                 5.1359
 Raman Activ --     2.4041                 0.9895                 3.2914

                    82                     83                     84
                     A                      A                      A
 Frequencies --  1255.6766              1264.0204              1270.9828
 Red. masses --     1.2009                 1.2895                 1.3383
 Frc consts  --     1.1156                 1.2139                 1.2738
 IR Inten    --     2.3239                17.6761                48.4561
 Raman Activ --     3.6212                 2.5089                 2.3356

                    85                     86                     87
                     A                      A                      A
 Frequencies --  1289.9101              1296.4778              1299.8378
 Red. masses --     1.4239                 1.2799                 1.2142
 Frc consts  --     1.3959                 1.2676                 1.2087
 IR Inten    --    26.9294                 8.5082                37.1083
 Raman Activ --     2.3547                 2.6294                 1.1323

                    88                     89                     90
                     A                      A                      A
 Frequencies --  1310.9100              1312.7770              1313.7076
 Red. masses --     1.3074                 1.2484                 1.2827
 Frc consts  --     1.3237                 1.2676                 1.3043
 IR Inten    --    15.7086                58.9022                10.6010
 Raman Activ --     3.5743                 3.4438                 4.5087

                    91                     92                     93
                     A                      A                      A
 Frequencies --  1327.4843              1329.3709              1336.7835
 Red. masses --     1.2413                 1.2740                 1.2643
 Frc consts  --     1.2888                 1.3265                 1.3311
 IR Inten    --    11.2487                 8.8130                15.7676
 Raman Activ --     2.8043                 3.3512                 1.6600

                    94                     95                     96
                     A                      A                      A
 Frequencies --  1343.7295              1352.2325              1363.4265
 Red. masses --     1.5441                 1.3584                 1.5853
 Frc consts  --     1.6427                 1.4635                 1.7363
 IR Inten    --    32.5971                20.9770                 8.4795
 Raman Activ --     1.0757                14.2452                 4.4769

                    97                     98                     99
                     A                      A                      A
 Frequencies --  1370.1991              1386.0691              1391.9345
 Red. masses --     1.1862                 1.2436                 1.3630
 Frc consts  --     1.3121                 1.4077                 1.5559
 IR Inten    --    14.4325                 4.8866                 6.2031
 Raman Activ --     1.0214                 1.9098                 3.2164

                   100                    101                    102
                     A                      A                      A
 Frequencies --  1401.7331              1404.8578              1406.6186
 Red. masses --     1.4471                 1.4095                 1.4013
 Frc consts  --     1.6753                 1.6391                 1.6336
 IR Inten    --     3.9422                23.1304                67.9968
 Raman Activ --     5.8226                 2.4661                 4.0804

                   103                    104                    105
                     A                      A                      A
 Frequencies --  1429.2981              1447.8115              1454.1532
 Red. masses --     1.4424                 1.4739                 1.0724
 Frc consts  --     1.7361                 1.8203                 1.3361
 IR Inten    --     6.3388                18.6457                 5.7636
 Raman Activ --     0.5317                 5.8968                 5.3308

                   106                    107                    108
                     A                      A                      A
 Frequencies --  1462.1575              1538.0222              3259.2740
 Red. masses --     1.0837                 1.1905                 1.0698
 Frc consts  --     1.3650                 1.6592                 6.6955
 IR Inten    --     3.7109                68.7011                76.1569
 Raman Activ --     4.2152                 0.1757                 7.4339

                   109                    110                    111
                     A                      A                      A
 Frequencies --  3259.8091              3263.7369              3267.0862
 Red. masses --     1.0695                 1.0798                 1.0825
 Frc consts  --     6.6960                 6.7768                 6.8074
 IR Inten    --    10.3672                 1.3886                 6.7894
 Raman Activ --   115.0179               119.9230                 7.9357

                   112                    113                    114
                     A                      A                      A
 Frequencies --  3272.9377              3273.3058              3279.5939
 Red. masses --     1.0617                 1.0813                 1.0828
 Frc consts  --     6.7009                 6.8260                 6.8621
 IR Inten    --     1.9067                19.4982                14.0917
 Raman Activ --    75.5653                65.0363               101.4399

                   115                    116                    117
                     A                      A                      A
 Frequencies --  3280.1273              3285.3262              3287.2805
 Red. masses --     1.0827                 1.0833                 1.0848
 Frc consts  --     6.8632                 6.8889                 6.9069
 IR Inten    --     4.1442                 7.5753                18.1179
 Raman Activ --    38.7896               150.0236                18.5711

                   118                    119                    120
                     A                      A                      A
 Frequencies --  3294.5567              3300.6868              3310.1146
 Red. masses --     1.0862                 1.0859                 1.0858
 Frc consts  --     6.9462                 6.9703                 7.0096
 IR Inten    --   129.5798                65.8352               350.6866
 Raman Activ --    16.9265                10.2159                55.2586

                   121                    122                    123
                     A                      A                      A
 Frequencies --  3313.9794              3338.8516              3362.0968
 Red. masses --     1.0878                 1.1033                 1.0677
 Frc consts  --     7.0391                 7.2468                 7.1105
 IR Inten    --   223.3186                31.0797                50.1782
 Raman Activ --   150.9722                50.8976               158.1109

                   124                    125                    126
                     A                      A                      A
 Frequencies --  3371.4369              3372.5133              3374.0545
 Red. masses --     1.0750                 1.0682                 1.0672
 Frc consts  --     7.1990                 7.1582                 7.1583
 IR Inten    --    28.2416                60.0616                46.0109
 Raman Activ --    80.2970               178.4003               153.3296

                   127                    128                    129
                     A                      A                      A
 Frequencies --  3382.7336              3885.5509              3889.8664
 Red. masses --     1.0682                 1.0674                 1.0670
 Frc consts  --     7.2018                 9.4944                 9.5123
 IR Inten    --    59.6202                68.3437                66.1078
 Raman Activ --    97.2556               104.4793               124.7756

 - Thermochemistry -
 -------------------
 Temperature   298.150 Kelvin.  Pressure   1.00000 Atm.
 Atom     1 has atomic number  8 and mass  15.99491

 Molecular mass:   342.11621 amu.
 Principal axes and moments of inertia in atomic units:
                           1         2         3
     Eigenvalues --  4635.57478********************
           X            0.99998  -0.00583   0.00025
           Y            0.00583   0.99998   0.00217
           Z           -0.00026  -0.00217   1.00000
 This molecule is an asymmetric top.
 Rotational symmetry number  1.
 Warning -- assumption of classical behavior for rotation
           may cause significant error
 Rotational temperatures (Kelvin)      0.01868     0.00715     0.00533
 Rotational constants (GHZ):           0.38932     0.14896     0.11109
    6 imaginary frequencies ignored.
 Zero-point vibrational energy     967890.0 (Joules/Mol)
                                  231.33126 (Kcal/Mol)
 Warning -- explicit consideration of  34 degrees of freedom as
           vibrations may cause significant error
 Vibrational temperatures:     19.40    76.38    95.93   115.08   120.18
          (Kelvin)            163.20   196.12   247.87   261.30   280.80
                              303.11   363.26   383.92   406.67   420.76
                              450.39   461.45   477.29   509.51   534.71
                              547.38   583.66   598.53   621.26   624.51
                              685.92   705.89   770.75   788.70   799.37
                              831.74   841.24   865.67   871.93   903.06
                              913.28   920.05   960.25   965.84   991.86
                             1090.85  1218.44  1239.32  1320.63  1348.61
                             1384.53  1405.80  1419.26  1421.67  1442.27
                             1463.04  1468.12  1487.38  1502.30  1512.60
                             1532.58  1548.04  1572.45  1573.68  1591.65
                             1599.08  1610.82  1624.03  1639.05  1646.35
                             1654.82  1663.57  1682.98  1687.80  1716.87
                             1733.33  1765.32  1770.83  1774.34  1793.16
                             1806.64  1818.64  1828.66  1855.89  1865.34
                             1870.17  1886.10  1888.79  1890.13  1909.95
                             1912.67  1923.33  1933.32  1945.56  1961.66
                             1971.41  1994.24  2002.68  2016.78  2021.27
                             2023.81  2056.44  2083.08  2092.20  2103.72
                             2212.87  4689.36  4690.13  4695.78  4700.60
                             4709.02  4709.55  4718.60  4719.37  4726.85
                             4729.66  4740.13  4748.95  4762.51  4768.07
                             4803.86  4837.30  4850.74  4852.29  4854.51
                             4866.99  5590.43  5596.64

 Zero-point correction=                           0.368650 (Hartree/Particle)
 Thermal correction to Energy=                    0.388254
 Thermal correction to Enthalpy=                  0.389198
 Thermal correction to Gibbs Free Energy=         0.320269
 Sum of electronic and zero-point Energies=          -1297.593483
 Sum of electronic and thermal Energies=             -1297.573879
 Sum of electronic and thermal Enthalpies=           -1297.572935
 Sum of electronic and thermal Free Energies=        -1297.641864

                     E (Thermal)             CV                S
                      KCal/Mol        Cal/Mol-Kelvin    Cal/Mol-Kelvin
 Total                  243.633             79.390            145.073
 Electronic               0.000              0.000              0.000
 Translational            0.889              2.981             43.384
 Rotational               0.889              2.981             35.166
 Vibrational            241.856             73.428             66.523
 Vibration     1          0.593              1.987              7.417
 Vibration     2          0.596              1.976              4.699
 Vibration     3          0.598              1.970              4.249
 Vibration     4          0.600              1.963              3.891
 Vibration     5          0.600              1.961              3.806
 Vibration     6          0.607              1.938              3.209
 Vibration     7          0.614              1.917              2.855
 Vibration     8          0.626              1.877              2.411
 Vibration     9          0.630              1.865              2.312
 Vibration    10          0.636              1.847              2.178
 Vibration    11          0.643              1.825              2.038
 Vibration    12          0.664              1.759              1.713
 Vibration    13          0.672              1.734              1.617
 Vibration    14          0.682              1.706              1.518
 Vibration    15          0.688              1.688              1.460
 Vibration    16          0.701              1.649              1.346
 Vibration    17          0.706              1.634              1.306
 Vibration    18          0.714              1.612              1.252
 Vibration    19          0.730              1.567              1.148
 Vibration    20          0.743              1.530              1.073
 Vibration    21          0.750              1.512              1.037
 Vibration    22          0.771              1.458              0.942
 Vibration    23          0.779              1.435              0.906
 Vibration    24          0.793              1.401              0.853
 Vibration    25          0.795              1.396              0.845
 Vibration    26          0.833              1.302              0.719
 Vibration    27          0.846              1.271              0.682
 Vibration    28          0.891              1.171              0.575
 Vibration    29          0.903              1.144              0.548
 Vibration    30          0.911              1.127              0.533
 Vibration    31          0.935              1.079              0.489
 Vibration    32          0.942              1.064              0.477
 Vibration    33          0.960              1.028              0.447
 Vibration    34          0.965              1.019              0.439

 Normal termination of Gaussian 09 at Mon Mar 28 13:07:14 2016.
