 Gaussian 09, Revision B.01,
 Gaussian 09:  EM64L-G09RevB.01 12-Aug-2010

 --------------------------------------------------
 # freq=raman b3lyp/6-31+g(2df,p) geom=connectivity
 --------------------------------------------------

 -------------
 320 10000.com
 -------------
 Symbolic Z-matrix:
 Charge =  0 Multiplicity = 1

                         Standard orientation:
 ---------------------------------------------------------------------
 Center     Atomic      Atomic             Coordinates (Angstroms)
 Number     Number       Type             X           Y           Z
 ---------------------------------------------------------------------
      1          8           0        5.094513   -0.358036   -0.181571
      2          6           0        3.785329   -0.013649    0.295653
      3          6           0        3.192841    1.231743   -0.343925
      4          8           0        4.058903    2.375634   -0.320011
      5          1           0        4.869095    1.928082   -0.698551
      6          6           0        1.811533    1.564890    0.195119
      7          8           0        1.275938    2.749326   -0.411894
      8          1           0        0.356823    2.833737   -0.027907
      9          6           0        3.028551   -2.486246    0.229856
     10          8           0        4.212078   -3.151687   -0.235026
     11          1           0        4.175693   -4.150686   -0.246659
     12          6           0        2.843086   -1.062644   -0.270772
     13          8           0        1.535892   -0.816973    0.267819
     14          6           0        0.867627    0.405582   -0.078196
     15          8           0       -0.300412    0.566908    0.740219
     16          6           0       -1.511347    0.217637    0.055083
     17          6           0       -2.012677   -1.175787    0.397739
     18          8           0       -1.001325   -2.174684    0.198365
     19          1           0       -0.163970   -1.739225    0.527941
     20          6           0       -3.273036   -1.534978   -0.372018
     21          8           0       -3.656173   -2.830183    0.114183
     22          1           0       -4.439483   -3.148536   -0.419949
     23          6           0       -2.560014    2.624341    0.153343
     24          8           0       -1.291963    3.295692    0.196124
     25          1           0       -1.458096    4.277453    0.100992
     26          6           0       -2.647478    1.139549    0.465797
     27          8           0       -3.901577    0.855053   -0.170973
     28          6           0       -4.316278   -0.504717    0.026526
     29          8           0       -5.407936   -0.685014   -0.886737
     30          1           0       -6.208983   -0.877492   -0.393912
     31          1           0        5.660239   -0.573590    0.563473
     32          1           0        2.179342   -3.061629   -0.074575
     33          1           0        3.054770   -2.464434    1.299312
     34          1           0        2.826226   -1.030500   -1.340156
     35          1           0        3.740650    0.023318    1.364081
     36          1           0        3.054589    0.991248   -1.377341
     37          1           0        1.878709    1.716471    1.252195
     38          1           0        0.592157    0.393045   -1.112052
     39          1           0       -3.208185    3.129863    0.838341
     40          1           0       -2.958243    2.764079   -0.829910
     41          1           0       -2.782579    1.034582    1.522031
     42          1           0       -1.356982    0.291050   -1.001176
     43          1           0       -2.262566   -1.177584    1.438149
     44          1           0       -3.103042   -1.541139   -1.428410
     45          1           0       -4.638496   -0.660731    1.034859
 ---------------------------------------------------------------------

 SCF Done:  E(RB3LYP) =  -1298.01834174     A.U. after   14 cycles

 The electronic state is 1-A.
 Alpha  occ. eigenvalues --  -19.19085 -19.18352 -19.18289 -19.17796 -19.17556
 Alpha  occ. eigenvalues --  -19.16887 -19.16591 -19.15262 -19.14736 -19.14168
 Alpha  occ. eigenvalues --  -19.13052 -10.30390 -10.30088 -10.26207 -10.25808
 Alpha  occ. eigenvalues --  -10.25125 -10.24993 -10.24961 -10.24876 -10.24093
 Alpha  occ. eigenvalues --  -10.23723 -10.23653 -10.23524  -1.09782  -1.09113
 Alpha  occ. eigenvalues --   -1.05404  -1.04903  -1.04028  -1.03747  -1.02902
 Alpha  occ. eigenvalues --   -1.01968  -1.01396  -1.00696  -0.99789  -0.82262
 Alpha  occ. eigenvalues --   -0.80321  -0.79607  -0.78244  -0.71730  -0.69612
 Alpha  occ. eigenvalues --   -0.66903  -0.64621  -0.62926  -0.61894  -0.61644
 Alpha  occ. eigenvalues --   -0.60339  -0.56495  -0.55577  -0.54932  -0.54598
 Alpha  occ. eigenvalues --   -0.53538  -0.53235  -0.52398  -0.51997  -0.50757
 Alpha  occ. eigenvalues --   -0.50585  -0.49273  -0.48742  -0.48173  -0.46660
 Alpha  occ. eigenvalues --   -0.45318  -0.45204  -0.43914  -0.43457  -0.43098
 Alpha  occ. eigenvalues --   -0.42231  -0.41638  -0.40838  -0.40232  -0.39321
 Alpha  occ. eigenvalues --   -0.38632  -0.38211  -0.37624  -0.36768  -0.36246
 Alpha  occ. eigenvalues --   -0.35711  -0.35229  -0.34349  -0.34202  -0.33384
 Alpha  occ. eigenvalues --   -0.32827  -0.31336  -0.30751  -0.30509  -0.30102
 Alpha  occ. eigenvalues --   -0.29054  -0.28767  -0.28241  -0.27025  -0.26691
 Alpha  occ. eigenvalues --   -0.26174
 Alpha virt. eigenvalues --   -0.01848  -0.01787  -0.01413  -0.00086   0.00452
 Alpha virt. eigenvalues --    0.00928   0.01861   0.02161   0.02853   0.03677
 Alpha virt. eigenvalues --    0.04062   0.04225   0.04866   0.05604   0.05647

 Mulliken atomic charges:
              1
     1  O   -0.441748
     2  C   -0.056633
     3  C    0.003363
     4  O   -0.442291
     5  H    0.342267
     6  C   -0.221713
     7  O   -0.473870
     8  H    0.435153
     9  C   -0.322495
    10  O   -0.489102
    11  H    0.355843
    12  C    0.030931
    13  O   -0.063028
    14  C    0.104454
    15  O   -0.018368
    16  C    0.131054
    17  C   -0.058467
    18  O   -0.445153
    19  H    0.384154
    20  C   -0.022765
    21  O   -0.433650
    22  H    0.340780
    23  C   -0.366398
    24  O   -0.492894
    25  H    0.369424
    26  C   -0.221145
    27  O   -0.013280
    28  C   -0.017684
    29  O   -0.478795
    30  H    0.344558
    31  H    0.349006
    32  H    0.155654
    33  H    0.145195
    34  H    0.123811
    35  H    0.132269
    36  H    0.110163
    37  H    0.130418
    38  H    0.126986
    39  H    0.150541
    40  H    0.162547
    41  H    0.126656
    42  H    0.117712
    43  H    0.123903
    44  H    0.143543
    45  H    0.139095
 Sum of Mulliken atomic charges =   0.00000

 Dipole moment (field-independent basis, Debye):
    X=             -3.5066    Y=             -0.8650    Z=              1.9606  Tot=              4.1096
 Quadrupole moment (field-independent basis, Debye-Ang):
   XX=           -119.3635   YY=           -137.3657   ZZ=           -136.7472
   XY=            -14.9642   XZ=              1.8051   YZ=              3.7760

  Exact polarizability: 231.645   0.115 197.655   0.635  -0.047 143.093
 Approx polarizability: 271.931  -0.861 258.294   0.438  -0.061 238.445

 ******    7 imaginary frequencies (negative Signs) ******

                     1                      2                      3
                     A                      A                      A
 Frequencies --  -286.6858              -277.2975              -223.9552
 Red. masses --     1.8441                 1.1668                 1.7348
 Frc consts  --     0.0893                 0.0529                 0.0513
 IR Inten    --     2.0664                91.1079                10.2690
 Raman Activ --     0.1274                 0.7379                 0.2394

                     4                      5                      6
                     A                      A                      A
 Frequencies --  -174.4246               -69.0881               -56.5838
 Red. masses --     1.1890                 6.6827                 6.4185
 Frc consts  --     0.0213                 0.0188                 0.0121
 IR Inten    --   102.3472                 0.0790                 0.5808
 Raman Activ --     0.9258                 0.0405                 0.0712

                     7                      8                      9
                     A                      A                      A
 Frequencies --   -29.1008                11.4286                70.1330
 Red. masses --     6.9468                 6.5014                 6.4934
 Frc consts  --     0.0035                 0.0005                 0.0188
 IR Inten    --     0.0501                 0.7902                 1.0539
 Raman Activ --     0.0165                 0.0228                 0.1572

                    10                     11                     12
                     A                      A                      A
 Frequencies --    77.7906               112.9778               118.6139
 Red. masses --     6.4379                 5.8024                 5.7349
 Frc consts  --     0.0230                 0.0436                 0.0475
 IR Inten    --     0.1833                 1.2533                 1.8403
 Raman Activ --     0.2258                 0.0515                 0.0613

                    13                     14                     15
                     A                      A                      A
 Frequencies --   157.7338               183.4045               188.4536
 Red. masses --     6.3269                 6.1118                 7.5045
 Frc consts  --     0.0927                 0.1211                 0.1570
 IR Inten    --     2.5690                 3.8688                 0.2603
 Raman Activ --     0.5545                 0.6943                 0.6119

                    16                     17                     18
                     A                      A                      A
 Frequencies --   214.7438               228.1953               255.5436
 Red. masses --     6.5626                 6.0691                 5.4826
 Frc consts  --     0.1783                 0.1862                 0.2109
 IR Inten    --     1.2360                 0.6934                 4.1112
 Raman Activ --     1.9341                 0.5619                 0.2107

                    19                     20                     21
                     A                      A                      A
 Frequencies --   269.6351               282.3894               307.7318
 Red. masses --     4.0363                 4.8383                 4.8134
 Frc consts  --     0.1729                 0.2273                 0.2686
 IR Inten    --    15.1623                 2.5662                 1.4530
 Raman Activ --     0.2789                 0.1225                 0.1912

                    22                     23                     24
                     A                      A                      A
 Frequencies --   316.0984               321.0533               335.7254
 Red. masses --     5.7421                 5.4148                 6.0739
 Frc consts  --     0.3380                 0.3288                 0.4034
 IR Inten    --     2.5182                 3.6269                 1.1314
 Raman Activ --     1.0363                 1.7433                 1.8684

                    25                     26                     27
                     A                      A                      A
 Frequencies --   349.1737               365.6540               387.3546
 Red. masses --     6.2860                 4.4460                 8.3982
 Frc consts  --     0.4516                 0.3502                 0.7424
 IR Inten    --    14.0290                 0.6198                 2.1785
 Raman Activ --     2.9301                 1.6598                 3.1437

                    28                     29                     30
                     A                      A                      A
 Frequencies --   404.8360               425.6536               430.1349
 Red. masses --     5.8113                 5.2388                 4.6585
 Frc consts  --     0.5611                 0.5592                 0.5078
 IR Inten    --     9.2215                 2.8261                 7.6296
 Raman Activ --     2.1310                 5.5198                 0.6091

                    31                     32                     33
                     A                      A                      A
 Frequencies --   449.7957               499.2325               504.0212
 Red. masses --     5.8210                 3.7373                 4.7635
 Frc consts  --     0.6939                 0.5488                 0.7130
 IR Inten    --     5.0065                18.4772                 4.8442
 Raman Activ --     1.7420                 0.4850                 3.5715

                    34                     35                     36
                     A                      A                      A
 Frequencies --   510.6123               539.8216               578.3851
 Red. masses --     3.8690                 3.1718                 3.7321
 Frc consts  --     0.5943                 0.5446                 0.7356
 IR Inten    --     5.5031                 8.5593                14.2484
 Raman Activ --     3.9335                 2.6351                 1.4190

                    37                     38                     39
                     A                      A                      A
 Frequencies --   604.4048               613.3653               617.0162
 Red. masses --     4.5654                 3.0466                 5.5319
 Frc consts  --     0.9826                 0.6753                 1.2409
 IR Inten    --    18.4768                39.7129                14.9573
 Raman Activ --     0.2510                 0.5714                 1.3811

                    40                     41                     42
                     A                      A                      A
 Frequencies --   642.6362               660.2366               676.7961
 Red. masses --     3.6301                 1.2694                 3.5557
 Frc consts  --     0.8833                 0.3260                 0.9596
 IR Inten    --     5.9033               109.0764                13.3115
 Raman Activ --     0.2273                 1.8187                 0.7307

                    43                     44                     45
                     A                      A                      A
 Frequencies --   717.0620               749.8828               770.5325
 Red. masses --     1.0736                 1.0826                 1.1408
 Frc consts  --     0.3252                 0.3587                 0.3991
 IR Inten    --   105.9883                97.0623                93.5062
 Raman Activ --     1.7285                 1.7392                 1.7999

                    46                     47                     48
                     A                      A                      A
 Frequencies --   801.0515               850.2421               856.8644
 Red. masses --     1.1002                 1.2085                 1.4970
 Frc consts  --     0.4159                 0.5147                 0.6476
 IR Inten    --   108.4474                50.2248                24.4001
 Raman Activ --     3.4002                 1.3205                 0.6356

                    49                     50                     51
                     A                      A                      A
 Frequencies --   877.0435               932.7055               952.4743
 Red. masses --     1.7446                 5.5401                 5.2868
 Frc consts  --     0.7906                 2.8396                 2.8259
 IR Inten    --     7.4018                96.7859                27.6819
 Raman Activ --     2.3382                 2.8212                 0.4845

                    52                     53                     54
                     A                      A                      A
 Frequencies --   979.7921               984.5840               988.5865
 Red. masses --     5.7352                 6.4084                 4.1054
 Frc consts  --     3.2439                 3.6602                 2.3640
 IR Inten    --    94.2791               180.1174                20.8447
 Raman Activ --     2.2308                 3.3974                 0.5241

                    55                     56                     57
                     A                      A                      A
 Frequencies --  1000.8198              1008.1501              1017.3334
 Red. masses --     6.0841                 6.3425                 5.1465
 Frc consts  --     3.5906                 3.7981                 3.1383
 IR Inten    --   411.1835                22.3535                95.6866
 Raman Activ --     1.0115                 1.6337                 2.8055

                    58                     59                     60
                     A                      A                      A
 Frequencies --  1040.3572              1053.1320              1065.1083
 Red. masses --     5.0365                 4.7674                 4.0697
 Frc consts  --     3.2118                 3.1153                 2.7202
 IR Inten    --   244.6957               166.9473               101.8881
 Raman Activ --     7.7099                15.5257                 2.9985

                    61                     62                     63
                     A                      A                      A
 Frequencies --  1067.3334              1069.7349              1080.7305
 Red. masses --     3.3034                 5.2706                 3.8080
 Frc consts  --     2.2173                 3.5535                 2.6205
 IR Inten    --    47.0426                19.0289               103.5415
 Raman Activ --     8.9858                 1.6397                10.8106

                    64                     65                     66
                     A                      A                      A
 Frequencies --  1088.9788              1093.7982              1103.8894
 Red. masses --     2.2300                 2.7825                 2.2428
 Frc consts  --     1.5581                 1.9613                 1.6102
 IR Inten    --    35.6046                36.5521                60.3884
 Raman Activ --    10.8864                 3.2399                 4.9354

                    67                     68                     69
                     A                      A                      A
 Frequencies --  1110.3408              1123.4800              1131.6133
 Red. masses --     2.4263                 1.8921                 2.3218
 Frc consts  --     1.7624                 1.4071                 1.7517
 IR Inten    --    43.6399                50.0249                16.8875
 Raman Activ --     6.5121                 5.2202                 2.9290

                    70                     71                     72
                     A                      A                      A
 Frequencies --  1136.3925              1138.0757              1153.8090
 Red. masses --     2.8723                 2.1309                 3.0019
 Frc consts  --     2.1854                 1.6261                 2.3546
 IR Inten    --    37.7281                23.5141                18.2086
 Raman Activ --     1.6904                 4.2984                 8.2343

                    73                     74                     75
                     A                      A                      A
 Frequencies --  1167.9484              1173.7950              1193.4055
 Red. masses --     2.0306                 1.8591                 1.6404
 Frc consts  --     1.6320                 1.5092                 1.3765
 IR Inten    --    18.7688                 0.2223                34.4100
 Raman Activ --     3.9107                 1.2819                 1.8356

                    76                     77                     78
                     A                      A                      A
 Frequencies --  1197.6604              1205.0119              1220.5997
 Red. masses --     1.5577                 1.3381                 1.4004
 Frc consts  --     1.3164                 1.1448                 1.2293
 IR Inten    --    27.7807                22.9193                 2.6162
 Raman Activ --     0.7141                 2.3674                 1.5373

                    79                     80                     81
                     A                      A                      A
 Frequencies --  1238.5285              1242.4229              1245.5048
 Red. masses --     1.4098                 1.2055                 1.3120
 Frc consts  --     1.2741                 1.0963                 1.1991
 IR Inten    --     8.1180                13.5982                 7.3519
 Raman Activ --     2.6347                 3.9561                 1.9084

                    82                     83                     84
                     A                      A                      A
 Frequencies --  1248.1984              1268.0504              1277.2995
 Red. masses --     1.2066                 1.2725                 1.4110
 Frc consts  --     1.1076                 1.2055                 1.3563
 IR Inten    --     9.7677                 2.4405                43.5706
 Raman Activ --     7.0842                 0.6280                 1.2744

                    85                     86                     87
                     A                      A                      A
 Frequencies --  1293.2894              1295.4637              1302.9250
 Red. masses --     1.2957                 1.1934                 1.2715
 Frc consts  --     1.2769                 1.1800                 1.2717
 IR Inten    --    12.1278                17.9856                33.3059
 Raman Activ --     1.9287                 4.0262                 2.4076

                    88                     89                     90
                     A                      A                      A
 Frequencies --  1307.7303              1312.5437              1315.4918
 Red. masses --     1.3149                 1.2970                 1.2989
 Frc consts  --     1.3249                 1.3165                 1.3243
 IR Inten    --    13.1247                24.6318                16.4970
 Raman Activ --     3.9403                 2.2397                 6.9061

                    91                     92                     93
                     A                      A                      A
 Frequencies --  1328.4537              1344.5145              1349.3959
 Red. masses --     1.2721                 1.2528                 1.1365
 Frc consts  --     1.3227                 1.3343                 1.2193
 IR Inten    --    13.8782                46.0763                10.6480
 Raman Activ --    10.7035                 2.7512                 0.4729

                    94                     95                     96
                     A                      A                      A
 Frequencies --  1359.5931              1369.9271              1378.1807
 Red. masses --     1.5453                 1.4762                 1.5363
 Frc consts  --     1.6830                 1.6323                 1.7193
 IR Inten    --    12.2735                14.3725                 1.7662
 Raman Activ --     5.1627                 5.8777                 3.2325

                    97                     98                     99
                     A                      A                      A
 Frequencies --  1379.2235              1400.8519              1408.0960
 Red. masses --     1.6178                 1.1278                 1.3790
 Frc consts  --     1.8132                 1.3040                 1.6110
 IR Inten    --    12.2461                14.7695                 4.0726
 Raman Activ --     7.5289                 1.2242                 7.8429

                   100                    101                    102
                     A                      A                      A
 Frequencies --  1420.7973              1426.3130              1463.3432
 Red. masses --     1.4699                 1.3794                 1.0835
 Frc consts  --     1.7482                 1.6533                 1.3670
 IR Inten    --    19.1655                23.1928                 2.0107
 Raman Activ --     1.1791                 1.7339                 3.8910

                   103                    104                    105
                     A                      A                      A
 Frequencies --  1471.9853              1477.8738              1505.2570
 Red. masses --     1.0709                 1.3938                 1.2874
 Frc consts  --     1.3671                 1.7936                 1.7187
 IR Inten    --     1.8901                24.3851                58.2177
 Raman Activ --     5.4856                 0.5958                 2.0058

                   106                    107                    108
                     A                      A                      A
 Frequencies --  1507.7344              1526.6245              3251.6071
 Red. masses --     1.1950                 1.3328                 1.0804
 Frc consts  --     1.6006                 1.8301                 6.7304
 IR Inten    --    23.5961                76.6389                30.9221
 Raman Activ --     0.9554                 1.3324                30.3715

                   109                    110                    111
                     A                      A                      A
 Frequencies --  3256.6177              3257.0789              3260.3444
 Red. masses --     1.0578                 1.0621                 1.0806
 Frc consts  --     6.6101                 6.6384                 6.7675
 IR Inten    --    32.8783               196.5892                25.6383
 Raman Activ --    59.0718                83.6516                12.4638

                   112                    113                    114
                     A                      A                      A
 Frequencies --  3266.6506              3270.2479              3278.1383
 Red. masses --     1.0812                 1.0700                 1.0821
 Frc consts  --     6.7974                 6.7419                 6.8511
 IR Inten    --    61.0792               360.8811               116.7788
 Raman Activ --    63.1283               286.1926                49.8293

                   115                    116                    117
                     A                      A                      A
 Frequencies --  3284.7169              3286.6644              3287.9499
 Red. masses --     1.0857                 1.0845                 1.0857
 Frc consts  --     6.9015                 6.9023                 6.9150
 IR Inten    --    13.7453                 5.5299                12.9221
 Raman Activ --    11.2245                95.1505               155.7546

                   118                    119                    120
                     A                      A                      A
 Frequencies --  3292.3096              3301.1622              3304.8640
 Red. masses --     1.0848                 1.0887                 1.0872
 Frc consts  --     6.9277                 6.9903                 6.9962
 IR Inten    --    24.8432                49.5886                55.4255
 Raman Activ --    26.1725                 9.7741                10.2444

                   121                    122                    123
                     A                      A                      A
 Frequencies --  3313.0043              3316.3648              3322.2759
 Red. masses --     1.1055                 1.1042                 1.0683
 Frc consts  --     7.1492                 7.1554                 6.9470
 IR Inten    --    49.8558                42.0408               406.1222
 Raman Activ --    57.8532                17.9880               147.1475

                   124                    125                    126
                     A                      A                      A
 Frequencies --  3352.3464              3357.9874              3358.0962
 Red. masses --     1.0645                 1.0690                 1.0663
 Frc consts  --     7.0483                 7.1021                 7.0846
 IR Inten    --    33.4504                37.6694                49.5637
 Raman Activ --    74.0679               156.9848               173.9733

                   127                    128                    129
                     A                      A                      A
 Frequencies --  3358.9489              3875.7446              3879.1460
 Red. masses --     1.0666                 1.0674                 1.0675
 Frc consts  --     7.0905                 9.4471                 9.4646
 IR Inten    --    55.3755                70.9229                82.7954
 Raman Activ --   176.0593               118.7713                97.6726

 - Thermochemistry -
 -------------------
 Temperature   298.150 Kelvin.  Pressure   1.00000 Atm.
 Atom     1 has atomic number  8 and mass  15.99491

 Molecular mass:   342.11621 amu.
 Principal axes and moments of inertia in atomic units:
                           1         2         3
     Eigenvalues --  4416.52386********************
           X            0.99997  -0.00816  -0.00039
           Y            0.00816   0.99997   0.00061
           Z            0.00039  -0.00061   1.00000
 This molecule is an asymmetric top.
 Rotational symmetry number  1.
 Warning -- assumption of classical behavior for rotation
           may cause significant error
 Rotational temperatures (Kelvin)      0.01961     0.00703     0.00532
 Rotational constants (GHZ):           0.40863     0.14654     0.11083
    7 imaginary frequencies ignored.
 Zero-point vibrational energy     975022.2 (Joules/Mol)
                                  233.03590 (Kcal/Mol)
 Warning -- explicit consideration of  32 degrees of freedom as
           vibrations may cause significant error
 Vibrational temperatures:     16.44   100.91   111.92   162.55   170.66
          (Kelvin)            226.94   263.88   271.14   308.97   328.32
                              367.67   387.94   406.29   442.76   454.79
                              461.92   483.03   502.38   526.09   557.32
                              582.47   612.42   618.87   647.15   718.28
                              725.17   734.66   776.68   832.17   869.60
                              882.49   887.75   924.61   949.93   973.76
                             1031.69  1078.91  1108.62  1152.53  1223.31
                             1232.84  1261.87  1341.95  1370.40  1409.70
                             1416.59  1422.35  1439.95  1450.50  1463.71
                             1496.84  1515.22  1532.45  1535.65  1539.11
                             1554.93  1566.80  1573.73  1588.25  1597.53
                             1616.44  1628.14  1635.01  1637.44  1660.07
                             1680.42  1688.83  1717.04  1723.16  1733.74
                             1756.17  1781.96  1787.57  1792.00  1795.88
                             1824.44  1837.75  1860.75  1863.88  1874.62
                             1881.53  1888.46  1892.70  1911.35  1934.45
                             1941.48  1956.15  1971.02  1982.89  1984.39
                             2015.51  2025.93  2044.21  2052.14  2105.42
                             2117.86  2126.33  2165.73  2169.29  2196.47
                             4678.33  4685.54  4686.20  4690.90  4699.98
                             4705.15  4716.50  4725.97  4728.77  4730.62
                             4736.89  4749.63  4754.96  4766.67  4771.50
                             4780.01  4823.27  4831.39  4831.55  4832.77
                             5576.33  5581.22

 Zero-point correction=                           0.371366 (Hartree/Particle)
 Thermal correction to Energy=                    0.389582
 Thermal correction to Enthalpy=                  0.390526
 Thermal correction to Gibbs Free Energy=         0.324954
 Sum of electronic and zero-point Energies=          -1297.646975
 Sum of electronic and thermal Energies=             -1297.628760
 Sum of electronic and thermal Enthalpies=           -1297.627816
 Sum of electronic and thermal Free Energies=        -1297.693387

                     E (Thermal)             CV                S
                      KCal/Mol        Cal/Mol-Kelvin    Cal/Mol-Kelvin
 Total                  244.466             75.545            138.007
 Electronic               0.000              0.000              0.000
 Translational            0.889              2.981             43.384
 Rotational               0.889              2.981             35.137
 Vibrational            242.689             69.584             59.486
 Vibration     1          0.593              1.987              7.746
 Vibration     2          0.598              1.968              4.150
 Vibration     3          0.599              1.964              3.946
 Vibration     4          0.607              1.939              3.217
 Vibration     5          0.609              1.934              3.123
 Vibration     6          0.621              1.894              2.577
 Vibration     7          0.631              1.862              2.293
 Vibration     8          0.633              1.856              2.243
 Vibration     9          0.645              1.819              2.003
 Vibration    10          0.651              1.798              1.893
 Vibration    11          0.666              1.753              1.692
 Vibration    12          0.674              1.729              1.599
 Vibration    13          0.681              1.706              1.519
 Vibration    14          0.698              1.659              1.375
 Vibration    15          0.703              1.643              1.330
 Vibration    16          0.707              1.633              1.305
 Vibration    17          0.717              1.604              1.232
 Vibration    18          0.726              1.577              1.170
 Vibration    19          0.739              1.543              1.098
 Vibration    20          0.756              1.497              1.010
 Vibration    21          0.770              1.460              0.945
 Vibration    22          0.787              1.414              0.873
 Vibration    23          0.791              1.405              0.858
 Vibration    24          0.809              1.361              0.796
 Vibration    25          0.855              1.252              0.660
 Vibration    26          0.859              1.241              0.648
 Vibration    27          0.866              1.226              0.632
 Vibration    28          0.895              1.162              0.566
 Vibration    29          0.935              1.078              0.488
 Vibration    30          0.963              1.022              0.442
 Vibration    31          0.973              1.004              0.427
 Vibration    32          0.977              0.996              0.421

 Normal termination of Gaussian 09 at Fri Feb 12 10:31:15 2016.
