 Gaussian 09, Revision B.01,
 Gaussian 09:  EM64L-G09RevB.01 12-Aug-2010

 -------------------------------------------------
 # freq=raman b3lyp/6-31+g(2d,p) geom=connectivity
 -------------------------------------------------

 -----------------
 350 6053/6053.com
 -----------------
 Symbolic Z-matrix:
 Charge =  0 Multiplicity = 1

                         Standard orientation:
 ---------------------------------------------------------------------
 Center     Atomic      Atomic             Coordinates (Angstroms)
 Number     Number       Type             X           Y           Z
 ---------------------------------------------------------------------
      1          8           0       -5.054583   -0.425490    0.293764
      2          6           0       -3.745030   -0.126057   -0.209407
      3          6           0       -3.209790    1.190779    0.329072
      4          8           0       -4.236222    2.192249    0.379245
      5          1           0       -5.197893    1.923164    0.336872
      6          6           0       -1.917151    1.585537   -0.366656
      7          8           0       -1.332391    2.868440   -0.104305
      8          1           0       -0.394562    3.066790   -0.390800
      9          6           0       -2.909035   -2.565940   -0.262224
     10          8           0       -3.834030   -3.279545    0.569883
     11          1           0       -3.803305   -4.236222    0.281359
     12          6           0       -2.699403   -1.140835    0.223440
     13          8           0       -1.425152   -0.803198   -0.342534
     14          6           0       -0.945034    0.491783    0.045568
     15          8           0        0.299625    0.645738   -0.652372
     16          6           0        1.477425    0.245394    0.063714
     17          6           0        1.903430   -1.108001   -0.482692
     18          8           0        1.035179   -2.224052   -0.237431
     19          1           0        0.210200   -2.099225   -0.788928
     20          6           0        3.222404   -1.572163    0.112763
     21          8           0        3.818395   -2.801114   -0.326315
     22          1           0        4.802009   -2.658586   -0.215533
     23          6           0        2.412672    2.686620    0.256596
     24          8           0        1.280083    3.321470   -0.354095
     25          1           0        1.295732    4.295037   -0.124818
     26          6           0        2.594295    1.245094   -0.188394
     27          8           0        3.750801    0.759484    0.508795
     28          6           0        4.273075   -0.478576    0.005234
     29          8           0        5.440038   -0.540825    0.837339
     30          1           0        6.223073   -0.607185    0.285929
     31          1           0       -5.648123   -0.597304   -0.440939
     32          1           0       -3.287625   -2.541140   -1.262701
     33          1           0       -1.969346   -3.077663   -0.257379
     34          1           0       -2.624644   -1.138173    1.290822
     35          1           0       -3.777409   -0.084744   -1.278119
     36          1           0       -2.942179    1.002032    1.347727
     37          1           0       -2.075680    1.508552   -1.422043
     38          1           0       -0.781002    0.522530    1.102473
     39          1           0        3.294024    3.238358    0.004200
     40          1           0        2.286455    2.705554    1.318957
     41          1           0        2.809303    1.245481   -1.236569
     42          1           0        1.270144    0.175043    1.111084
     43          1           0        2.029951   -1.011651   -1.540808
     44          1           0        3.034862   -1.700549    1.158347
     45          1           0        4.564915   -0.357174   -1.017014
 ---------------------------------------------------------------------

 SCF Done:  E(RB3LYP) =  -1297.97693387     A.U. after   13 cycles

 The electronic state is 1-A.
 Alpha  occ. eigenvalues --  -19.18814 -19.18326 -19.17415 -19.17291 -19.17290
 Alpha  occ. eigenvalues --  -19.17189 -19.16274 -19.15846 -19.15081 -19.14013
 Alpha  occ. eigenvalues --  -19.12591 -10.30771 -10.29644 -10.25977 -10.25639
 Alpha  occ. eigenvalues --  -10.25546 -10.25236 -10.24860 -10.24849 -10.24613
 Alpha  occ. eigenvalues --  -10.24311 -10.24248 -10.23745  -1.09662  -1.09018
 Alpha  occ. eigenvalues --   -1.05647  -1.05141  -1.03741  -1.03469  -1.02694
 Alpha  occ. eigenvalues --   -1.02235  -1.01313  -1.00614  -0.98984  -0.81874
 Alpha  occ. eigenvalues --   -0.80814  -0.79527  -0.78276  -0.71945  -0.69776
 Alpha  occ. eigenvalues --   -0.67279  -0.64458  -0.63171  -0.61990  -0.61796
 Alpha  occ. eigenvalues --   -0.60827  -0.56960  -0.55688  -0.55032  -0.54203
 Alpha  occ. eigenvalues --   -0.53901  -0.53498  -0.53118  -0.51706  -0.50994
 Alpha  occ. eigenvalues --   -0.50539  -0.49934  -0.49049  -0.48623  -0.46573
 Alpha  occ. eigenvalues --   -0.45852  -0.45111  -0.44331  -0.43553  -0.42993
 Alpha  occ. eigenvalues --   -0.42418  -0.41537  -0.41328  -0.40151  -0.39514
 Alpha  occ. eigenvalues --   -0.38550  -0.37924  -0.37716  -0.36350  -0.35796
 Alpha  occ. eigenvalues --   -0.35316  -0.34782  -0.34330  -0.33006  -0.32639
 Alpha  occ. eigenvalues --   -0.32212  -0.31511  -0.30995  -0.30231  -0.29345
 Alpha  occ. eigenvalues --   -0.28844  -0.28466  -0.28265  -0.26990  -0.26393
 Alpha  occ. eigenvalues --   -0.26168
 Alpha virt. eigenvalues --   -0.02459  -0.02061  -0.01879  -0.00249   0.00235
 Alpha virt. eigenvalues --    0.00609   0.01726   0.01971   0.03353   0.03447
 Alpha virt. eigenvalues --    0.03882   0.04256   0.05137   0.05233   0.05575

 Mulliken atomic charges:
              1
     1  O   -0.531892
     2  C   -0.098603
     3  C    0.185395
     4  O   -0.583007
     5  H    0.346639
     6  C   -0.032670
     7  O   -0.600986
     8  H    0.419918
     9  C   -0.168511
    10  O   -0.508211
    11  H    0.329556
    12  C    0.113317
    13  O   -0.266653
    14  C    0.281926
    15  O   -0.233875
    16  C    0.387164
    17  C    0.165449
    18  O   -0.497269
    19  H    0.344396
    20  C    0.043052
    21  O   -0.534161
    22  H    0.327730
    23  C   -0.203568
    24  O   -0.539148
    25  H    0.356725
    26  C   -0.180125
    27  O   -0.218813
    28  C   -0.009391
    29  O   -0.500575
    30  H    0.330338
    31  H    0.336484
    32  H    0.130169
    33  H    0.138726
    34  H    0.118909
    35  H    0.113620
    36  H    0.099133
    37  H    0.111593
    38  H    0.113782
    39  H    0.152645
    40  H    0.157280
    41  H    0.116414
    42  H    0.111945
    43  H    0.117936
    44  H    0.130212
    45  H    0.127007
 Sum of Mulliken atomic charges =   0.00000

 Dipole moment (field-independent basis, Debye):
    X=              2.4287    Y=              0.3167    Z=             -3.4224  Tot=              4.2085
 Quadrupole moment (field-independent basis, Debye-Ang):
   XX=           -114.4935   YY=           -139.2535   ZZ=           -139.6947
   XY=             20.0264   XZ=              3.8755   YZ=              4.6979

  Exact polarizability: 233.653  -0.022 197.812   1.194   1.874 144.638
 Approx polarizability: 275.886   1.562 257.384   1.579   2.254 241.176

 ******    7 imaginary frequencies (negative Signs) ******

                     1                      2                      3
                     A                      A                      A
 Frequencies --  -254.4143              -244.7557              -220.4917
 Red. masses --     1.3269                 1.2450                 1.9531
 Frc consts  --     0.0506                 0.0439                 0.0559
 IR Inten    --    71.9607                92.6324                 3.3146
 Raman Activ --     0.5363                 0.5864                 0.0988

                     4                      5                      6
                     A                      A                      A
 Frequencies --  -208.1918               -85.5470               -58.5018
 Red. masses --     1.6850                 7.2968                 6.0495
 Frc consts  --     0.0430                 0.0315                 0.0122
 IR Inten    --    19.4976                 3.0861                 0.5640
 Raman Activ --     0.3216                 0.0366                 0.0446

                     7                      8                      9
                     A                      A                      A
 Frequencies --   -39.5970                25.6670                52.0054
 Red. masses --     6.9267                 6.5368                 6.6399
 Frc consts  --     0.0064                 0.0025                 0.0106
 IR Inten    --     0.2833                 0.2753                 0.5309
 Raman Activ --     0.0279                 0.0994                 0.1172

                    10                     11                     12
                     A                      A                      A
 Frequencies --    61.0595                74.4263                99.2205
 Red. masses --     6.9449                 6.5792                 5.4686
 Frc consts  --     0.0153                 0.0215                 0.0317
 IR Inten    --     4.2597                 1.1088                 1.5187
 Raman Activ --     0.0196                 0.1360                 0.1769

                    13                     14                     15
                     A                      A                      A
 Frequencies --   159.9516               174.4891               186.0053
 Red. masses --     6.1525                 6.5274                 5.9347
 Frc consts  --     0.0927                 0.1171                 0.1210
 IR Inten    --     2.8853                 1.6682                 0.3145
 Raman Activ --     0.1883                 0.7814                 0.1740

                    16                     17                     18
                     A                      A                      A
 Frequencies --   211.7198               228.5597               265.1595
 Red. masses --     6.7702                 5.6951                 4.2187
 Frc consts  --     0.1788                 0.1753                 0.1748
 IR Inten    --     2.4207                 2.7905                26.2507
 Raman Activ --     2.7482                 0.5817                 0.0692

                    19                     20                     21
                     A                      A                      A
 Frequencies --   272.0821               287.8450               301.4121
 Red. masses --     4.2252                 4.2845                 5.0079
 Frc consts  --     0.1843                 0.2092                 0.2681
 IR Inten    --     4.2664                 0.7081                 3.1516
 Raman Activ --     0.2386                 0.3065                 0.3726

                    22                     23                     24
                     A                      A                      A
 Frequencies --   308.6413               322.7028               329.2565
 Red. masses --     5.8399                 4.9370                 5.3410
 Frc consts  --     0.3278                 0.3029                 0.3411
 IR Inten    --     0.8133                 2.5056                 6.4092
 Raman Activ --     1.4080                 1.7823                 0.6612

                    25                     26                     27
                     A                      A                      A
 Frequencies --   340.9005               356.7445               377.6683
 Red. masses --     5.6283                 4.8426                 5.7866
 Frc consts  --     0.3854                 0.3631                 0.4863
 IR Inten    --    18.5660                 5.6511                12.5733
 Raman Activ --     4.4851                 2.4555                 1.1544

                    28                     29                     30
                     A                      A                      A
 Frequencies --   395.9656               418.7993               423.4047
 Red. masses --     4.9608                 4.7765                 6.1574
 Frc consts  --     0.4583                 0.4936                 0.6504
 IR Inten    --    14.7477                 7.5228                 2.1274
 Raman Activ --     2.5605                 7.8909                 3.1680

                    31                     32                     33
                     A                      A                      A
 Frequencies --   437.3050               488.7067               491.8889
 Red. masses --     4.3266                 3.7426                 5.1026
 Frc consts  --     0.4875                 0.5266                 0.7274
 IR Inten    --     3.5478                13.1187                14.4103
 Raman Activ --     1.4030                 4.1106                 0.6881

                    34                     35                     36
                     A                      A                      A
 Frequencies --   502.5476               523.9782               568.3356
 Red. masses --     3.6257                 2.7318                 3.4867
 Frc consts  --     0.5395                 0.4419                 0.6636
 IR Inten    --     8.9279                 6.4886                 9.4741
 Raman Activ --     2.9302                 3.1939                 1.8563

                    37                     38                     39
                     A                      A                      A
 Frequencies --   581.9663               594.9286               602.8595
 Red. masses --     2.5411                 3.4662                 2.6322
 Frc consts  --     0.5071                 0.7228                 0.5636
 IR Inten    --    37.7980                39.9697                19.1564
 Raman Activ --     1.0869                 0.4909                 0.9773

                    40                     41                     42
                     A                      A                      A
 Frequencies --   629.7905               646.9949               651.0012
 Red. masses --     1.9859                 1.9735                 1.4778
 Frc consts  --     0.4641                 0.4867                 0.3690
 IR Inten    --    19.9141                67.1414                92.3990
 Raman Activ --     0.7920                 1.3228                 1.5300

                    43                     44                     45
                     A                      A                      A
 Frequencies --   661.5426               696.9943               719.9803
 Red. masses --     1.1300                 5.5398                 1.1110
 Frc consts  --     0.2914                 1.5856                 0.3393
 IR Inten    --    73.6403                23.1597               181.8736
 Raman Activ --     1.3615                 0.3294                 4.3119

                    46                     47                     48
                     A                      A                      A
 Frequencies --   721.0478               742.0091               866.5182
 Red. masses --     1.0721                 1.1032                 1.8817
 Frc consts  --     0.3284                 0.3579                 0.8324
 IR Inten    --   103.6913               136.7254                 4.8889
 Raman Activ --     2.3400                 2.3144                 1.1664

                    49                     50                     51
                     A                      A                      A
 Frequencies --   869.2395               923.3971               949.2502
 Red. masses --     1.7072                 6.3189                 5.8119
 Frc consts  --     0.7600                 3.1744                 3.0855
 IR Inten    --     5.4677               147.3326                73.8263
 Raman Activ --     0.8790                 3.4255                 0.4569

                    52                     53                     54
                     A                      A                      A
 Frequencies --   962.4000               979.8735               988.5741
 Red. masses --     4.5732                 4.1760                 5.3040
 Frc consts  --     2.4957                 2.3624                 3.0540
 IR Inten    --    89.1390               128.6425                50.5681
 Raman Activ --     0.7050                 3.7076                 1.0977

                    55                     56                     57
                     A                      A                      A
 Frequencies --   997.0997              1005.1444              1018.0358
 Red. masses --     7.2762                 5.1287                 6.0003
 Frc consts  --     4.2622                 3.0529                 3.6640
 IR Inten    --    36.1748               137.2295               119.3498
 Raman Activ --     2.5014                 2.0947                 3.0486

                    58                     59                     60
                     A                      A                      A
 Frequencies --  1039.3623              1054.0226              1063.0380
 Red. masses --     5.4346                 5.0858                 4.4417
 Frc consts  --     3.4590                 3.3290                 2.9573
 IR Inten    --   420.5105                80.2519                18.8863
 Raman Activ --     1.6759                 7.6450                13.5864

                    61                     62                     63
                     A                      A                      A
 Frequencies --  1066.0109              1075.0398              1079.3341
 Red. masses --     4.5888                 5.2831                 5.6507
 Frc consts  --     3.0724                 3.5974                 3.8785
 IR Inten    --   133.7723                34.2863                69.0805
 Raman Activ --     3.1422                 3.8815                15.8151

                    64                     65                     66
                     A                      A                      A
 Frequencies --  1098.3576              1105.5823              1108.5723
 Red. masses --     2.5183                 2.4142                 2.5181
 Frc consts  --     1.7900                 1.7386                 1.8233
 IR Inten    --    75.8195                38.5545                85.0206
 Raman Activ --     8.0923                 5.1309                 6.4028

                    67                     68                     69
                     A                      A                      A
 Frequencies --  1119.7896              1126.1443              1128.7159
 Red. masses --     3.3289                 2.4989                 2.6712
 Frc consts  --     2.4594                 1.8672                 2.0050
 IR Inten    --    11.1519                63.8054                42.2715
 Raman Activ --     3.8050                 2.0911                 8.3671

                    70                     71                     72
                     A                      A                      A
 Frequencies --  1144.6315              1149.7812              1152.2890
 Red. masses --     1.8439                 1.8671                 2.0905
 Frc consts  --     1.4234                 1.4543                 1.6354
 IR Inten    --    10.1055                34.7926                29.8041
 Raman Activ --     2.5398                 3.6210                 3.6289

                    73                     74                     75
                     A                      A                      A
 Frequencies --  1164.6998              1170.0591              1177.3902
 Red. masses --     1.7954                 1.8213                 1.7686
 Frc consts  --     1.4349                 1.4691                 1.4445
 IR Inten    --     6.1579                15.8329                13.7303
 Raman Activ --     4.8276                 4.1225                 0.9657

                    76                     77                     78
                     A                      A                      A
 Frequencies --  1203.1921              1207.7695              1222.1846
 Red. masses --     1.3918                 1.4323                 1.2806
 Frc consts  --     1.1871                 1.2310                 1.1270
 IR Inten    --     4.0687                 2.8667                20.0520
 Raman Activ --     2.7107                 2.9643                 1.2945

                    79                     80                     81
                     A                      A                      A
 Frequencies --  1225.2363              1244.0061              1256.4302
 Red. masses --     1.2562                 1.2531                 1.3315
 Frc consts  --     1.1111                 1.1426                 1.2385
 IR Inten    --     8.5031                 3.8373                 6.7673
 Raman Activ --     2.2281                 1.1990                 5.1017

                    82                     83                     84
                     A                      A                      A
 Frequencies --  1259.7635              1264.3369              1275.7730
 Red. masses --     1.2197                 1.2979                 1.2389
 Frc consts  --     1.1404                 1.2224                 1.1880
 IR Inten    --    14.4028                 3.3894                59.6409
 Raman Activ --     6.1960                 1.5487                 4.0640

                    85                     86                     87
                     A                      A                      A
 Frequencies --  1282.2590              1286.4092              1290.6740
 Red. masses --     1.2962                 1.3347                 1.2302
 Frc consts  --     1.2556                 1.3014                 1.2074
 IR Inten    --     8.6157                22.5085                14.4659
 Raman Activ --     2.4387                 1.0383                 5.2857

                    88                     89                     90
                     A                      A                      A
 Frequencies --  1295.3053              1317.6991              1328.7136
 Red. masses --     1.2828                 1.1976                 1.2869
 Frc consts  --     1.2681                 1.2251                 1.3386
 IR Inten    --    42.1190                14.2734                51.0510
 Raman Activ --     2.8184                 3.4706                 1.9983

                    91                     92                     93
                     A                      A                      A
 Frequencies --  1331.0900              1338.3114              1354.6120
 Red. masses --     1.2878                 1.3739                 1.3885
 Frc consts  --     1.3444                 1.4499                 1.5012
 IR Inten    --    15.7209                45.9648                 6.6981
 Raman Activ --     2.9523                 1.5395                11.8408

                    94                     95                     96
                     A                      A                      A
 Frequencies --  1364.0998              1365.1036              1373.0165
 Red. masses --     1.1989                 1.5635                 1.4535
 Frc consts  --     1.3144                 1.7167                 1.6145
 IR Inten    --    14.6288                11.8768                23.7684
 Raman Activ --     2.5519                 6.6003                 4.0999

                    97                     98                     99
                     A                      A                      A
 Frequencies --  1380.2242              1388.5556              1390.9600
 Red. masses --     1.3797                 1.3616                 1.4323
 Frc consts  --     1.5486                 1.5468                 1.6327
 IR Inten    --     3.2045                20.9103                 7.4100
 Raman Activ --     2.5726                 4.0200                 4.9423

                   100                    101                    102
                     A                      A                      A
 Frequencies --  1395.6823              1408.5563              1470.2859
 Red. masses --     1.4558                 1.3149                 1.3336
 Frc consts  --     1.6708                 1.5371                 1.6986
 IR Inten    --     3.0290                 3.9826                39.9775
 Raman Activ --     2.2430                 3.6132                 3.3373

                   103                    104                    105
                     A                      A                      A
 Frequencies --  1473.1864              1476.5794              1479.1300
 Red. masses --     1.0898                 1.0772                 1.2896
 Frc consts  --     1.3935                 1.3837                 1.6624
 IR Inten    --     3.8776                 3.5079                 5.0220
 Raman Activ --     3.4795                 4.9860                 1.0688

                   106                    107                    108
                     A                      A                      A
 Frequencies --  1491.5956              1492.9242              3249.7486
 Red. masses --     1.3631                 1.3121                 1.0710
 Frc consts  --     1.7868                 1.7231                 6.6642
 IR Inten    --    56.7015                32.4194               657.6027
 Raman Activ --     1.5227                 1.5312               111.4272

                   109                    110                    111
                     A                      A                      A
 Frequencies --  3254.1667              3256.5445              3266.3238
 Red. masses --     1.0619                 1.0725                 1.0688
 Frc consts  --     6.6254                 6.7014                 6.7186
 IR Inten    --    68.1400               195.2344                65.6086
 Raman Activ --    53.7470                92.4070               104.6143

                   112                    113                    114
                     A                      A                      A
 Frequencies --  3267.9823              3272.0512              3273.5482
 Red. masses --     1.0755                 1.0830                 1.0813
 Frc consts  --     6.7675                 6.8317                 6.8271
 IR Inten    --     5.4388                13.6757                54.3790
 Raman Activ --   156.4574                87.6978                77.3889

                   115                    116                    117
                     A                      A                      A
 Frequencies --  3274.9484              3281.5863              3285.8321
 Red. masses --     1.0812                 1.0830                 1.0863
 Frc consts  --     6.8321                 6.8715                 6.9103
 IR Inten    --    48.9339                 5.9959                24.5738
 Raman Activ --    42.8945               145.3230                11.6934

                   118                    119                    120
                     A                      A                      A
 Frequencies --  3288.2802              3296.8436              3301.7917
 Red. masses --     1.0856                 1.0877                 1.0865
 Frc consts  --     6.9158                 6.9656                 6.9786
 IR Inten    --    25.8082                39.4987                87.5731
 Raman Activ --    36.3183                 5.5606                13.4550

                   121                    122                    123
                     A                      A                      A
 Frequencies --  3314.3917              3324.3618              3357.0378
 Red. masses --     1.1074                 1.1087                 1.0661
 Frc consts  --     7.1676                 7.2189                 7.0789
 IR Inten    --    48.8361                36.9170                40.6872
 Raman Activ --    42.5104                54.3057                83.4153

                   124                    125                    126
                     A                      A                      A
 Frequencies --  3363.5023              3366.3444              3371.8303
 Red. masses --     1.0656                 1.0662                 1.0667
 Frc consts  --     7.1027                 7.1188                 7.1450
 IR Inten    --   136.7239                63.5770                32.3058
 Raman Activ --   143.0772               153.5298               145.0941

                   127                    128                    129
                     A                      A                      A
 Frequencies --  3375.2160              3889.0692              3889.8475
 Red. masses --     1.0672                 1.0677                 1.0676
 Frc consts  --     7.1631                 9.5150                 9.5173
 IR Inten    --    59.1756                85.5052                63.1195
 Raman Activ --   134.7951                79.9320               127.1593

 - Thermochemistry -
 -------------------
 Temperature   298.150 Kelvin.  Pressure   1.00000 Atm.
 Atom     1 has atomic number  8 and mass  15.99491

 Molecular mass:   342.11621 amu.
 Principal axes and moments of inertia in atomic units:
                           1         2         3
     Eigenvalues --  4526.11825********************
           X            0.99996   0.00928   0.00038
           Y           -0.00928   0.99995   0.00408
           Z           -0.00035  -0.00408   0.99999
 This molecule is an asymmetric top.
 Rotational symmetry number  1.
 Warning -- assumption of classical behavior for rotation
           may cause significant error
 Rotational temperatures (Kelvin)      0.01914     0.00717     0.00537
 Rotational constants (GHZ):           0.39874     0.14936     0.11191
    7 imaginary frequencies ignored.
 Zero-point vibrational energy     970607.1 (Joules/Mol)
                                  231.98066 (Kcal/Mol)
 Warning -- explicit consideration of  32 degrees of freedom as
           vibrations may cause significant error
 Vibrational temperatures:     36.93    74.82    87.85   107.08   142.76
          (Kelvin)            230.13   251.05   267.62   304.62   328.85
                              381.50   391.47   414.14   433.66   444.07
                              464.30   473.73   490.48   513.28   543.38
                              569.71   602.56   609.18   629.18   703.14
                              707.72   723.05   753.89   817.71   837.32
                              855.97   867.38   906.13   930.88   936.64
                              951.81  1002.82  1035.89  1037.43  1067.58
                             1246.72  1250.64  1328.56  1365.76  1384.68
                             1409.82  1422.34  1434.60  1446.18  1464.72
                             1495.41  1516.50  1529.47  1533.75  1546.74
                             1552.92  1580.29  1590.68  1594.99  1611.13
                             1620.27  1623.97  1646.87  1654.28  1657.88
                             1675.74  1683.45  1694.00  1731.12  1737.71
                             1758.45  1762.84  1789.85  1807.72  1812.52
                             1819.10  1835.55  1844.88  1850.85  1856.99
                             1863.65  1895.87  1911.72  1915.14  1925.53
                             1948.98  1962.63  1964.08  1975.46  1985.83
                             1997.82  2001.28  2008.07  2026.60  2115.41
                             2119.58  2124.47  2128.14  2146.07  2147.98
                             4675.66  4682.01  4685.44  4699.51  4701.89
                             4707.75  4709.90  4711.91  4721.46  4727.57
                             4731.10  4743.42  4750.54  4768.66  4783.01
                             4830.02  4839.32  4843.41  4851.31  4856.18
                             5595.50  5596.62

 Zero-point correction=                           0.369685 (Hartree/Particle)
 Thermal correction to Energy=                    0.388348
 Thermal correction to Enthalpy=                  0.389292
 Thermal correction to Gibbs Free Energy=         0.322958
 Sum of electronic and zero-point Energies=          -1297.607249
 Sum of electronic and thermal Energies=             -1297.588586
 Sum of electronic and thermal Enthalpies=           -1297.587641
 Sum of electronic and thermal Free Energies=        -1297.653976

                     E (Thermal)             CV                S
                      KCal/Mol        Cal/Mol-Kelvin    Cal/Mol-Kelvin
 Total                  243.692             76.786            139.613
 Electronic               0.000              0.000              0.000
 Translational            0.889              2.981             43.384
 Rotational               0.889              2.981             35.132
 Vibrational            241.915             70.824             61.096
 Vibration     1          0.593              1.985              6.139
 Vibration     2          0.596              1.977              4.740
 Vibration     3          0.597              1.973              4.423
 Vibration     4          0.599              1.966              4.033
 Vibration     5          0.604              1.950              3.470
 Vibration     6          0.622              1.891              2.550
 Vibration     7          0.627              1.874              2.387
 Vibration     8          0.632              1.859              2.267
 Vibration     9          0.643              1.823              2.029
 Vibration    10          0.651              1.797              1.890
 Vibration    11          0.671              1.737              1.628
 Vibration    12          0.675              1.725              1.583
 Vibration    13          0.685              1.696              1.487
 Vibration    14          0.693              1.671              1.409
 Vibration    15          0.698              1.657              1.370
 Vibration    16          0.708              1.630              1.296
 Vibration    17          0.712              1.617              1.264
 Vibration    18          0.720              1.594              1.208
 Vibration    19          0.732              1.561              1.136
 Vibration    20          0.748              1.518              1.048
 Vibration    21          0.763              1.479              0.978
 Vibration    22          0.782              1.429              0.896
 Vibration    23          0.786              1.419              0.880
 Vibration    24          0.798              1.389              0.835
 Vibration    25          0.845              1.275              0.687
 Vibration    26          0.848              1.268              0.679
 Vibration    27          0.858              1.244              0.652
 Vibration    28          0.879              1.197              0.601
 Vibration    29          0.924              1.100              0.507
 Vibration    30          0.939              1.070              0.482
 Vibration    31          0.953              1.043              0.458
 Vibration    32          0.961              1.026              0.445

 Normal termination of Gaussian 09 at Fri Mar 25 21:02:57 2016.
