 Gaussian 09, Revision B.01,
 Gaussian 09:  EM64L-G09RevB.01 12-Aug-2010

 -------------------------------------------------
 # freq=raman b3lyp/6-31+g(2d,p) geom=connectivity
 -------------------------------------------------

 -----------------
 473 5169/5169.com
 -----------------
 Symbolic Z-matrix:
 Charge =  0 Multiplicity = 1

                         Standard orientation:
 ---------------------------------------------------------------------
 Center     Atomic      Atomic             Coordinates (Angstroms)
 Number     Number       Type             X           Y           Z
 ---------------------------------------------------------------------
      1          8           0       -4.934763   -0.450943    0.371674
      2          6           0       -3.692761   -0.087635   -0.247816
      3          6           0       -3.264567    1.284412    0.246022
      4          8           0       -4.183242    2.324666   -0.118137
      5          1           0       -5.059626    2.063615    0.285731
      6          6           0       -1.834451    1.576894   -0.179446
      7          8           0       -1.319651    2.742651    0.481185
      8          1           0       -0.351350    2.899378    0.286635
      9          6           0       -3.030564   -2.556836   -0.279837
     10          8           0       -4.153305   -3.206042    0.333963
     11          1           0       -3.901874   -4.169206    0.243030
     12          6           0       -2.722447   -1.156828    0.227631
     13          8           0       -1.378879   -0.878397   -0.191127
     14          6           0       -0.913874    0.425660    0.188929
     15          8           0        0.245088    0.520094   -0.652300
     16          6           0        1.491170    0.196802   -0.017751
     17          6           0        2.007093   -1.191416   -0.359376
     18          8           0        1.025986   -2.202324   -0.085544
     19          1           0        0.130553   -1.950608   -0.452368
     20          6           0        3.345916   -1.524287    0.279789
     21          8           0        3.874559   -2.663565   -0.414524
     22          1           0        4.699341   -3.074070   -0.024712
     23          6           0        2.290503    2.599436    0.026240
     24          8           0        1.144264    3.359705   -0.381780
     25          1           0        1.326968    4.341638   -0.332975
     26          6           0        2.611089    1.164777   -0.361974
     27          8           0        3.845503    0.886666    0.314152
     28          6           0        4.327858   -0.414001   -0.053720
     29          8           0        5.435863   -0.546210    0.847705
     30          1           0        6.241408   -0.690013    0.345691
     31          1           0        3.137195    3.173486   -0.287575
     32          1           0        2.267477    2.604756    1.095979
     33          1           0        2.782710    1.125857   -1.417404
     34          1           0        1.337041    0.237417    1.040311
     35          1           0        2.166642   -1.202250   -1.417358
     36          1           0        3.265271   -1.692831    1.333349
     37          1           0        4.642915   -0.448806   -1.075692
     38          1           0       -5.570823   -0.694053   -0.305028
     39          1           0       -2.165494   -3.166716   -0.122994
     40          1           0       -3.213544   -2.497674   -1.332414
     41          1           0       -2.744081   -1.175538    1.297248
     42          1           0       -3.781208   -0.100220   -1.314080
     43          1           0       -3.263280    1.238942    1.315055
     44          1           0       -1.804746    1.728471   -1.238238
     45          1           0       -0.642660    0.456156    1.223537
 ---------------------------------------------------------------------

 SCF Done:  E(RB3LYP) =  -1297.99266833     A.U. after   13 cycles

 The electronic state is 1-A.
 Alpha  occ. eigenvalues --  -19.18669 -19.18000 -19.17650 -19.17582 -19.17498
 Alpha  occ. eigenvalues --  -19.16372 -19.16219 -19.16136 -19.15189 -19.13350
 Alpha  occ. eigenvalues --  -19.12866 -10.30301 -10.30035 -10.25920 -10.25147
 Alpha  occ. eigenvalues --  -10.25066 -10.24947 -10.24715 -10.24686 -10.24066
 Alpha  occ. eigenvalues --  -10.23944 -10.23929 -10.23915  -1.09744  -1.09180
 Alpha  occ. eigenvalues --   -1.05288  -1.04926  -1.03407  -1.03319  -1.02790
 Alpha  occ. eigenvalues --   -1.02318  -1.01774  -1.00125  -0.99618  -0.81910
 Alpha  occ. eigenvalues --   -0.79970  -0.79241  -0.77941  -0.71655  -0.69572
 Alpha  occ. eigenvalues --   -0.67105  -0.64825  -0.63123  -0.62382  -0.61336
 Alpha  occ. eigenvalues --   -0.59786  -0.56380  -0.55646  -0.55045  -0.54487
 Alpha  occ. eigenvalues --   -0.53926  -0.53082  -0.52546  -0.52022  -0.50738
 Alpha  occ. eigenvalues --   -0.50503  -0.49634  -0.49195  -0.48400  -0.46632
 Alpha  occ. eigenvalues --   -0.45804  -0.44827  -0.44191  -0.43452  -0.42826
 Alpha  occ. eigenvalues --   -0.42432  -0.41715  -0.40736  -0.39732  -0.39139
 Alpha  occ. eigenvalues --   -0.38771  -0.37828  -0.36880  -0.36314  -0.35971
 Alpha  occ. eigenvalues --   -0.35186  -0.34930  -0.34515  -0.33291  -0.32904
 Alpha  occ. eigenvalues --   -0.32358  -0.31286  -0.30665  -0.30223  -0.29458
 Alpha  occ. eigenvalues --   -0.28936  -0.28646  -0.28368  -0.27500  -0.26397
 Alpha  occ. eigenvalues --   -0.26039
 Alpha virt. eigenvalues --   -0.02017  -0.01766  -0.01459   0.00085   0.00372
 Alpha virt. eigenvalues --    0.00980   0.01929   0.02108   0.02990   0.03502
 Alpha virt. eigenvalues --    0.03747   0.04354   0.04902   0.05273   0.05587

 Mulliken atomic charges:
              1
     1  O   -0.537536
     2  C    0.079522
     3  C    0.090866
     4  O   -0.551930
     5  H    0.340508
     6  C   -0.018906
     7  O   -0.581500
     8  H    0.418865
     9  C   -0.262214
    10  O   -0.504097
    11  H    0.332573
    12  C    0.128585
    13  O   -0.253990
    14  C    0.287897
    15  O   -0.190736
    16  C    0.219271
    17  C    0.009871
    18  O   -0.561892
    19  H    0.368801
    20  C    0.126018
    21  O   -0.544535
    22  H    0.337841
    23  C   -0.311193
    24  O   -0.585537
    25  H    0.365606
    26  C   -0.029036
    27  O   -0.228501
    28  C    0.093379
    29  O   -0.529001
    30  H    0.328750
    31  H    0.141298
    32  H    0.155950
    33  H    0.120587
    34  H    0.103876
    35  H    0.119089
    36  H    0.139108
    37  H    0.141418
    38  H    0.336537
    39  H    0.141528
    40  H    0.137356
    41  H    0.118542
    42  H    0.120161
    43  H    0.121765
    44  H    0.133830
    45  H    0.131206
 Sum of Mulliken atomic charges =   0.00000

 Dipole moment (field-independent basis, Debye):
    X=              3.0390    Y=             -0.6048    Z=             -1.8987  Tot=              3.6341
 Quadrupole moment (field-independent basis, Debye-Ang):
   XX=           -117.3301   YY=           -133.7288   ZZ=           -139.8437
   XY=             11.7319   XZ=              0.4315   YZ=             -0.0392

  Exact polarizability: 232.972  -2.585 198.024   0.212   0.752 143.983
 Approx polarizability: 273.565  -2.948 257.176  -0.489   0.854 240.306

 ******    6 imaginary frequencies (negative Signs) ******

                     1                      2                      3
                     A                      A                      A
 Frequencies --  -314.6288              -273.0716              -243.5890
 Red. masses --     1.6849                 1.4100                 1.1682
 Frc consts  --     0.0983                 0.0619                 0.0408
 IR Inten    --     2.3124                60.2656               104.3840
 Raman Activ --     0.0136                 0.4879                 0.9815

                     4                      5                      6
                     A                      A                      A
 Frequencies --  -227.9083               -65.4533               -49.6215
 Red. masses --     1.3879                 6.5408                 5.9314
 Frc consts  --     0.0425                 0.0165                 0.0086
 IR Inten    --    48.1503                 1.3939                 1.4055
 Raman Activ --     0.5063                 0.0478                 0.0211

                     7                      8                      9
                     A                      A                      A
 Frequencies --     5.0620                31.1016                59.5208
 Red. masses --     6.8311                 6.4965                 6.6420
 Frc consts  --     0.0001                 0.0037                 0.0139
 IR Inten    --     0.3459                 0.4712                 0.3553
 Raman Activ --     0.0326                 0.0486                 0.0412

                    10                     11                     12
                     A                      A                      A
 Frequencies --    79.6879                99.9543               116.7495
 Red. masses --     6.1212                 6.4931                 5.9881
 Frc consts  --     0.0229                 0.0382                 0.0481
 IR Inten    --     2.8446                 1.4078                 1.3966
 Raman Activ --     0.2330                 0.1669                 0.0706

                    13                     14                     15
                     A                      A                      A
 Frequencies --   157.2588               182.5500               185.4264
 Red. masses --     6.3072                 6.2947                 6.5573
 Frc consts  --     0.0919                 0.1236                 0.1328
 IR Inten    --     3.5433                 3.0349                 0.0036
 Raman Activ --     0.4252                 0.5442                 0.3031

                    16                     17                     18
                     A                      A                      A
 Frequencies --   210.7693               227.2416               264.2931
 Red. masses --     7.1755                 6.0816                 4.5965
 Frc consts  --     0.1878                 0.1850                 0.1892
 IR Inten    --     0.1934                 1.8293                15.7801
 Raman Activ --     2.6391                 0.4772                 0.3971

                    19                     20                     21
                     A                      A                      A
 Frequencies --   274.3266               285.5671               307.3655
 Red. masses --     5.0147                 5.7432                 5.5725
 Frc consts  --     0.2223                 0.2759                 0.3102
 IR Inten    --     1.4322                 1.8529                 2.6372
 Raman Activ --     0.1164                 0.1458                 0.1178

                    22                     23                     24
                     A                      A                      A
 Frequencies --   313.3903               323.3893               328.8653
 Red. masses --     6.6060                 4.9445                 6.7200
 Frc consts  --     0.3823                 0.3047                 0.4282
 IR Inten    --     3.8382                 3.8281                 0.7249
 Raman Activ --     2.8160                 0.8234                 2.0078

                    25                     26                     27
                     A                      A                      A
 Frequencies --   346.4546               364.4194               382.9338
 Red. masses --     6.8371                 4.4326                 6.4352
 Frc consts  --     0.4835                 0.3468                 0.5560
 IR Inten    --    12.5295                 2.4756                 1.3522
 Raman Activ --     4.0314                 1.6168                 0.6218

                    28                     29                     30
                     A                      A                      A
 Frequencies --   408.7635               419.7328               434.6293
 Red. masses --     4.1628                 6.3426                 5.7258
 Frc consts  --     0.4098                 0.6584                 0.6373
 IR Inten    --    16.8739                 1.8935                 1.8179
 Raman Activ --     2.4575                 6.4669                 2.5533

                    31                     32                     33
                     A                      A                      A
 Frequencies --   441.4336               479.3616               493.8126
 Red. masses --     4.4756                 4.7404                 4.1137
 Frc consts  --     0.5138                 0.6418                 0.5910
 IR Inten    --     2.0239                 3.5596                12.5918
 Raman Activ --     1.8457                 3.7413                 0.7660

                    34                     35                     36
                     A                      A                      A
 Frequencies --   511.9020               532.6228               576.5114
 Red. masses --     3.7993                 3.0252                 4.0726
 Frc consts  --     0.5866                 0.5056                 0.7975
 IR Inten    --    19.1857                 6.7109                10.8642
 Raman Activ --     2.2829                 3.3127                 1.3643

                    37                     38                     39
                     A                      A                      A
 Frequencies --   590.6554               609.0128               634.9660
 Red. masses --     2.7317                 6.6727                 5.2647
 Frc consts  --     0.5615                 1.4581                 1.2506
 IR Inten    --    32.5320                 7.9661                11.1017
 Raman Activ --     0.2862                 0.5396                 0.2570

                    40                     41                     42
                     A                      A                      A
 Frequencies --   645.1384               688.0971               698.3366
 Red. masses --     4.1710                 1.0976                 1.8154
 Frc consts  --     1.0228                 0.3062                 0.5216
 IR Inten    --    51.9941                66.6314               105.9973
 Raman Activ --     0.7893                 1.7122                 1.2297

                    43                     44                     45
                     A                      A                      A
 Frequencies --   700.6346               726.1690               730.1803
 Red. masses --     1.6802                 1.0830                 1.0790
 Frc consts  --     0.4860                 0.3365                 0.3389
 IR Inten    --    35.3623                91.0666               183.3784
 Raman Activ --     2.4484                 1.4447                 4.0992

                    46                     47                     48
                     A                      A                      A
 Frequencies --   742.6315               830.4095               851.5221
 Red. masses --     1.0832                 1.2265                 1.7614
 Frc consts  --     0.3520                 0.4983                 0.7525
 IR Inten    --   100.3589                54.9902                 3.6387
 Raman Activ --     1.6287                 0.2532                 0.6568

                    49                     50                     51
                     A                      A                      A
 Frequencies --   868.5216               922.5204               951.0600
 Red. masses --     1.4425                 6.2822                 5.4519
 Frc consts  --     0.6411                 3.1500                 2.9054
 IR Inten    --    29.1074               130.0191                50.1678
 Raman Activ --     0.6358                 3.2225                 0.9758

                    52                     53                     54
                     A                      A                      A
 Frequencies --   979.4982               981.0865               986.9779
 Red. masses --     5.7731                 6.6814                 5.3009
 Frc consts  --     3.2634                 3.7891                 3.0424
 IR Inten    --    65.6440               259.3595               113.6367
 Raman Activ --     3.9372                 1.0076                 0.9551

                    55                     56                     57
                     A                      A                      A
 Frequencies --   998.9604              1005.9823              1013.2755
 Red. masses --     5.3394                 5.9588                 5.9632
 Frc consts  --     3.1393                 3.5530                 3.6073
 IR Inten    --   196.4150                44.0089               104.6288
 Raman Activ --     4.1136                 1.9687                 3.7417

                    58                     59                     60
                     A                      A                      A
 Frequencies --  1034.9250              1050.1172              1059.3452
 Red. masses --     5.4810                 4.5875                 4.7213
 Frc consts  --     3.4588                 2.9806                 3.1217
 IR Inten    --   306.2415                74.4664                40.5216
 Raman Activ --     2.6487                 4.3236                 7.7512

                    61                     62                     63
                     A                      A                      A
 Frequencies --  1066.0692              1071.8015              1077.6602
 Red. masses --     3.9180                 3.6227                 4.2776
 Frc consts  --     2.6235                 2.4519                 2.9270
 IR Inten    --    64.9269                14.2924                71.0651
 Raman Activ --     6.6396                10.6414                18.3099

                    64                     65                     66
                     A                      A                      A
 Frequencies --  1092.8920              1103.0260              1105.2841
 Red. masses --     2.1293                 2.4613                 3.1992
 Frc consts  --     1.4985                 1.7644                 2.3027
 IR Inten    --    81.2632                18.4174                12.9184
 Raman Activ --     1.4307                 8.7982                 4.5551

                    67                     68                     69
                     A                      A                      A
 Frequencies --  1110.8065              1124.5433              1131.8764
 Red. masses --     3.1659                 3.0624                 2.4020
 Frc consts  --     2.3016                 2.2817                 1.8131
 IR Inten    --    42.6534                14.0623                 8.6604
 Raman Activ --     2.9610                 2.6048                 3.6623

                    70                     71                     72
                     A                      A                      A
 Frequencies --  1136.1375              1146.5704              1150.4989
 Red. masses --     2.3928                 1.7483                 1.8076
 Frc consts  --     1.8198                 1.3542                 1.4097
 IR Inten    --    55.9394                 3.5849                10.3416
 Raman Activ --     6.1460                 3.0193                 7.9595

                    73                     74                     75
                     A                      A                      A
 Frequencies --  1164.7753              1171.4603              1181.8592
 Red. masses --     1.8539                 1.8136                 2.0396
 Frc consts  --     1.4819                 1.4664                 1.6785
 IR Inten    --    24.2424                 7.7149                 7.7165
 Raman Activ --     2.0947                 1.9296                 1.3363

                    76                     77                     78
                     A                      A                      A
 Frequencies --  1191.8089              1199.6392              1223.8370
 Red. masses --     1.3512                 1.4289                 1.2549
 Frc consts  --     1.1308                 1.2116                 1.1074
 IR Inten    --    11.4292                18.2223                12.2165
 Raman Activ --     0.3149                 2.9206                 1.2677

                    79                     80                     81
                     A                      A                      A
 Frequencies --  1231.3490              1235.7704              1238.9655
 Red. masses --     1.3195                 1.1476                 1.3039
 Frc consts  --     1.1788                 1.0326                 1.1793
 IR Inten    --     8.8640                 5.4014                21.4864
 Raman Activ --     1.0312                 1.2078                 3.4975

                    82                     83                     84
                     A                      A                      A
 Frequencies --  1260.2643              1278.7591              1279.8037
 Red. masses --     1.2157                 1.3037                 1.3626
 Frc consts  --     1.1376                 1.2560                 1.3150
 IR Inten    --     4.3152                25.2451                30.5222
 Raman Activ --     0.7404                 4.1320                 2.8322

                    85                     86                     87
                     A                      A                      A
 Frequencies --  1297.4860              1304.2742              1304.6607
 Red. masses --     1.2665                 1.3234                 1.2821
 Frc consts  --     1.2562                 1.3264                 1.2858
 IR Inten    --     9.2084                 0.6482                23.5151
 Raman Activ --     0.9141                 5.5977                 2.8983

                    88                     89                     90
                     A                      A                      A
 Frequencies --  1307.9541              1312.6686              1323.6115
 Red. masses --     1.3649                 1.2996                 1.2354
 Frc consts  --     1.3757                 1.3194                 1.2752
 IR Inten    --    10.8559                49.7601                 3.3620
 Raman Activ --     6.1884                 1.8084                11.1097

                    91                     92                     93
                     A                      A                      A
 Frequencies --  1340.3888              1347.3952              1355.3063
 Red. masses --     1.3032                 1.2588                 1.1973
 Frc consts  --     1.3795                 1.3464                 1.2958
 IR Inten    --    18.2641                41.6320                43.0010
 Raman Activ --     3.2212                 2.1748                 1.4317

                    94                     95                     96
                     A                      A                      A
 Frequencies --  1362.1381              1366.6390              1370.7406
 Red. masses --     1.1507                 1.3984                 1.5313
 Frc consts  --     1.2579                 1.5388                 1.6952
 IR Inten    --    19.4123                 1.2583                17.4511
 Raman Activ --     0.8860                 7.0872                 7.6938

                    97                     98                     99
                     A                      A                      A
 Frequencies --  1377.3602              1381.2612              1384.0592
 Red. masses --     1.4815                 1.4720                 1.6153
 Frc consts  --     1.6559                 1.6547                 1.8231
 IR Inten    --    30.2183                11.4762                14.0052
 Raman Activ --     6.8063                 3.5209                 2.7850

                   100                    101                    102
                     A                      A                      A
 Frequencies --  1404.2091              1445.4493              1459.0633
 Red. masses --     1.4288                 1.2910                 1.3517
 Frc consts  --     1.6600                 1.5892                 1.6955
 IR Inten    --     1.7684                27.8353                25.4631
 Raman Activ --     7.2000                 1.4405                 0.7888

                   103                    104                    105
                     A                      A                      A
 Frequencies --  1463.9474              1469.1330              1470.7634
 Red. masses --     1.1116                 1.3443                 1.0734
 Frc consts  --     1.4036                 1.7095                 1.3681
 IR Inten    --     2.7888                32.6756                 3.3237
 Raman Activ --     3.7295                 2.8712                 4.6284

                   106                    107                    108
                     A                      A                      A
 Frequencies --  1483.7242              1498.3588              3236.4778
 Red. masses --     1.3152                 1.3054                 1.0686
 Frc consts  --     1.7058                 1.7267                 6.5951
 IR Inten    --    42.1748                22.3018               867.1878
 Raman Activ --     1.7019                 0.7687               127.6473

                   109                    110                    111
                     A                      A                      A
 Frequencies --  3254.4698              3257.0137              3265.2903
 Red. masses --     1.0571                 1.0597                 1.0810
 Frc consts  --     6.5966                 6.6230                 6.7911
 IR Inten    --    31.4536                52.9446                24.9590
 Raman Activ --    89.1680               202.0767                86.7587

                   112                    113                    114
                     A                      A                      A
 Frequencies --  3267.1198              3271.4978              3280.3196
 Red. masses --     1.0825                 1.0823                 1.0830
 Frc consts  --     6.8077                 6.8251                 6.8663
 IR Inten    --     6.0989                17.7408                15.3997
 Raman Activ --    37.5834                49.0809                91.2096

                   115                    116                    117
                     A                      A                      A
 Frequencies --  3283.2990              3289.0864              3296.4390
 Red. masses --     1.0864                 1.0844                 1.0866
 Frc consts  --     6.9000                 6.9118                 6.9568
 IR Inten    --    22.9699                 2.2516                 1.3197
 Raman Activ --    45.6177                32.6837                32.2759

                   118                    119                    120
                     A                      A                      A
 Frequencies --  3297.7022              3303.6496              3311.9308
 Red. masses --     1.0871                 1.0880                 1.0913
 Frc consts  --     6.9655                 6.9960                 7.0529
 IR Inten    --    14.9184                64.5009                11.4005
 Raman Activ --   115.6910                 7.0711                20.0689

                   121                    122                    123
                     A                      A                      A
 Frequencies --  3312.7303              3314.1717              3324.4123
 Red. masses --     1.1046                 1.1003                 1.0679
 Frc consts  --     7.1418                 7.1207                 6.9534
 IR Inten    --    44.5307                88.0359               483.8780
 Raman Activ --    29.7586                37.0707               153.9334

                   124                    125                    126
                     A                      A                      A
 Frequencies --  3365.5314              3373.4276              3374.4236
 Red. masses --     1.0674                 1.0679                 1.0665
 Frc consts  --     7.1231                 7.1600                 7.1548
 IR Inten    --    43.3419                75.6541                29.3953
 Raman Activ --   191.9258               157.5111                75.5412

                   127                    128                    129
                     A                      A                      A
 Frequencies --  3374.8074              3890.4204              3890.5812
 Red. masses --     1.0661                 1.0675                 1.0674
 Frc consts  --     7.1537                 9.5193                 9.5197
 IR Inten    --    37.3932                97.2540                36.0382
 Raman Activ --   171.0139                49.6374               167.4033

 - Thermochemistry -
 -------------------
 Temperature   298.150 Kelvin.  Pressure   1.00000 Atm.
 Atom     1 has atomic number  8 and mass  15.99491

 Molecular mass:   342.11621 amu.
 Principal axes and moments of inertia in atomic units:
                           1         2         3
     Eigenvalues --  4434.82740********************
           X            0.99997   0.00707  -0.00023
           Y           -0.00707   0.99997   0.00247
           Z            0.00025  -0.00247   1.00000
 This molecule is an asymmetric top.
 Rotational symmetry number  1.
 Warning -- assumption of classical behavior for rotation
           may cause significant error
 Rotational temperatures (Kelvin)      0.01953     0.00709     0.00534
 Rotational constants (GHZ):           0.40695     0.14765     0.11129
    6 imaginary frequencies ignored.
 Zero-point vibrational energy     973676.3 (Joules/Mol)
                                  232.71423 (Kcal/Mol)
 Warning -- explicit consideration of  32 degrees of freedom as
           vibrations may cause significant error
 Vibrational temperatures:      7.28    44.75    85.64   114.65   143.81
          (Kelvin)            167.98   226.26   262.65   266.79   303.25
                              326.95   380.26   394.69   410.87   442.23
                              450.90   465.28   473.16   498.47   524.32
                              550.96   588.12   603.90   625.33   635.12
                              689.69   710.49   736.51   766.32   829.47
                              849.82   876.23   913.57   928.21   990.02
                             1004.75  1008.06  1044.79  1050.57  1068.48
                             1194.77  1225.15  1249.61  1327.30  1368.36
                             1409.28  1411.56  1420.04  1437.28  1447.38
                             1457.88  1489.02  1510.88  1524.16  1533.83
                             1542.08  1550.51  1572.43  1587.01  1590.26
                             1598.20  1617.97  1628.52  1634.65  1649.66
                             1655.31  1675.85  1685.47  1700.43  1714.74
                             1726.01  1760.83  1771.63  1778.00  1782.59
                             1813.24  1839.85  1841.35  1866.79  1876.56
                             1877.11  1881.85  1888.63  1904.38  1928.52
                             1938.60  1949.98  1959.81  1966.29  1972.19
                             1981.71  1987.32  1991.35  2020.34  2079.68
                             2099.26  2106.29  2113.75  2116.10  2134.75
                             2155.80  4656.56  4682.45  4686.11  4698.02
                             4700.65  4706.95  4719.64  4723.93  4732.26
                             4742.83  4744.65  4753.21  4765.12  4766.27
                             4768.35  4783.08  4842.24  4853.60  4855.04
                             4855.59  5597.44  5597.67

 Zero-point correction=                           0.370854 (Hartree/Particle)
 Thermal correction to Energy=                    0.390088
 Thermal correction to Enthalpy=                  0.391032
 Thermal correction to Gibbs Free Energy=         0.321570
 Sum of electronic and zero-point Energies=          -1297.621815
 Sum of electronic and thermal Energies=             -1297.602580
 Sum of electronic and thermal Enthalpies=           -1297.601636
 Sum of electronic and thermal Free Energies=        -1297.671098

                     E (Thermal)             CV                S
                      KCal/Mol        Cal/Mol-Kelvin    Cal/Mol-Kelvin
 Total                  244.784             77.927            146.196
 Electronic               0.000              0.000              0.000
 Translational            0.889              2.981             43.384
 Rotational               0.889              2.981             35.129
 Vibrational            243.007             71.965             67.683
 Vibration     1          0.593              1.987              9.364
 Vibration     2          0.594              1.983              5.758
 Vibration     3          0.597              1.974              4.473
 Vibration     4          0.600              1.963              3.899
 Vibration     5          0.604              1.949              3.455
 Vibration     6          0.608              1.935              3.153
 Vibration     7          0.621              1.895              2.583
 Vibration     8          0.630              1.864              2.302
 Vibration     9          0.632              1.860              2.273
 Vibration    10          0.643              1.824              2.037
 Vibration    11          0.651              1.799              1.901
 Vibration    12          0.671              1.738              1.633
 Vibration    13          0.677              1.721              1.569
 Vibration    14          0.683              1.700              1.500
 Vibration    15          0.697              1.660              1.376
 Vibration    16          0.701              1.648              1.344
 Vibration    17          0.708              1.629              1.293
 Vibration    18          0.712              1.618              1.266
 Vibration    19          0.724              1.582              1.182
 Vibration    20          0.738              1.546              1.103
 Vibration    21          0.752              1.507              1.028
 Vibration    22          0.773              1.451              0.931
 Vibration    23          0.782              1.427              0.893
 Vibration    24          0.795              1.395              0.844
 Vibration    25          0.801              1.380              0.822
 Vibration    26          0.836              1.296              0.712
 Vibration    27          0.849              1.264              0.674
 Vibration    28          0.867              1.224              0.629
 Vibration    29          0.888              1.178              0.581
 Vibration    30          0.933              1.082              0.492
 Vibration    31          0.948              1.052              0.466
 Vibration    32          0.968              1.013              0.434

 Normal termination of Gaussian 09 at Mon Mar 28 15:17:54 2016.
