 Gaussian 09, Revision B.01,
 Gaussian 09:  EM64L-G09RevB.01 12-Aug-2010

 -------------------------------------------------
 # freq=raman b3lyp/6-31+g(2d,p) geom=connectivity
 -------------------------------------------------

 -----------------
 320 9827/9827.com
 -----------------
 Symbolic Z-matrix:
 Charge =  0 Multiplicity = 1

                         Standard orientation:
 ---------------------------------------------------------------------
 Center     Atomic      Atomic             Coordinates (Angstroms)
 Number     Number       Type             X           Y           Z
 ---------------------------------------------------------------------
      1          8           0       -5.062033   -0.339380    0.216786
      2          6           0       -3.700000   -0.039627   -0.124081
      3          6           0       -3.126259    1.269331    0.394014
      4          8           0       -3.980388    2.381184    0.088256
      5          1           0       -4.910293    2.083585    0.304221
      6          6           0       -1.726211    1.554644   -0.122436
      7          8           0       -1.213634    2.803357    0.365450
      8          1           0       -0.285695    2.906475    0.007897
      9          6           0       -3.090018   -2.534166   -0.185816
     10          8           0       -4.304204   -3.121978    0.302594
     11          1           0       -4.158013   -4.101929    0.173702
     12          6           0       -2.736120   -1.137537    0.297941
     13          8           0       -1.493234   -0.889734   -0.374709
     14          6           0       -0.926931    0.300847    0.192626
     15          8           0        0.258905    0.477580   -0.596643
     16          6           0        1.556767    0.252513   -0.028100
     17          6           0        2.025130   -1.128388   -0.457203
     18          8           0        0.979808   -2.111303   -0.433402
     19          1           0        0.123201   -1.696266   -0.738097
     20          6           0        3.313776   -1.515247    0.248609
     21          8           0        3.723328   -2.868301   -0.001956
     22          1           0        4.430220   -3.119497    0.659007
     23          6           0        2.260235    2.546590    0.105781
     24          8           0        1.153466    3.314216   -0.389777
     25          1           0        1.360281    4.278597   -0.226660
     26          6           0        2.674916    1.193281   -0.447651
     27          8           0        3.923527    0.817476    0.150601
     28          6           0        4.382324   -0.509753   -0.147724
     29          8           0        5.379157   -0.567727    0.883214
     30          1           0        6.242173   -0.706838    0.486413
     31          1           0        4.770768   -0.630505   -1.137385
     32          1           0        3.149371   -1.417175    1.301344
     33          1           0        2.290095   -1.028739   -1.489077
     34          1           0        1.472607    0.272668    1.038394
     35          1           0        2.759662    1.230153   -1.513652
     36          1           0        3.120577    3.177820    0.026661
     37          1           0        2.077544    2.398957    1.149682
     38          1           0       -5.554002   -0.544534   -0.581636
     39          1           0       -2.283367   -3.184913    0.080157
     40          1           0       -3.149883   -2.503330   -1.253695
     41          1           0       -2.595920   -1.130278    1.358691
     42          1           0       -3.660343    0.011420   -1.192127
     43          1           0       -3.066203    1.193124    1.459606
     44          1           0       -1.787205    1.633642   -1.187771
     45          1           0       -0.708814    0.199517    1.235247
 ---------------------------------------------------------------------

 SCF Done:  E(RB3LYP) =  -1297.97003353     A.U. after   13 cycles

 The electronic state is 1-A.
 Alpha  occ. eigenvalues --  -19.19686 -19.18800 -19.18485 -19.17768 -19.17674
 Alpha  occ. eigenvalues --  -19.16568 -19.16315 -19.15957 -19.14340 -19.13360
 Alpha  occ. eigenvalues --  -19.12624 -10.30986 -10.30461 -10.26446 -10.25495
 Alpha  occ. eigenvalues --  -10.25384 -10.25253 -10.24896 -10.24670 -10.23722
 Alpha  occ. eigenvalues --  -10.23693 -10.23564 -10.23511  -1.10386  -1.09805
 Alpha  occ. eigenvalues --   -1.06602  -1.04893  -1.03919  -1.03242  -1.02585
 Alpha  occ. eigenvalues --   -1.02384  -1.01379  -0.99954  -0.99146  -0.82818
 Alpha  occ. eigenvalues --   -0.80212  -0.79839  -0.78317  -0.71786  -0.69777
 Alpha  occ. eigenvalues --   -0.67110  -0.64426  -0.63437  -0.61913  -0.61571
 Alpha  occ. eigenvalues --   -0.60418  -0.56894  -0.56282  -0.55278  -0.54506
 Alpha  occ. eigenvalues --   -0.53769  -0.53638  -0.52685  -0.51388  -0.51243
 Alpha  occ. eigenvalues --   -0.51116  -0.49785  -0.48891  -0.48428  -0.46598
 Alpha  occ. eigenvalues --   -0.46212  -0.45034  -0.44339  -0.43402  -0.42986
 Alpha  occ. eigenvalues --   -0.42268  -0.41902  -0.40664  -0.40290  -0.39521
 Alpha  occ. eigenvalues --   -0.39154  -0.38397  -0.37350  -0.36186  -0.35217
 Alpha  occ. eigenvalues --   -0.34997  -0.34617  -0.34249  -0.33946  -0.33159
 Alpha  occ. eigenvalues --   -0.32933  -0.31867  -0.31080  -0.30634  -0.29218
 Alpha  occ. eigenvalues --   -0.29010  -0.28349  -0.28268  -0.26913  -0.26243
 Alpha  occ. eigenvalues --   -0.26094
 Alpha virt. eigenvalues --   -0.02300  -0.01611  -0.01602  -0.00364   0.00281
 Alpha virt. eigenvalues --    0.00838   0.01751   0.02248   0.02638   0.03326
 Alpha virt. eigenvalues --    0.03966   0.04359   0.04721   0.05378   0.05700

 Mulliken atomic charges:
              1
     1  O   -0.549313
     2  C   -0.024902
     3  C    0.288736
     4  O   -0.561892
     5  H    0.341744
     6  C   -0.115414
     7  O   -0.609442
     8  H    0.455551
     9  C   -0.226837
    10  O   -0.513459
    11  H    0.333138
    12  C    0.143750
    13  O   -0.234115
    14  C    0.198944
    15  O   -0.293905
    16  C    0.105066
    17  C    0.155173
    18  O   -0.575251
    19  H    0.384916
    20  C    0.018886
    21  O   -0.541099
    22  H    0.335620
    23  C   -0.302606
    24  O   -0.573411
    25  H    0.362554
    26  C    0.052109
    27  O   -0.203384
    28  C    0.223929
    29  O   -0.519311
    30  H    0.325670
    31  H    0.141465
    32  H    0.124076
    33  H    0.094117
    34  H    0.105380
    35  H    0.129900
    36  H    0.137799
    37  H    0.155972
    38  H    0.342570
    39  H    0.150975
    40  H    0.140381
    41  H    0.113032
    42  H    0.111586
    43  H    0.111061
    44  H    0.126480
    45  H    0.133760
 Sum of Mulliken atomic charges =   0.00000

 Dipole moment (field-independent basis, Debye):
    X=              3.8960    Y=             -0.2500    Z=             -1.2446  Tot=              4.0976
 Quadrupole moment (field-independent basis, Debye-Ang):
   XX=           -119.9141   YY=           -137.1885   ZZ=           -137.3127
   XY=             15.2872   XZ=              4.2857   YZ=             -2.3068

  Exact polarizability: 233.222  -0.873 197.643   1.756   0.197 143.944
 Approx polarizability: 274.201  -0.118 258.919   1.972   0.377 240.718

 ******    7 imaginary frequencies (negative Signs) ******

                     1                      2                      3
                     A                      A                      A
 Frequencies --  -280.8487              -266.9190              -263.5519
 Red. masses --     1.7541                 1.5665                 1.1445
 Frc consts  --     0.0815                 0.0658                 0.0468
 IR Inten    --     3.4082                33.3309                97.2420
 Raman Activ --     0.0184                 0.3069                 0.8822

                     4                      5                      6
                     A                      A                      A
 Frequencies --  -215.4760               -70.2544               -56.3454
 Red. masses --     1.2959                 6.6741                 5.9685
 Frc consts  --     0.0354                 0.0194                 0.0112
 IR Inten    --    64.2619                 1.3409                 0.9496
 Raman Activ --     0.6013                 0.0262                 0.1083

                     7                      8                      9
                     A                      A                      A
 Frequencies --   -27.4913                68.5639                80.9177
 Red. masses --     6.8132                 6.3123                 6.3314
 Frc consts  --     0.0030                 0.0175                 0.0244
 IR Inten    --     0.0241                 1.4183                 1.9029
 Raman Activ --     0.0510                 0.0580                 0.2912

                    10                     11                     12
                     A                      A                      A
 Frequencies --    86.7024               106.8179               112.9024
 Red. masses --     6.5958                 6.5087                 6.1776
 Frc consts  --     0.0292                 0.0438                 0.0464
 IR Inten    --     0.7510                 0.4345                 5.3608
 Raman Activ --     0.0656                 0.0580                 0.0592

                    13                     14                     15
                     A                      A                      A
 Frequencies --   167.8210               181.5131               192.7393
 Red. masses --     6.3220                 6.7776                 6.1066
 Frc consts  --     0.1049                 0.1316                 0.1337
 IR Inten    --     1.1244                 3.9392                 2.2186
 Raman Activ --     0.4489                 0.3953                 0.5104

                    16                     17                     18
                     A                      A                      A
 Frequencies --   221.8642               244.8983               270.9825
 Red. masses --     7.0072                 6.3257                 5.2806
 Frc consts  --     0.2032                 0.2235                 0.2285
 IR Inten    --     0.8520                 2.0919                 4.2991
 Raman Activ --     2.9819                 0.6191                 0.1608

                    19                     20                     21
                     A                      A                      A
 Frequencies --   275.3929               286.1991               305.3255
 Red. masses --     5.4098                 4.3683                 5.7024
 Frc consts  --     0.2417                 0.2108                 0.3132
 IR Inten    --     0.7028                 7.7306                 9.1493
 Raman Activ --     0.2299                 1.2777                 2.2602

                    22                     23                     24
                     A                      A                      A
 Frequencies --   315.7399               325.5293               330.4023
 Red. masses --     4.6966                 5.0539                 6.2941
 Frc consts  --     0.2759                 0.3155                 0.4048
 IR Inten    --     1.9385                 2.2008                 3.7538
 Raman Activ --     1.6723                 0.2714                 3.7020

                    25                     26                     27
                     A                      A                      A
 Frequencies --   361.4633               370.2609               384.0445
 Red. masses --     6.3107                 6.0954                 5.0980
 Frc consts  --     0.4858                 0.4923                 0.4430
 IR Inten    --     7.9245                 6.9655                 3.4392
 Raman Activ --     2.6961                 0.4576                 0.5197

                    28                     29                     30
                     A                      A                      A
 Frequencies --   400.5805               433.2369               442.9755
 Red. masses --     5.5962                 5.8971                 5.0402
 Frc consts  --     0.5291                 0.6521                 0.5827
 IR Inten    --    18.3181                 1.8864                 1.3033
 Raman Activ --     1.9190                 1.4166                 6.4727

                    31                     32                     33
                     A                      A                      A
 Frequencies --   448.4137               471.2991               503.3727
 Red. masses --     4.5290                 4.3570                 5.2809
 Frc consts  --     0.5366                 0.5702                 0.7884
 IR Inten    --     2.8273                 2.3404                 8.8900
 Raman Activ --     0.2563                 5.7177                 0.1221

                    34                     35                     36
                     A                      A                      A
 Frequencies --   517.2546               528.7144               562.4541
 Red. masses --     3.3195                 3.2898                 3.8997
 Frc consts  --     0.5233                 0.5418                 0.7269
 IR Inten    --    12.2854                13.3197                18.9475
 Raman Activ --     2.4828                 4.4618                 1.7894

                    37                     38                     39
                     A                      A                      A
 Frequencies --   588.4668               605.2506               626.7800
 Red. masses --     6.6273                 2.9596                 3.4070
 Frc consts  --     1.3522                 0.6388                 0.7886
 IR Inten    --     8.3507                33.7038                 9.7706
 Raman Activ --     0.5728                 0.3947                 0.7765

                    40                     41                     42
                     A                      A                      A
 Frequencies --   634.8110               698.0399               717.8817
 Red. masses --     6.0041                 5.3973                 1.0985
 Frc consts  --     1.4256                 1.5495                 0.3336
 IR Inten    --    39.9064                14.1813               105.7679
 Raman Activ --     1.1171                 1.8250                 1.7453

                    43                     44                     45
                     A                      A                      A
 Frequencies --   724.5389               726.4573               759.6738
 Red. masses --     1.0807                 1.0796                 1.0745
 Frc consts  --     0.3342                 0.3357                 0.3653
 IR Inten    --    64.8696               120.1654               120.9994
 Raman Activ --     0.9131                 2.2574                 1.9127

                    46                     47                     48
                     A                      A                      A
 Frequencies --   761.3705               851.6119               856.6895
 Red. masses --     1.0846                 1.7835                 1.5594
 Frc consts  --     0.3704                 0.7621                 0.6743
 IR Inten    --   128.2802                 6.7769                 9.0505
 Raman Activ --     3.9615                 1.0583                 0.3112

                    49                     50                     51
                     A                      A                      A
 Frequencies --   902.4298               917.5706               940.6996
 Red. masses --     1.2034                 4.8892                 5.9407
 Frc consts  --     0.5774                 2.4253                 3.0973
 IR Inten    --    49.8660               154.3763                14.6941
 Raman Activ --     0.6747                 3.3979                 0.6422

                    52                     53                     54
                     A                      A                      A
 Frequencies --   972.3353               975.4088               989.9948
 Red. masses --     6.1167                 6.4004                 4.0569
 Frc consts  --     3.4072                 3.5878                 2.3427
 IR Inten    --   160.1908               104.4442                27.6685
 Raman Activ --     1.1991                 3.3212                 0.8565

                    55                     56                     57
                     A                      A                      A
 Frequencies --  1001.1025              1010.0247              1015.8964
 Red. masses --     4.7692                 6.0419                 6.2771
 Frc consts  --     2.8162                 3.6315                 3.8169
 IR Inten    --   176.9272                53.6812               192.2671
 Raman Activ --     5.5037                 2.0968                 2.6064

                    58                     59                     60
                     A                      A                      A
 Frequencies --  1037.6120              1061.6809              1066.8299
 Red. masses --     5.6258                 4.7243                 6.0591
 Frc consts  --     3.5687                 3.1374                 4.0630
 IR Inten    --   333.9659               139.9842                33.3364
 Raman Activ --     2.7199                 7.1216                 1.6763

                    61                     62                     63
                     A                      A                      A
 Frequencies --  1074.7598              1077.9490              1084.2323
 Red. masses --     3.9356                 4.2837                 2.9400
 Frc consts  --     2.6784                 2.9327                 2.0363
 IR Inten    --    66.6589                 2.6157                10.7629
 Raman Activ --     3.9491                 6.3253                15.3829

                    64                     65                     66
                     A                      A                      A
 Frequencies --  1091.7852              1094.9621              1107.9585
 Red. masses --     2.2987                 2.6623                 2.9952
 Frc consts  --     1.6144                 1.8807                 2.1663
 IR Inten    --     7.0983                96.9184                77.7076
 Raman Activ --     8.2140                 2.7023                 8.4413

                    67                     68                     69
                     A                      A                      A
 Frequencies --  1122.5199              1129.0521              1133.4713
 Red. masses --     2.4212                 2.9560                 1.9380
 Frc consts  --     1.7975                 2.2202                 1.4670
 IR Inten    --    10.0237                32.6333                21.4962
 Raman Activ --     2.6402                10.2095                 7.5421

                    70                     71                     72
                     A                      A                      A
 Frequencies --  1138.2740              1148.2881              1150.4030
 Red. masses --     2.1706                 2.2127                 2.6137
 Frc consts  --     1.6570                 1.7190                 2.0380
 IR Inten    --    27.1588                 6.8354                96.1546
 Raman Activ --     5.7112                 1.3686                 2.7180

                    73                     74                     75
                     A                      A                      A
 Frequencies --  1154.1386              1162.2991              1171.7473
 Red. masses --     1.9917                 2.1943                 1.7207
 Frc consts  --     1.5631                 1.7465                 1.3919
 IR Inten    --     8.2814                30.9337                 1.7700
 Raman Activ --     2.7621                 4.4989                 2.4758

                    76                     77                     78
                     A                      A                      A
 Frequencies --  1199.3832              1212.2709              1218.4923
 Red. masses --     1.3900                 1.3306                 1.5158
 Frc consts  --     1.1781                 1.1521                 1.3260
 IR Inten    --    19.5473                12.9467                 3.8503
 Raman Activ --     5.3933                 1.8970                 0.8506

                    79                     80                     81
                     A                      A                      A
 Frequencies --  1230.3586              1244.2850              1262.0937
 Red. masses --     1.1825                 1.3244                 1.3445
 Frc consts  --     1.0547                 1.2081                 1.2618
 IR Inten    --    10.1886                 4.7557                18.4898
 Raman Activ --     1.1321                 2.6713                 0.8723

                    82                     83                     84
                     A                      A                      A
 Frequencies --  1276.9267              1284.4903              1289.1591
 Red. masses --     1.2119                 1.2991                 1.3548
 Frc consts  --     1.1643                 1.2629                 1.3266
 IR Inten    --     5.5703                14.1335                 1.7349
 Raman Activ --     4.3011                 1.9211                 2.2616

                    85                     86                     87
                     A                      A                      A
 Frequencies --  1297.5212              1301.6186              1311.3818
 Red. masses --     1.3646                 1.2911                 1.3497
 Frc consts  --     1.3536                 1.2888                 1.3675
 IR Inten    --    17.0482                29.1685                 8.1570
 Raman Activ --     1.4546                 6.0732                 0.5883

                    88                     89                     90
                     A                      A                      A
 Frequencies --  1315.7950              1333.6974              1335.9865
 Red. masses --     1.2724                 1.2147                 1.2289
 Frc consts  --     1.2979                 1.2730                 1.2924
 IR Inten    --    18.5247                19.7298                23.3538
 Raman Activ --     6.9291                 6.2378                 9.3576

                    91                     92                     93
                     A                      A                      A
 Frequencies --  1340.8693              1349.6566              1352.3556
 Red. masses --     1.2231                 1.2507                 1.3405
 Frc consts  --     1.2957                 1.3423                 1.4444
 IR Inten    --    18.4314                21.9672                22.6194
 Raman Activ --     1.7831                 4.2524                11.1800

                    94                     95                     96
                     A                      A                      A
 Frequencies --  1362.5898              1368.6674              1376.1269
 Red. masses --     1.4359                 1.2653                 1.5590
 Frc consts  --     1.5707                 1.3965                 1.7395
 IR Inten    --    12.4608                22.7502                12.6045
 Raman Activ --     1.6763                 4.1614                 3.9040

                    97                     98                     99
                     A                      A                      A
 Frequencies --  1378.4146              1388.5482              1409.2946
 Red. masses --     1.2556                 1.4051                 1.2649
 Frc consts  --     1.4056                 1.5962                 1.4801
 IR Inten    --    27.1362                14.3986                 1.1298
 Raman Activ --     4.6086                 4.3303                 4.7229

                   100                    101                    102
                     A                      A                      A
 Frequencies --  1430.5215              1453.7852              1464.5734
 Red. masses --     1.3097                 1.3555                 1.4004
 Frc consts  --     1.5791                 1.6879                 1.7698
 IR Inten    --    24.1628                46.9717                50.7793
 Raman Activ --     1.6991                 2.0681                 4.1971

                   103                    104                    105
                     A                      A                      A
 Frequencies --  1470.5691              1473.4993              1481.1404
 Red. masses --     1.2942                 1.0911                 1.1236
 Frc consts  --     1.6490                 1.3958                 1.4523
 IR Inten    --    10.9333                 7.1116                 3.4335
 Raman Activ --     2.4097                 4.0870                 2.8234

                   106                    107                    108
                     A                      A                      A
 Frequencies --  1492.4623              1524.2617              3200.9473
 Red. masses --     1.3561                 1.2176                 1.0685
 Frc consts  --     1.7797                 1.6667                 6.4506
 IR Inten    --    16.1462                54.1832              1332.6251
 Raman Activ --     0.8159                 1.0028               171.2492

                   109                    110                    111
                     A                      A                      A
 Frequencies --  3246.1824              3256.3752              3258.4795
 Red. masses --     1.0805                 1.0575                 1.0598
 Frc consts  --     6.7083                 6.6072                 6.6300
 IR Inten    --    65.7534                27.8987                10.6099
 Raman Activ --    57.0707                59.2539               162.4837

                   112                    113                    114
                     A                      A                      A
 Frequencies --  3262.9497              3273.7484              3276.1161
 Red. masses --     1.0803                 1.0834                 1.0831
 Frc consts  --     6.7764                 6.8412                 6.8492
 IR Inten    --    18.7839                 3.5488                 0.5608
 Raman Activ --   100.8771                25.3484                14.0974

                   115                    116                    117
                     A                      A                      A
 Frequencies --  3283.5132              3284.2846              3288.3723
 Red. masses --     1.0846                 1.0846                 1.0870
 Frc consts  --     6.8896                 6.8926                 6.9252
 IR Inten    --     2.3918                 1.4845                37.5829
 Raman Activ --    86.3846               129.9657                10.7373

                   118                    119                    120
                     A                      A                      A
 Frequencies --  3290.0196              3301.2874              3308.0043
 Red. masses --     1.0876                 1.0877                 1.0908
 Frc consts  --     6.9363                 6.9841                 7.0330
 IR Inten    --    12.5810                59.6381                22.9614
 Raman Activ --    18.8426                25.7849                65.9093

                   121                    122                    123
                     A                      A                      A
 Frequencies --  3310.9193              3312.8276              3333.9725
 Red. masses --     1.0996                 1.1047                 1.0671
 Frc consts  --     7.1023                 7.1431                 6.9881
 IR Inten    --    81.9013                54.9806               529.6473
 Raman Activ --    35.0125                19.0150               144.3073

                   124                    125                    126
                     A                      A                      A
 Frequencies --  3364.5203              3372.9630              3378.6190
 Red. masses --     1.0655                 1.0664                 1.0669
 Frc consts  --     7.1064                 7.1484                 7.1754
 IR Inten    --    31.8546                41.3118                36.9259
 Raman Activ --   109.0679               143.8346               137.8717

                   127                    128                    129
                     A                      A                      A
 Frequencies --  3378.9200              3889.4416              3889.9133
 Red. masses --     1.0674                 1.0677                 1.0673
 Frc consts  --     7.1804                 9.5167                 9.5154
 IR Inten    --    74.8887                94.4289                50.0395
 Raman Activ --   151.4679                63.7984               161.2429

 - Thermochemistry -
 -------------------
 Temperature   298.150 Kelvin.  Pressure   1.00000 Atm.
 Atom     1 has atomic number  8 and mass  15.99491

 Molecular mass:   342.11621 amu.
 Principal axes and moments of inertia in atomic units:
                           1         2         3
     Eigenvalues --  4413.37811********************
           X            0.99997   0.00755   0.00092
           Y           -0.00755   0.99997   0.00108
           Z           -0.00091  -0.00108   1.00000
 This molecule is an asymmetric top.
 Rotational symmetry number  1.
 Warning -- assumption of classical behavior for rotation
           may cause significant error
 Rotational temperatures (Kelvin)      0.01963     0.00710     0.00536
 Rotational constants (GHZ):           0.40893     0.14801     0.11168
    7 imaginary frequencies ignored.
 Zero-point vibrational energy     976610.6 (Joules/Mol)
                                  233.41555 (Kcal/Mol)
 Warning -- explicit consideration of  31 degrees of freedom as
           vibrations may cause significant error
 Vibrational temperatures:     98.65   116.42   124.75   153.69   162.44
          (Kelvin)            241.46   261.16   277.31   319.21   352.35
                              389.88   396.23   411.78   439.29   454.28
                              468.36   475.37   520.06   532.72   552.55
                              576.35   623.33   637.34   645.17   678.09
                              724.24   744.21   760.70   809.25   846.67
                              870.82   901.80   913.35  1004.32  1032.87
                             1042.45  1045.21  1093.00  1095.44  1225.28
                             1232.58  1298.39  1320.18  1353.46  1398.97
                             1403.39  1424.38  1440.36  1453.20  1461.65
                             1492.89  1527.52  1534.93  1546.34  1550.93
                             1559.97  1570.83  1575.40  1594.10  1615.05
                             1624.45  1630.81  1637.72  1652.13  1655.17
                             1660.55  1672.29  1685.88  1725.64  1744.19
                             1753.14  1770.21  1790.25  1815.87  1837.21
                             1848.09  1854.81  1866.84  1872.74  1886.78
                             1893.13  1918.89  1922.18  1929.21  1941.85
                             1945.74  1960.46  1969.20  1979.94  1983.23
                             1997.81  2027.66  2058.20  2091.67  2107.19
                             2115.82  2120.03  2131.03  2147.32  2193.07
                             4605.44  4670.53  4685.19  4688.22  4694.65
                             4710.19  4713.59  4724.24  4725.35  4731.23
                             4733.60  4749.81  4759.47  4763.67  4766.41
                             4796.84  4840.79  4852.94  4861.07  4861.51
                             5596.03  5596.71

 Zero-point correction=                           0.371971 (Hartree/Particle)
 Thermal correction to Energy=                    0.389961
 Thermal correction to Enthalpy=                  0.390905
 Thermal correction to Gibbs Free Energy=         0.327396
 Sum of electronic and zero-point Energies=          -1297.598062
 Sum of electronic and thermal Energies=             -1297.580073
 Sum of electronic and thermal Enthalpies=           -1297.579128
 Sum of electronic and thermal Free Energies=        -1297.642638

                     E (Thermal)             CV                S
                      KCal/Mol        Cal/Mol-Kelvin    Cal/Mol-Kelvin
 Total                  244.704             75.409            133.667
 Electronic               0.000              0.000              0.000
 Translational            0.889              2.981             43.384
 Rotational               0.889              2.981             35.118
 Vibrational            242.927             69.447             55.164
 Vibration     1          0.598              1.969              4.194
 Vibration     2          0.600              1.962              3.868
 Vibration     3          0.601              1.958              3.733
 Vibration     4          0.606              1.944              3.326
 Vibration     5          0.607              1.939              3.218
 Vibration     6          0.625              1.882              2.460
 Vibration     7          0.630              1.865              2.313
 Vibration     8          0.635              1.850              2.201
 Vibration     9          0.648              1.808              1.944
 Vibration    10          0.660              1.771              1.767
 Vibration    11          0.675              1.727              1.590
 Vibration    12          0.677              1.719              1.562
 Vibration    13          0.684              1.699              1.496
 Vibration    14          0.696              1.664              1.388
 Vibration    15          0.703              1.644              1.332
 Vibration    16          0.710              1.624              1.282
 Vibration    17          0.713              1.615              1.258
 Vibration    18          0.736              1.552              1.116
 Vibration    19          0.742              1.533              1.079
 Vibration    20          0.753              1.504              1.023
 Vibration    21          0.766              1.469              0.961
 Vibration    22          0.794              1.398              0.848
 Vibration    23          0.803              1.376              0.817
 Vibration    24          0.807              1.364              0.801
 Vibration    25          0.828              1.314              0.734
 Vibration    26          0.859              1.243              0.650
 Vibration    27          0.872              1.212              0.616
 Vibration    28          0.884              1.186              0.590
 Vibration    29          0.918              1.113              0.519
 Vibration    30          0.946              1.056              0.470
 Vibration    31          0.964              1.021              0.441

 Normal termination of Gaussian 09 at Fri Mar 25 20:04:28 2016.
