 Gaussian 09, Revision B.01,
 Gaussian 09:  EM64L-G09RevB.01 12-Aug-2010

 -------------------------------------------------
 # freq=raman b3lyp/6-31+g(2d,p) geom=connectivity
 -------------------------------------------------

 -----------------
 320 8249/8249.com
 -----------------
 Symbolic Z-matrix:
 Charge =  0 Multiplicity = 1

                         Standard orientation:
 ---------------------------------------------------------------------
 Center     Atomic      Atomic             Coordinates (Angstroms)
 Number     Number       Type             X           Y           Z
 ---------------------------------------------------------------------
      1          8           0        5.047828   -0.380269   -0.310208
      2          6           0        3.723957   -0.151008    0.195525
      3          6           0        3.219708    1.208101   -0.260081
      4          8           0        4.108998    2.261544    0.137461
      5          1           0        4.946474    1.726972    0.027636
      6          6           0        1.855037    1.602434    0.279407
      7          8           0        1.386825    2.814696   -0.328925
      8          1           0        0.413988    2.918162   -0.124679
      9          6           0        2.950963   -2.605136    0.046175
     10          8           0        4.185858   -3.150806   -0.440025
     11          1           0        4.252886   -4.144668   -0.353156
     12          6           0        2.660334   -1.142649   -0.246174
     13          8           0        1.407278   -0.837807    0.383567
     14          6           0        0.900687    0.450616    0.006491
     15          8           0       -0.343168    0.709721    0.672085
     16          6           0       -1.492184    0.205825   -0.026002
     17          6           0       -2.001878   -1.176181    0.346097
     18          8           0       -0.952051   -2.124223    0.105223
     19          1           0       -0.054096   -1.722461    0.286270
     20          6           0       -3.350206   -1.600102   -0.213211
     21          8           0       -3.742673   -2.726399    0.584934
     22          1           0       -4.720915   -2.859723    0.426092
     23          6           0       -2.362045    2.621562   -0.292017
     24          8           0       -1.300944    3.365607    0.325342
     25          1           0       -1.647880    4.296444    0.445928
     26          6           0       -2.599095    1.215717    0.232474
     27          8           0       -3.718443    0.764919   -0.543192
     28          6           0       -4.301438   -0.432169   -0.008017
     29          8           0       -5.527253   -0.690923   -0.705948
     30          1           0       -6.204095   -0.952913   -0.077580
     31          1           0       -3.268724    3.176637   -0.170667
     32          1           0       -2.151402    2.552433   -1.338798
     33          1           0       -2.851186    1.239937    1.272071
     34          1           0       -1.273088    0.208314   -1.073328
     35          1           0       -2.132737   -1.154979    1.407853
     36          1           0       -3.274618   -1.863915   -1.247421
     37          1           0       -4.498622   -0.304130    1.035833
     38          1           0        2.153163   -3.184812   -0.369025
     39          1           0        2.933804   -2.734386    1.108201
     40          1           0        5.631469   -0.614119    0.415242
     41          1           0        2.533381   -1.037718   -1.303422
     42          1           0        3.766639   -0.155786    1.264663
     43          1           0        3.166325    1.200979   -1.328725
     44          1           0        1.928475    1.750158    1.336613
     45          1           0        0.709688    0.429045   -1.046103
 ---------------------------------------------------------------------

 SCF Done:  E(RB3LYP) =  -1297.99750392     A.U. after   13 cycles

 The electronic state is 1-A.
 Alpha  occ. eigenvalues --  -19.19615 -19.18550 -19.18506 -19.18461 -19.17901
 Alpha  occ. eigenvalues --  -19.17843 -19.16680 -19.16252 -19.14609 -19.13759
 Alpha  occ. eigenvalues --  -19.13043 -10.30891 -10.30354 -10.26316 -10.25851
 Alpha  occ. eigenvalues --  -10.25694 -10.25155 -10.25140 -10.24850 -10.24496
 Alpha  occ. eigenvalues --  -10.24044 -10.23869 -10.23771  -1.10476  -1.09258
 Alpha  occ. eigenvalues --   -1.06017  -1.05406  -1.04652  -1.03997  -1.03288
 Alpha  occ. eigenvalues --   -1.02590  -1.02200  -1.00308  -0.99921  -0.81950
 Alpha  occ. eigenvalues --   -0.80664  -0.79379  -0.78213  -0.71969  -0.70363
 Alpha  occ. eigenvalues --   -0.67438  -0.64819  -0.63201  -0.62910  -0.61536
 Alpha  occ. eigenvalues --   -0.60424  -0.56730  -0.56048  -0.55336  -0.55052
 Alpha  occ. eigenvalues --   -0.54570  -0.53224  -0.52821  -0.51859  -0.51238
 Alpha  occ. eigenvalues --   -0.50763  -0.50093  -0.49132  -0.48659  -0.46619
 Alpha  occ. eigenvalues --   -0.46015  -0.45409  -0.44613  -0.43705  -0.43348
 Alpha  occ. eigenvalues --   -0.42681  -0.42009  -0.40827  -0.39836  -0.39627
 Alpha  occ. eigenvalues --   -0.39286  -0.38512  -0.37775  -0.36498  -0.36146
 Alpha  occ. eigenvalues --   -0.35964  -0.35504  -0.34983  -0.33946  -0.33673
 Alpha  occ. eigenvalues --   -0.32977  -0.31436  -0.30969  -0.30800  -0.30450
 Alpha  occ. eigenvalues --   -0.29764  -0.28819  -0.28157  -0.27608  -0.26640
 Alpha  occ. eigenvalues --   -0.26062
 Alpha virt. eigenvalues --   -0.02636  -0.02087  -0.01954  -0.00186   0.00422
 Alpha virt. eigenvalues --    0.01040   0.02004   0.02464   0.03591   0.03709
 Alpha virt. eigenvalues --    0.04216   0.04393   0.05059   0.05465   0.05527

 Mulliken atomic charges:
              1
     1  O   -0.543388
     2  C   -0.146769
     3  C    0.345545
     4  O   -0.556979
     5  H    0.346193
     6  C   -0.139361
     7  O   -0.571124
     8  H    0.411208
     9  C   -0.153970
    10  O   -0.538016
    11  H    0.346950
    12  C    0.180786
    13  O   -0.305039
    14  C    0.176747
    15  O   -0.223770
    16  C    0.230559
    17  C    0.157260
    18  O   -0.606959
    19  H    0.406632
    20  C    0.118530
    21  O   -0.521435
    22  H    0.317390
    23  C   -0.254693
    24  O   -0.548589
    25  H    0.358436
    26  C   -0.075215
    27  O   -0.257680
    28  C    0.072018
    29  O   -0.540691
    30  H    0.334763
    31  H    0.144608
    32  H    0.159983
    33  H    0.119876
    34  H    0.110858
    35  H    0.118990
    36  H    0.137944
    37  H    0.131354
    38  H    0.154933
    39  H    0.143173
    40  H    0.348549
    41  H    0.115836
    42  H    0.123910
    43  H    0.123621
    44  H    0.130029
    45  H    0.116995
 Sum of Mulliken atomic charges =   0.00000

 Dipole moment (field-independent basis, Debye):
    X=             -2.9430    Y=             -1.0078    Z=              2.3801  Tot=              3.9169
 Quadrupole moment (field-independent basis, Debye-Ang):
   XX=           -115.4449   YY=           -136.9191   ZZ=           -140.3790
   XY=            -21.2723   XZ=             -0.7197   YZ=              1.4271

  Exact polarizability: 231.910   0.566 197.093   0.276  -0.126 143.256
 Approx polarizability: 272.886  -0.583 257.435  -0.170   0.720 239.315

 ******    6 imaginary frequencies (negative Signs) ******

                     1                      2                      3
                     A                      A                      A
 Frequencies --  -292.4095              -277.0919              -220.1472
 Red. masses --     1.2207                 1.8221                 1.7775
 Frc consts  --     0.0615                 0.0824                 0.0508
 IR Inten    --   109.8783                10.2053                 1.8637
 Raman Activ --     0.9270                 0.0730                 0.0781

                     4                      5                      6
                     A                      A                      A
 Frequencies --  -176.1932               -72.6360               -59.0776
 Red. masses --     1.2822                 6.5223                 6.5398
 Frc consts  --     0.0235                 0.0203                 0.0134
 IR Inten    --    87.5217                 0.6410                 1.1503
 Raman Activ --     0.5350                 0.0397                 0.0102

                     7                      8                      9
                     A                      A                      A
 Frequencies --    35.4841                47.6299                74.7100
 Red. masses --     6.4047                 7.0859                 6.6021
 Frc consts  --     0.0048                 0.0095                 0.0217
 IR Inten    --     0.1530                 0.1133                 3.6124
 Raman Activ --     0.0345                 0.0209                 0.0975

                    10                     11                     12
                     A                      A                      A
 Frequencies --    84.5577               110.5755               134.8948
 Red. masses --     6.8197                 4.5043                 5.5524
 Frc consts  --     0.0287                 0.0324                 0.0595
 IR Inten    --     0.6760                14.1574                 2.9090
 Raman Activ --     0.2604                 0.1472                 0.1174

                    13                     14                     15
                     A                      A                      A
 Frequencies --   149.7734               188.6415               190.1991
 Red. masses --     6.1715                 5.5764                 6.9048
 Frc consts  --     0.0816                 0.1169                 0.1472
 IR Inten    --     1.4061                 3.3488                 0.8670
 Raman Activ --     0.3761                 0.2139                 0.2329

                    16                     17                     18
                     A                      A                      A
 Frequencies --   201.9431               231.0304               261.5887
 Red. masses --     6.8583                 6.2638                 4.3129
 Frc consts  --     0.1648                 0.1970                 0.1739
 IR Inten    --     0.4224                 1.1499                15.2594
 Raman Activ --     2.2589                 1.2789                 0.3647

                    19                     20                     21
                     A                      A                      A
 Frequencies --   273.2785               291.2645               304.4643
 Red. masses --     4.7860                 4.6872                 4.6811
 Frc consts  --     0.2106                 0.2343                 0.2557
 IR Inten    --     5.0962                 2.8851                 5.7834
 Raman Activ --     0.2609                 0.1133                 0.0951

                    22                     23                     24
                     A                      A                      A
 Frequencies --   317.4933               319.8249               326.0115
 Red. masses --     6.4985                 5.0799                 6.4463
 Frc consts  --     0.3859                 0.3061                 0.4037
 IR Inten    --     1.1883                 6.4606                 5.0306
 Raman Activ --     2.3539                 0.1170                 4.9003

                    25                     26                     27
                     A                      A                      A
 Frequencies --   346.8858               362.8479               384.4139
 Red. masses --     6.0236                 4.7306                 5.7437
 Frc consts  --     0.4270                 0.3670                 0.5001
 IR Inten    --     1.9914                 4.6145                 1.5923
 Raman Activ --     2.6692                 0.1607                 0.9166

                    28                     29                     30
                     A                      A                      A
 Frequencies --   415.1636               419.9513               430.8166
 Red. masses --     5.5757                 5.0084                 5.2184
 Frc consts  --     0.5662                 0.5204                 0.5707
 IR Inten    --    13.4774                 6.8690                 4.3111
 Raman Activ --     3.2588                 5.9997                 0.7173

                    31                     32                     33
                     A                      A                      A
 Frequencies --   442.4132               484.4599               490.7665
 Red. masses --     5.1533                 4.8035                 4.2492
 Frc consts  --     0.5943                 0.6642                 0.6030
 IR Inten    --     7.2924                 5.5674                10.0033
 Raman Activ --     4.0727                 3.5409                 0.4234

                    34                     35                     36
                     A                      A                      A
 Frequencies --   516.9472               537.5854               568.6254
 Red. masses --     3.5733                 3.2866                 4.6020
 Frc consts  --     0.5626                 0.5596                 0.8767
 IR Inten    --    13.3597                 6.2162                 9.9373
 Raman Activ --     3.3799                 3.2983                 1.7025

                    37                     38                     39
                     A                      A                      A
 Frequencies --   582.8685               594.5256               610.5214
 Red. masses --     3.5639                 4.9505                 4.7710
 Frc consts  --     0.7134                 1.0310                 1.0478
 IR Inten    --    27.9105                 2.2383                18.2544
 Raman Activ --     0.4626                 1.3226                 0.6049

                    40                     41                     42
                     A                      A                      A
 Frequencies --   633.5597               659.3177               678.1246
 Red. masses --     3.5788                 1.0602                 5.5190
 Frc consts  --     0.8464                 0.2715                 1.4953
 IR Inten    --    24.8880               116.6223                13.4563
 Raman Activ --     0.9097                 2.1417                 0.3808

                    43                     44                     45
                     A                      A                      A
 Frequencies --   715.2569               734.3622               782.2150
 Red. masses --     1.0929                 1.0755                 1.0626
 Frc consts  --     0.3294                 0.3417                 0.3831
 IR Inten    --    97.3594                98.2856                54.0213
 Raman Activ --     1.6532                 1.8964                 0.8484

                    46                     47                     48
                     A                      A                      A
 Frequencies --   783.8505               833.6126               859.1304
 Red. masses --     1.1069                 1.1174                 1.7798
 Frc consts  --     0.4007                 0.4575                 0.7740
 IR Inten    --    88.9791                53.6407                 2.3978
 Raman Activ --     0.9624                 0.2593                 1.1445

                    49                     50                     51
                     A                      A                      A
 Frequencies --   865.9982               944.6068               960.6287
 Red. masses --     1.5309                 5.0097                 5.9855
 Frc consts  --     0.6764                 2.6337                 3.2543
 IR Inten    --    11.1241               220.5514                28.1330
 Raman Activ --     1.0154                 3.4564                 0.7086

                    52                     53                     54
                     A                      A                      A
 Frequencies --   976.1856               982.9455               988.5544
 Red. masses --     5.7362                 6.2070                 4.3548
 Frc consts  --     3.2206                 3.5334                 2.5074
 IR Inten    --     8.6354               225.3212                22.7369
 Raman Activ --     3.1937                 0.6833                 0.3878

                    55                     56                     57
                     A                      A                      A
 Frequencies --  1000.4087              1018.9453              1028.4934
 Red. masses --     7.7200                 6.4486                 5.8592
 Frc consts  --     4.5522                 3.9447                 3.6517
 IR Inten    --   257.3813                31.9930               227.3090
 Raman Activ --     1.0767                 2.3945                 2.3967

                    58                     59                     60
                     A                      A                      A
 Frequencies --  1031.8507              1053.1011              1056.8702
 Red. masses --     7.3899                 7.3132                 6.8653
 Frc consts  --     4.6358                 4.7785                 4.5181
 IR Inten    --   275.4922                82.0612               165.0050
 Raman Activ --     1.6268                 1.8743                 2.9280

                    61                     62                     63
                     A                      A                      A
 Frequencies --  1064.9699              1070.7662              1075.2271
 Red. masses --     5.7061                 3.7116                 3.6082
 Frc consts  --     3.8130                 2.5073                 2.4578
 IR Inten    --    49.9566                 8.6021                14.9096
 Raman Activ --     3.9514                 4.4148                28.7375

                    64                     65                     66
                     A                      A                      A
 Frequencies --  1096.8589              1098.5968              1112.9772
 Red. masses --     2.2621                 2.8682                 2.4269
 Frc consts  --     1.6035                 2.0396                 1.7712
 IR Inten    --    73.1146                64.1915                12.2748
 Raman Activ --     4.2050                 4.1980                 7.5877

                    67                     68                     69
                     A                      A                      A
 Frequencies --  1118.0477              1123.0470              1132.7144
 Red. masses --     2.9374                 2.9749                 2.6835
 Frc consts  --     2.1634                 2.2107                 2.0286
 IR Inten    --    14.2340                11.0653                24.5674
 Raman Activ --     4.6590                 4.5986                 6.8775

                    70                     71                     72
                     A                      A                      A
 Frequencies --  1147.1228              1156.8868              1158.3707
 Red. masses --     1.8130                 1.7908                 2.2762
 Frc consts  --     1.4056                 1.4121                 1.7995
 IR Inten    --     0.4390                12.8443                11.9804
 Raman Activ --     3.6486                 4.2774                 3.3143

                    73                     74                     75
                     A                      A                      A
 Frequencies --  1165.6093              1175.2128              1184.8522
 Red. masses --     1.6954                 2.2048                 1.7176
 Frc consts  --     1.3572                 1.7941                 1.4207
 IR Inten    --     7.0149                 5.1474                12.0395
 Raman Activ --     1.8750                 1.2993                 1.8346

                    76                     77                     78
                     A                      A                      A
 Frequencies --  1203.1121              1210.1122              1230.2163
 Red. masses --     1.4030                 1.2418                 1.2271
 Frc consts  --     1.1965                 1.0714                 1.0942
 IR Inten    --     8.9616                 8.7755                19.7962
 Raman Activ --     2.5996                 1.6324                 1.2445

                    79                     80                     81
                     A                      A                      A
 Frequencies --  1236.6099              1242.7606              1266.4127
 Red. masses --     1.2428                 1.4106                 1.2202
 Frc consts  --     1.1197                 1.2836                 1.1530
 IR Inten    --    15.7204                21.2500                 5.2613
 Raman Activ --     2.0096                 2.0895                 0.8355

                    82                     83                     84
                     A                      A                      A
 Frequencies --  1269.8999              1278.5244              1283.9070
 Red. masses --     1.2292                 1.3525                 1.2929
 Frc consts  --     1.1679                 1.3026                 1.2557
 IR Inten    --    25.0852                28.4760                 8.4723
 Raman Activ --     0.9370                 1.7304                 5.7217

                    85                     86                     87
                     A                      A                      A
 Frequencies --  1290.4744              1294.1927              1301.3136
 Red. masses --     1.2651                 1.3185                 1.2379
 Frc consts  --     1.2413                 1.3012                 1.2351
 IR Inten    --    14.0773                11.0497                38.1074
 Raman Activ --     1.3416                 2.8151                 6.3643

                    88                     89                     90
                     A                      A                      A
 Frequencies --  1312.5846              1321.1943              1335.4086
 Red. masses --     1.2104                 1.3112                 1.2934
 Frc consts  --     1.2287                 1.3485                 1.3590
 IR Inten    --    35.2377                 8.6569                 7.9080
 Raman Activ --     7.2528                 9.4261                 2.3624

                    91                     92                     93
                     A                      A                      A
 Frequencies --  1337.8054              1344.0346              1344.9042
 Red. masses --     1.2747                 1.2164                 1.2976
 Frc consts  --     1.3441                 1.2946                 1.3829
 IR Inten    --    20.1079                31.3479                 5.1280
 Raman Activ --     7.1527                 2.4325                 1.7936

                    94                     95                     96
                     A                      A                      A
 Frequencies --  1361.5520              1369.6751              1375.5511
 Red. masses --     1.2861                 1.5873                 1.3550
 Frc consts  --     1.4048                 1.7544                 1.5105
 IR Inten    --    27.3311                 4.9116                 7.5297
 Raman Activ --     3.3472                 5.0327                 4.6836

                    97                     98                     99
                     A                      A                      A
 Frequencies --  1376.9964              1399.0505              1408.9469
 Red. masses --     1.4330                 1.5014                 1.3246
 Frc consts  --     1.6009                 1.7314                 1.5492
 IR Inten    --    12.4967                 3.2459                 1.4314
 Raman Activ --     3.3963                 4.9208                 8.7206

                   100                    101                    102
                     A                      A                      A
 Frequencies --  1437.9876              1440.5500              1462.5203
 Red. masses --     1.3976                 1.4343                 1.3183
 Frc consts  --     1.7028                 1.7537                 1.6614
 IR Inten    --    53.3234                 6.4625                34.9066
 Raman Activ --     1.8805                 0.4117                 1.7153

                   103                    104                    105
                     A                      A                      A
 Frequencies --  1469.7256              1478.5102              1482.3338
 Red. masses --     1.1286                 1.0912                 1.2494
 Frc consts  --     1.4364                 1.4054                 1.6175
 IR Inten    --     2.1157                 1.6722                19.7878
 Raman Activ --     4.0158                 3.7570                 0.7999

                   106                    107                    108
                     A                      A                      A
 Frequencies --  1513.1406              1527.1882              3247.9303
 Red. masses --     1.2410                 1.2969                 1.0717
 Frc consts  --     1.6741                 1.7822                 6.6609
 IR Inten    --    49.8084                90.8591               585.6128
 Raman Activ --     2.6648                 1.0166               190.3089

                   109                    110                    111
                     A                      A                      A
 Frequencies --  3257.6824              3263.3818              3265.9529
 Red. masses --     1.0575                 1.0582                 1.0794
 Frc consts  --     6.6121                 6.6399                 6.7833
 IR Inten    --    31.8874               106.3666                76.2346
 Raman Activ --    90.4994                58.9130                54.4513

                   112                    113                    114
                     A                      A                      A
 Frequencies --  3270.0585              3271.8908              3275.0634
 Red. masses --     1.0831                 1.0822                 1.0818
 Frc consts  --     6.8241                 6.8259                 6.8365
 IR Inten    --     1.2825                22.5107                 8.3806
 Raman Activ --     4.0740                14.3598               142.2255

                   115                    116                    117
                     A                      A                      A
 Frequencies --  3278.4193              3281.1179              3285.8045
 Red. masses --     1.0837                 1.0848                 1.0843
 Frc consts  --     6.8625                 6.8811                 6.8974
 IR Inten    --     6.5679                 8.8268                81.6006
 Raman Activ --   102.3090               207.6907                14.7131

                   118                    119                    120
                     A                      A                      A
 Frequencies --  3290.4723              3296.7823              3304.0891
 Red. masses --     1.0854                 1.0821                 1.0755
 Frc consts  --     6.9239                 6.9292                 6.9175
 IR Inten    --    25.6813               319.5879               467.5494
 Raman Activ --    36.6164                34.5558               103.0867

                   121                    122                    123
                     A                      A                      A
 Frequencies --  3306.6762              3313.5850              3322.6318
 Red. masses --     1.0866                 1.1054                 1.1053
 Frc consts  --     7.0003                 7.1508                 7.1891
 IR Inten    --    42.6319                54.4078                56.9682
 Raman Activ --    24.0234                36.9015                25.5451

                   124                    125                    126
                     A                      A                      A
 Frequencies --  3349.5177              3364.8351              3367.5244
 Red. masses --     1.0640                 1.0654                 1.0697
 Frc consts  --     7.0332                 7.1072                 7.1472
 IR Inten    --    46.2972                18.3930                44.3313
 Raman Activ --    71.7173               134.4033               160.7048

                   127                    128                    129
                     A                      A                      A
 Frequencies --  3369.7586              3891.0959              3892.0523
 Red. masses --     1.0680                 1.0676                 1.0674
 Frc consts  --     7.1450                 9.5240                 9.5269
 IR Inten    --    58.7136                93.2502                69.0027
 Raman Activ --   193.1175                79.4019               106.7314

 - Thermochemistry -
 -------------------
 Temperature   298.150 Kelvin.  Pressure   1.00000 Atm.
 Atom     1 has atomic number  8 and mass  15.99491

 Molecular mass:   342.11621 amu.
 Principal axes and moments of inertia in atomic units:
                           1         2         3
     Eigenvalues --  4448.30669********************
           X            0.99996  -0.00878  -0.00066
           Y            0.00878   0.99996  -0.00128
           Z            0.00067   0.00127   1.00000
 This molecule is an asymmetric top.
 Rotational symmetry number  1.
 Warning -- assumption of classical behavior for rotation
           may cause significant error
 Rotational temperatures (Kelvin)      0.01947     0.00709     0.00534
 Rotational constants (GHZ):           0.40571     0.14779     0.11131
    6 imaginary frequencies ignored.
 Zero-point vibrational energy     976003.0 (Joules/Mol)
                                  233.27031 (Kcal/Mol)
 Warning -- explicit consideration of  33 degrees of freedom as
           vibrations may cause significant error
 Vibrational temperatures:     51.05    68.53   107.49   121.66   159.09
          (Kelvin)            194.08   215.49   271.41   273.65   290.55
                              332.40   376.37   393.19   419.06   438.06
                              456.80   460.16   469.06   499.09   522.06
                              553.09   597.33   604.22   619.85   636.53
                              697.03   706.10   743.77   773.46   818.12
                              838.62   855.39   878.40   911.55   948.61
                              975.67  1029.09  1056.58  1125.43  1127.78
                             1199.38  1236.10  1245.98  1359.08  1382.13
                             1404.51  1414.24  1422.31  1439.36  1466.03
                             1479.77  1484.60  1515.18  1520.60  1532.25
                             1540.59  1547.01  1578.13  1580.63  1601.32
                             1608.62  1615.81  1629.72  1650.45  1664.50
                             1666.63  1677.05  1690.87  1704.74  1731.01
                             1741.08  1770.00  1779.20  1788.05  1822.08
                             1827.10  1839.51  1847.25  1856.70  1862.05
                             1872.30  1888.51  1900.90  1921.35  1924.80
                             1933.76  1935.01  1958.97  1970.65  1979.11
                             1981.19  2012.92  2027.16  2068.94  2072.63
                             2104.24  2114.60  2127.24  2132.75  2177.07
                             2197.28  4673.04  4687.07  4695.27  4698.97
                             4704.88  4707.52  4712.08  4716.91  4720.79
                             4727.53  4734.25  4743.33  4753.84  4757.56
                             4767.50  4780.52  4819.20  4841.24  4845.11
                             4848.32  5598.41  5599.79

 Zero-point correction=                           0.371740 (Hartree/Particle)
 Thermal correction to Energy=                    0.390766
 Thermal correction to Enthalpy=                  0.391711
 Thermal correction to Gibbs Free Energy=         0.324978
 Sum of electronic and zero-point Energies=          -1297.625764
 Sum of electronic and thermal Energies=             -1297.606737
 Sum of electronic and thermal Enthalpies=           -1297.605793
 Sum of electronic and thermal Free Energies=        -1297.672526

                     E (Thermal)             CV                S
                      KCal/Mol        Cal/Mol-Kelvin    Cal/Mol-Kelvin
 Total                  245.210             77.671            140.451
 Electronic               0.000              0.000              0.000
 Translational            0.889              2.981             43.384
 Rotational               0.889              2.981             35.131
 Vibrational            243.432             71.709             61.936
 Vibration     1          0.594              1.982              5.496
 Vibration     2          0.595              1.978              4.913
 Vibration     3          0.599              1.966              4.025
 Vibration     4          0.601              1.960              3.782
 Vibration     5          0.606              1.941              3.259
 Vibration     6          0.613              1.918              2.875
 Vibration     7          0.618              1.903              2.675
 Vibration     8          0.633              1.855              2.241
 Vibration     9          0.634              1.853              2.226
 Vibration    10          0.639              1.837              2.115
 Vibration    11          0.653              1.794              1.871
 Vibration    12          0.669              1.743              1.651
 Vibration    13          0.676              1.723              1.575
 Vibration    14          0.687              1.690              1.467
 Vibration    15          0.695              1.665              1.392
 Vibration    16          0.704              1.640              1.323
 Vibration    17          0.706              1.636              1.311
 Vibration    18          0.710              1.623              1.280
 Vibration    19          0.725              1.582              1.180
 Vibration    20          0.737              1.549              1.110
 Vibration    21          0.753              1.503              1.022
 Vibration    22          0.779              1.437              0.909
 Vibration    23          0.783              1.427              0.892
 Vibration    24          0.792              1.403              0.856
 Vibration    25          0.802              1.378              0.819
 Vibration    26          0.841              1.285              0.698
 Vibration    27          0.847              1.271              0.682
 Vibration    28          0.872              1.212              0.617
 Vibration    29          0.893              1.167              0.571
 Vibration    30          0.925              1.099              0.507
 Vibration    31          0.940              1.068              0.480
 Vibration    32          0.952              1.043              0.459
 Vibration    33          0.970              1.010              0.432

 Normal termination of Gaussian 09 at Fri Mar 25 03:15:51 2016.
