 Gaussian 09, Revision B.01,
 Gaussian 09:  EM64L-G09RevB.01 12-Aug-2010

 --------------------------------------------------
 # freq=raman b3lyp/6-31+g(2df,p) geom=connectivity
 --------------------------------------------------

 ------------
 290 7000.com
 ------------
 Symbolic Z-matrix:
 Charge =  0 Multiplicity = 1

                         Standard orientation:
 ---------------------------------------------------------------------
 Center     Atomic      Atomic             Coordinates (Angstroms)
 Number     Number       Type             X           Y           Z
 ---------------------------------------------------------------------
      1          8           0       -4.990130   -0.511743    0.342576
      2          6           0       -3.744684   -0.122808   -0.255167
      3          6           0       -3.348622    1.263162    0.226905
      4          8           0       -4.256953    2.333689   -0.071933
      5          1           0       -5.163424    1.976291    0.154198
      6          6           0       -1.915305    1.596519   -0.153308
      7          8           0       -1.455042    2.751135    0.563649
      8          1           0       -0.500140    2.925783    0.323314
      9          6           0       -2.944355   -2.625212   -0.150349
     10          8           0       -3.984683   -3.359906    0.509397
     11          1           0       -3.922962   -4.320440    0.238075
     12          6           0       -2.717074   -1.157323    0.173815
     13          8           0       -1.463868   -0.831144   -0.445432
     14          6           0       -0.970426    0.423312    0.046036
     15          8           0        0.286458    0.649872   -0.608588
     16          6           0        1.536099    0.252359   -0.026825
     17          6           0        2.030875   -1.129668   -0.423512
     18          8           0        1.074315   -2.193294   -0.305342
     19          1           0        0.175145   -1.772229   -0.426279
     20          6           0        3.351193   -1.533712    0.213044
     21          8           0        3.908668   -2.761234   -0.278481
     22          1           0        4.687505   -2.946606    0.320765
     23          6           0        2.342545    2.657564    0.104014
     24          8           0        1.159165    3.330019   -0.350427
     25          1           0        1.241750    4.289384   -0.079556
     26          6           0        2.634955    1.244124   -0.372804
     27          8           0        3.864797    0.874915    0.266160
     28          6           0        4.368888   -0.434358   -0.039406
     29          8           0        5.463217   -0.519679    0.885059
     30          1           0       -5.602000   -0.787904   -0.343683
     31          1           0       -3.837708   -0.123862   -1.321115
     32          1           0       -3.346341    1.193944    1.294661
     33          1           0       -2.593926   -1.072908    1.233348
     34          1           0       -2.025101   -3.136776    0.045038
     35          1           0       -3.131294   -2.690130   -1.201890
     36          1           0       -0.786543    0.320474    1.095088
     37          1           0       -1.908173    1.840809   -1.195023
     38          1           0        6.281531   -0.652187    0.400905
     39          1           0        4.725518   -0.473701   -1.047457
     40          1           0        3.204445   -1.626339    1.268878
     41          1           0        2.237020   -1.056724   -1.470929
     42          1           0        1.413746    0.259629    1.036132
     43          1           0        2.778491    1.253488   -1.433092
     44          1           0        3.178893    3.265209   -0.172008
     45          1           0        2.301478    2.630002    1.172870
 ---------------------------------------------------------------------

 SCF Done:  E(RB3LYP) =  -1298.02842004     A.U. after   13 cycles

 The electronic state is 1-A.
 Alpha  occ. eigenvalues --  -19.18752 -19.18682 -19.18167 -19.17870 -19.17815
 Alpha  occ. eigenvalues --  -19.16899 -19.16637 -19.16169 -19.15727 -19.14231
 Alpha  occ. eigenvalues --  -19.14011 -10.30765 -10.30440 -10.26253 -10.26065
 Alpha  occ. eigenvalues --  -10.25800 -10.25370 -10.25116 -10.24979 -10.24526
 Alpha  occ. eigenvalues --  -10.24398 -10.24394 -10.24300  -1.09881  -1.09046
 Alpha  occ. eigenvalues --   -1.05438  -1.05081  -1.04053  -1.03589  -1.02709
 Alpha  occ. eigenvalues --   -1.02456  -1.02258  -1.00846  -1.00388  -0.82349
 Alpha  occ. eigenvalues --   -0.80467  -0.79492  -0.78396  -0.72039  -0.70169
 Alpha  occ. eigenvalues --   -0.67578  -0.64754  -0.63063  -0.62614  -0.61269
 Alpha  occ. eigenvalues --   -0.60338  -0.56436  -0.55771  -0.55009  -0.54536
 Alpha  occ. eigenvalues --   -0.53919  -0.53446  -0.52882  -0.51351  -0.51081
 Alpha  occ. eigenvalues --   -0.50613  -0.50117  -0.49909  -0.48982  -0.46654
 Alpha  occ. eigenvalues --   -0.45943  -0.45165  -0.44661  -0.43890  -0.43291
 Alpha  occ. eigenvalues --   -0.42673  -0.41931  -0.41090  -0.40128  -0.39670
 Alpha  occ. eigenvalues --   -0.38824  -0.37936  -0.37643  -0.36336  -0.36065
 Alpha  occ. eigenvalues --   -0.35715  -0.35118  -0.34627  -0.34011  -0.33453
 Alpha  occ. eigenvalues --   -0.32933  -0.31680  -0.31210  -0.30696  -0.30012
 Alpha  occ. eigenvalues --   -0.29539  -0.28696  -0.28316  -0.27819  -0.27062
 Alpha  occ. eigenvalues --   -0.26758
 Alpha virt. eigenvalues --   -0.01949  -0.01875  -0.01647  -0.00207   0.00193
 Alpha virt. eigenvalues --    0.01074   0.01852   0.02098   0.02819   0.03469
 Alpha virt. eigenvalues --    0.03685   0.04268   0.04685   0.05259   0.05661

 Mulliken atomic charges:
              1
     1  O   -0.434807
     2  C   -0.018135
     3  C    0.063990
     4  O   -0.459166
     5  H    0.346337
     6  C   -0.254793
     7  O   -0.483912
     8  H    0.424525
     9  C   -0.273366
    10  O   -0.443403
    11  H    0.343139
    12  C   -0.057480
    13  O   -0.067939
    14  C    0.020392
    15  O   -0.042725
    16  C    0.038845
    17  C    0.076602
    18  O   -0.482907
    19  H    0.402086
    20  C   -0.038792
    21  O   -0.430290
    22  H    0.342082
    23  C   -0.335616
    24  O   -0.479712
    25  H    0.364843
    26  C   -0.207599
    27  O   -0.016432
    28  C   -0.024557
    29  O   -0.464323
    30  H    0.345421
    31  H    0.128431
    32  H    0.129459
    33  H    0.123929
    34  H    0.159320
    35  H    0.143140
    36  H    0.125385
    37  H    0.138468
    38  H    0.345230
    39  H    0.136621
    40  H    0.139049
    41  H    0.115878
    42  H    0.119348
    43  H    0.131595
    44  H    0.151626
    45  H    0.160213
 Sum of Mulliken atomic charges =   0.00000

 Dipole moment (field-independent basis, Debye):
    X=              2.2869    Y=             -0.1837    Z=             -1.6068  Tot=              2.8010
 Quadrupole moment (field-independent basis, Debye-Ang):
   XX=           -115.6809   YY=           -136.5447   ZZ=           -141.4243
   XY=             15.7436   XZ=              5.7320   YZ=              0.6046

  Exact polarizability: 233.780  -2.096 199.655   1.125   0.674 144.614
 Approx polarizability: 273.942  -1.843 259.707   0.541   1.202 240.410

 ******    6 imaginary frequencies (negative Signs) ******

                     1                      2                      3
                     A                      A                      A
 Frequencies --  -298.2596              -264.9723              -192.7819
 Red. masses --     1.7167                 1.7841                 1.1885
 Frc consts  --     0.0900                 0.0738                 0.0260
 IR Inten    --    10.2028                 3.2391                85.8085
 Raman Activ --     0.1024                 0.0702                 0.8037

                     4                      5                      6
                     A                      A                      A
 Frequencies --  -177.5534               -55.5648               -46.1866
 Red. masses --     1.2227                 6.1492                 6.1701
 Frc consts  --     0.0227                 0.0112                 0.0078
 IR Inten    --   103.6417                 1.0275                 1.4528
 Raman Activ --     0.7256                 0.0214                 0.0208

                     7                      8                      9
                     A                      A                      A
 Frequencies --    38.6238                46.7012                74.3810
 Red. masses --     6.6057                 6.5589                 5.8122
 Frc consts  --     0.0058                 0.0084                 0.0189
 IR Inten    --     0.3997                 0.2892                 4.6853
 Raman Activ --     0.0890                 0.0149                 0.3396

                    10                     11                     12
                     A                      A                      A
 Frequencies --    83.9017                93.5907               108.7325
 Red. masses --     7.0263                 6.1556                 5.8220
 Frc consts  --     0.0291                 0.0318                 0.0406
 IR Inten    --     2.4063                 2.2458                 2.6144
 Raman Activ --     0.0724                 0.0883                 0.0906

                    13                     14                     15
                     A                      A                      A
 Frequencies --   152.2945               161.9106               183.5582
 Red. masses --     6.3878                 5.8369                 8.0835
 Frc consts  --     0.0873                 0.0902                 0.1605
 IR Inten    --     4.0397                 2.6186                 0.1437
 Raman Activ --     0.4053                 0.4559                 0.6744

                    16                     17                     18
                     A                      A                      A
 Frequencies --   190.0904               227.0911               258.0337
 Red. masses --     6.7057                 6.1291                 4.6246
 Frc consts  --     0.1428                 0.1862                 0.1814
 IR Inten    --     0.0715                 0.6742                12.1324
 Raman Activ --     1.5229                 0.9352                 0.4047

                    19                     20                     21
                     A                      A                      A
 Frequencies --   267.5361               271.6515               299.2297
 Red. masses --     4.7118                 4.7495                 5.1749
 Frc consts  --     0.1987                 0.2065                 0.2730
 IR Inten    --     3.1286                 1.2415                 1.4460
 Raman Activ --     0.2610                 0.0919                 0.1590

                    22                     23                     24
                     A                      A                      A
 Frequencies --   301.6704               314.2463               324.7074
 Red. masses --     5.5484                 5.3965                 6.4374
 Frc consts  --     0.2975                 0.3140                 0.3999
 IR Inten    --    10.4313                 2.7551                 0.9053
 Raman Activ --     0.2256                 2.5546                 1.7602

                    25                     26                     27
                     A                      A                      A
 Frequencies --   337.0361               353.7995               367.9116
 Red. masses --     6.9628                 4.3095                 6.1397
 Frc consts  --     0.4660                 0.3178                 0.4897
 IR Inten    --     7.3325                 5.9119                 0.7983
 Raman Activ --     7.9325                 0.4541                 0.6136

                    28                     29                     30
                     A                      A                      A
 Frequencies --   399.1140               415.2257               424.6749
 Red. masses --     4.7105                 6.0765                 5.4819
 Frc consts  --     0.4421                 0.6173                 0.5825
 IR Inten    --    17.7119                 2.2859                 4.4062
 Raman Activ --     2.2740                 5.8516                 3.0796

                    31                     32                     33
                     A                      A                      A
 Frequencies --   433.9196               463.8707               480.8059
 Red. masses --     4.5033                 4.1437                 4.1094
 Frc consts  --     0.4996                 0.5253                 0.5597
 IR Inten    --     2.6827                 3.4718                 9.4647
 Raman Activ --     1.3863                 3.4331                 0.3358

                    34                     35                     36
                     A                      A                      A
 Frequencies --   501.3439               511.7443               557.2787
 Red. masses --     4.0780                 3.2952                 3.5606
 Frc consts  --     0.6039                 0.5084                 0.6515
 IR Inten    --     5.3862                15.6895                 9.9889
 Raman Activ --     3.8723                 2.8837                 1.4113

                    37                     38                     39
                     A                      A                      A
 Frequencies --   574.9774               590.5349               609.2702
 Red. masses --     2.6789                 6.6649                 4.4320
 Frc consts  --     0.5218                 1.3694                 0.9693
 IR Inten    --    40.0210                 5.2127                 9.7937
 Raman Activ --     0.2199                 0.5708                 0.6307

                    40                     41                     42
                     A                      A                      A
 Frequencies --   622.8527               679.6758               703.2088
 Red. masses --     5.9337                 5.7257                 1.0601
 Frc consts  --     1.3563                 1.5584                 0.3089
 IR Inten    --    36.9613                10.5332               105.1803
 Raman Activ --     1.3611                 0.6246                 1.8695

                    43                     44                     45
                     A                      A                      A
 Frequencies --   746.9871               749.0758               763.4570
 Red. masses --     1.0909                 1.0723                 1.0821
 Frc consts  --     0.3586                 0.3545                 0.3716
 IR Inten    --    83.1034                95.4859               123.4975
 Raman Activ --     1.7751                 1.6283                 1.5256

                    46                     47                     48
                     A                      A                      A
 Frequencies --   797.4212               844.3173               848.4300
 Red. masses --     1.0648                 1.5663                 1.4128
 Frc consts  --     0.3989                 0.6579                 0.5992
 IR Inten    --    65.4372                19.8184                14.7617
 Raman Activ --     0.8834                 0.7748                 0.2859

                    49                     50                     51
                     A                      A                      A
 Frequencies --   872.6081               921.8990               946.8791
 Red. masses --     1.3798                 6.0654                 5.7442
 Frc consts  --     0.6190                 3.0372                 3.0343
 IR Inten    --    43.5911               114.4389                62.7281
 Raman Activ --     0.4899                 3.0669                 0.7284

                    52                     53                     54
                     A                      A                      A
 Frequencies --   980.0924               981.3571               988.8555
 Red. masses --     5.9958                 6.2556                 5.4278
 Frc consts  --     3.3934                 3.5495                 3.1271
 IR Inten    --    57.9741               132.5016                50.6483
 Raman Activ --     3.3732                 1.6811                 1.3699

                    55                     56                     57
                     A                      A                      A
 Frequencies --   997.3166              1008.9431              1016.7897
 Red. masses --     5.3669                 7.0091                 5.9876
 Frc consts  --     3.1452                 4.2038                 3.6473
 IR Inten    --   427.7262                12.5241               120.3205
 Raman Activ --     2.7726                 1.0423                 1.6431

                    58                     59                     60
                     A                      A                      A
 Frequencies --  1033.9479              1055.8184              1063.7334
 Red. masses --     5.6666                 3.9462                 3.9779
 Frc consts  --     3.5692                 2.5918                 2.6520
 IR Inten    --   301.4956               174.0849                78.1906
 Raman Activ --     3.1605                 8.9817                 3.6529

                    61                     62                     63
                     A                      A                      A
 Frequencies --  1068.8482              1077.5398              1078.8722
 Red. masses --     5.8564                 4.7500                 4.9246
 Frc consts  --     3.9420                 3.2495                 3.3773
 IR Inten    --     3.7591                62.3783                 9.5397
 Raman Activ --     1.9417                 9.2136                10.8662

                    64                     65                     66
                     A                      A                      A
 Frequencies --  1105.2079              1109.3727              1114.1942
 Red. masses --     3.5156                 2.3081                 2.8994
 Frc consts  --     2.5301                 1.6736                 2.1207
 IR Inten    --    35.1138                87.2275                54.3427
 Raman Activ --    12.5504                 5.8112                 2.9791

                    67                     68                     69
                     A                      A                      A
 Frequencies --  1121.4808              1135.0211              1141.0689
 Red. masses --     2.4370                 2.8152                 3.2946
 Frc consts  --     1.8059                 2.1368                 2.5274
 IR Inten    --     4.7157                44.1716                25.7213
 Raman Activ --     3.8457                 2.0383                 3.5617

                    70                     71                     72
                     A                      A                      A
 Frequencies --  1151.0056              1157.4301              1157.5746
 Red. masses --     2.4262                 1.6199                 1.9760
 Frc consts  --     1.8938                 1.2786                 1.5600
 IR Inten    --    42.3939                12.8723                 7.1524
 Raman Activ --     5.2115                 5.6859                 3.3430

                    73                     74                     75
                     A                      A                      A
 Frequencies --  1162.1317              1168.0498              1178.9924
 Red. masses --     1.8143                 2.0781                 1.7097
 Frc consts  --     1.4436                 1.6705                 1.4002
 IR Inten    --    26.9803                 2.9515                12.4437
 Raman Activ --     1.9011                 0.8213                 1.7931

                    76                     77                     78
                     A                      A                      A
 Frequencies --  1197.3695              1214.0184              1231.6260
 Red. masses --     1.3454                 1.4934                 1.2423
 Frc consts  --     1.1365                 1.2968                 1.1103
 IR Inten    --     6.9710                10.1864                 4.3690
 Raman Activ --     1.2776                 3.5239                 2.3008

                    79                     80                     81
                     A                      A                      A
 Frequencies --  1241.7779              1251.0251              1261.7409
 Red. masses --     1.3200                 1.2131                 1.2575
 Frc consts  --     1.1993                 1.1186                 1.1795
 IR Inten    --     5.1933                 4.0399                25.8047
 Raman Activ --     1.0159                 1.4226                 1.0232

                    82                     83                     84
                     A                      A                      A
 Frequencies --  1269.3703              1279.2344              1285.3650
 Red. masses --     1.2110                 1.3685                 1.2241
 Frc consts  --     1.1497                 1.3194                 1.1916
 IR Inten    --     7.1304                32.6193                 1.4820
 Raman Activ --     0.5599                 0.4918                 1.7937

                    85                     86                     87
                     A                      A                      A
 Frequencies --  1288.7883              1292.8490              1301.1027
 Red. masses --     1.2058                 1.3358                 1.2694
 Frc consts  --     1.1800                 1.3155                 1.2661
 IR Inten    --     7.0359                15.8652                31.4179
 Raman Activ --     7.8896                 3.7544                 9.2248

                    88                     89                     90
                     A                      A                      A
 Frequencies --  1308.0932              1322.0634              1330.6155
 Red. masses --     1.2067                 1.1775                 1.2553
 Frc consts  --     1.2165                 1.2126                 1.3095
 IR Inten    --     5.5252                35.5191                30.0585
 Raman Activ --     3.9194                 5.3552                10.3320

                    91                     92                     93
                     A                      A                      A
 Frequencies --  1336.5370              1340.5095              1357.7265
 Red. masses --     1.2194                 1.1839                 1.2545
 Frc consts  --     1.2834                 1.2535                 1.3626
 IR Inten    --    31.0569                31.8190                11.8244
 Raman Activ --     1.1148                 0.5208                 4.6171

                    94                     95                     96
                     A                      A                      A
 Frequencies --  1361.0021              1363.6494              1372.6037
 Red. masses --     1.2798                 1.4011                 1.5020
 Frc consts  --     1.3967                 1.5351                 1.6673
 IR Inten    --    27.4717                15.8432                11.6209
 Raman Activ --     2.4225                 7.9284                 5.5080

                    97                     98                     99
                     A                      A                      A
 Frequencies --  1373.1456              1381.6972              1384.7762
 Red. masses --     1.5122                 1.4898                 1.5138
 Frc consts  --     1.6799                 1.6757                 1.7103
 IR Inten    --     3.8839                 3.5002                 4.2104
 Raman Activ --     5.4491                 2.2254                 6.3286

                   100                    101                    102
                     A                      A                      A
 Frequencies --  1445.1847              1451.5772              1460.0690
 Red. masses --     1.3616                 1.3500                 1.2070
 Frc consts  --     1.6755                 1.6760                 1.5160
 IR Inten    --    48.2462                25.0798                 9.2794
 Raman Activ --     0.7404                 1.7822                 4.9193

                   103                    104                    105
                     A                      A                      A
 Frequencies --  1463.6784              1465.7288              1468.6861
 Red. masses --     1.3396                 1.2466                 1.1312
 Frc consts  --     1.6909                 1.5779                 1.4376
 IR Inten    --    20.6069                11.4451                 0.8267
 Raman Activ --     1.8373                 0.9840                 3.1948

                   106                    107                    108
                     A                      A                      A
 Frequencies --  1498.1706              1512.2261              3249.9868
 Red. masses --     1.2810                 1.2552                 1.0765
 Frc consts  --     1.6940                 1.6912                 6.6993
 IR Inten    --    33.9055                50.2481                 8.8534
 Raman Activ --     0.7942                 1.5665                99.8775

                   109                    110                    111
                     A                      A                      A
 Frequencies --  3252.9503              3254.2001              3261.1279
 Red. masses --     1.0586                 1.0649                 1.0765
 Frc consts  --     6.5999                 6.6446                 6.7452
 IR Inten    --    26.0432               369.7337                10.6254
 Raman Activ --    81.9994                21.8656               221.1796

                   112                    113                    114
                     A                      A                      A
 Frequencies --  3266.3867              3268.0552              3270.1888
 Red. masses --     1.0716                 1.0796                 1.0809
 Frc consts  --     6.7360                 6.7937                 6.8106
 IR Inten    --   154.1212                50.7680                21.7852
 Raman Activ --   149.8692                86.3223                11.6648

                   115                    116                    117
                     A                      A                      A
 Frequencies --  3272.6126              3280.0015              3282.5644
 Red. masses --     1.0805                 1.0840                 1.0854
 Frc consts  --     6.8179                 6.8714                 6.8910
 IR Inten    --    43.2438                 9.8147                 6.6368
 Raman Activ --   138.4906               116.9458                20.5868

                   118                    119                    120
                     A                      A                      A
 Frequencies --  3283.8399              3291.2398              3294.9182
 Red. masses --     1.0845                 1.0727                 1.0870
 Frc consts  --     6.8906                 6.8464                 6.9530
 IR Inten    --    18.3437               599.2205                28.8476
 Raman Activ --    28.3629               127.3754                13.1558

                   121                    122                    123
                     A                      A                      A
 Frequencies --  3296.6874              3307.8973              3313.2595
 Red. masses --     1.0849                 1.1041                 1.1053
 Frc consts  --     6.9470                 7.1178                 7.1489
 IR Inten    --   147.5019                55.9331                48.1796
 Raman Activ --    15.8207                40.2294                48.5738

                   124                    125                    126
                     A                      A                      A
 Frequencies --  3355.6335              3356.7672              3356.9810
 Red. masses --     1.0653                 1.0666                 1.0671
 Frc consts  --     7.0677                 7.0808                 7.0852
 IR Inten    --    35.3849                58.7870                57.3559
 Raman Activ --    97.0132               139.5703               155.3506

                   127                    128                    129
                     A                      A                      A
 Frequencies --  3359.2841              3875.4107              3877.8416
 Red. masses --     1.0657                 1.0675                 1.0674
 Frc consts  --     7.0859                 9.4465                 9.4573
 IR Inten    --    37.9981                72.4282                70.3119
 Raman Activ --   129.9305                89.5802               126.3077

 - Thermochemistry -
 -------------------
 Temperature   298.150 Kelvin.  Pressure   1.00000 Atm.
 Atom     1 has atomic number  8 and mass  15.99491

 Molecular mass:   342.11621 amu.
 Principal axes and moments of inertia in atomic units:
                           1         2         3
     Eigenvalues --  4565.96419********************
           X            0.99997   0.00793   0.00060
           Y           -0.00793   0.99997   0.00200
           Z           -0.00058  -0.00201   1.00000
 This molecule is an asymmetric top.
 Rotational symmetry number  1.
 Warning -- assumption of classical behavior for rotation
           may cause significant error
 Rotational temperatures (Kelvin)      0.01897     0.00699     0.00525
 Rotational constants (GHZ):           0.39526     0.14560     0.10939
    6 imaginary frequencies ignored.
 Zero-point vibrational energy     973220.5 (Joules/Mol)
                                  232.60527 (Kcal/Mol)
 Warning -- explicit consideration of  33 degrees of freedom as
           vibrations may cause significant error
 Vibrational temperatures:     55.57    67.19   107.02   120.72   134.66
          (Kelvin)            156.44   219.12   232.95   264.10   273.50
                              326.73   371.25   384.92   390.85   430.52
                              434.04   452.13   467.18   484.92   509.04
                              529.34   574.24   597.42   611.01   624.31
                              667.41   691.77   721.32   736.28   801.80
                              827.26   849.65   876.60   896.14   977.90
                             1011.76  1074.75  1077.75  1098.44  1147.31
                             1214.78  1220.70  1255.49  1326.41  1362.35
                             1410.13  1411.95  1422.74  1434.91  1451.64
                             1462.93  1487.62  1519.09  1530.47  1537.83
                             1550.34  1552.25  1590.15  1596.14  1603.07
                             1613.56  1633.04  1641.74  1656.04  1665.28
                             1665.49  1672.05  1680.56  1696.31  1722.75
                             1746.70  1772.03  1786.64  1799.94  1815.36
                             1826.34  1840.53  1849.35  1854.28  1860.12
                             1871.99  1882.05  1902.15  1914.46  1922.98
                             1928.69  1953.46  1958.18  1961.98  1974.87
                             1975.65  1987.95  1992.38  2079.30  2088.49
                             2100.71  2105.90  2108.85  2113.11  2155.53
                             2175.75  4676.00  4680.26  4682.06  4692.03
                             4699.60  4702.00  4705.07  4708.55  4719.18
                             4722.87  4724.71  4735.35  4740.65  4743.19
                             4759.32  4767.04  4828.00  4829.63  4829.94
                             4833.25  5575.84  5579.34

 Zero-point correction=                           0.370680 (Hartree/Particle)
 Thermal correction to Energy=                    0.390045
 Thermal correction to Enthalpy=                  0.390989
 Thermal correction to Gibbs Free Energy=         0.323349
 Sum of electronic and zero-point Energies=          -1297.657740
 Sum of electronic and thermal Energies=             -1297.638375
 Sum of electronic and thermal Enthalpies=           -1297.637431
 Sum of electronic and thermal Free Energies=        -1297.705071

                     E (Thermal)             CV                S
                      KCal/Mol        Cal/Mol-Kelvin    Cal/Mol-Kelvin
 Total                  244.757             78.132            142.362
 Electronic               0.000              0.000              0.000
 Translational            0.889              2.981             43.384
 Rotational               0.889              2.981             35.189
 Vibrational            242.980             72.170             63.789
 Vibration     1          0.594              1.981              5.328
 Vibration     2          0.595              1.979              4.952
 Vibration     3          0.599              1.966              4.034
 Vibration     4          0.601              1.960              3.797
 Vibration     5          0.603              1.954              3.584
 Vibration     6          0.606              1.942              3.291
 Vibration     7          0.619              1.900              2.643
 Vibration     8          0.622              1.889              2.527
 Vibration     9          0.631              1.862              2.292
 Vibration    10          0.633              1.854              2.227
 Vibration    11          0.651              1.800              1.902
 Vibration    12          0.667              1.749              1.675
 Vibration    13          0.673              1.733              1.612
 Vibration    14          0.675              1.726              1.586
 Vibration    15          0.692              1.675              1.421
 Vibration    16          0.694              1.671              1.408
 Vibration    17          0.702              1.646              1.340
 Vibration    18          0.709              1.626              1.286
 Vibration    19          0.718              1.602              1.226
 Vibration    20          0.730              1.567              1.149
 Vibration    21          0.741              1.538              1.088
 Vibration    22          0.765              1.472              0.966
 Vibration    23          0.779              1.437              0.908
 Vibration    24          0.787              1.417              0.876
 Vibration    25          0.795              1.396              0.846
 Vibration    26          0.821              1.330              0.755
 Vibration    27          0.837              1.293              0.708
 Vibration    28          0.857              1.247              0.655
 Vibration    29          0.867              1.224              0.629
 Vibration    30          0.913              1.124              0.529
 Vibration    31          0.931              1.085              0.495
 Vibration    32          0.948              1.052              0.466
 Vibration    33          0.968              1.012              0.434

 Normal termination of Gaussian 09 at Fri Feb 12 11:29:02 2016.
