 Gaussian 09, Revision B.01,
 Gaussian 09:  EM64L-G09RevB.01 12-Aug-2010

 -------------------------------------------------
 # freq=raman b3lyp/6-31+g(2d,p) geom=connectivity
 -------------------------------------------------

 -----------------
 300 5579/5579.com
 -----------------
 Symbolic Z-matrix:
 Charge =  0 Multiplicity = 1

                         Standard orientation:
 ---------------------------------------------------------------------
 Center     Atomic      Atomic             Coordinates (Angstroms)
 Number     Number       Type             X           Y           Z
 ---------------------------------------------------------------------
      1          8           0        4.981836   -0.493744   -0.542599
      2          6           0        3.762671   -0.201667    0.155789
      3          6           0        3.259874    1.204024   -0.127078
      4          8           0        4.296616    2.189116   -0.003247
      5          1           0        5.175912    1.778141   -0.245272
      6          6           0        1.843437    1.619850    0.234325
      7          8           0        1.459044    2.891667   -0.308564
      8          1           0        0.641598    3.243691    0.146849
      9          6           0        2.923528   -2.557794    0.248902
     10          8           0        4.204373   -3.194564    0.137492
     11          1           0        4.100477   -4.188015    0.095250
     12          6           0        2.665023   -1.157233   -0.283685
     13          8           0        1.370572   -0.814128    0.230482
     14          6           0        0.893839    0.490694   -0.129908
     15          8           0       -0.299897    0.697815    0.640151
     16          6           0       -1.499771    0.265478   -0.018280
     17          6           0       -1.929512   -1.169497    0.240695
     18          8           0       -1.083353   -2.069774   -0.488612
     19          1           0       -0.189494   -1.884745   -0.078752
     20          6           0       -3.338515   -1.624415   -0.105794
     21          8           0       -3.859059   -2.812536    0.505812
     22          1           0       -4.611036   -3.074145   -0.098947
     23          6           0       -2.349369    2.658791   -0.219524
     24          8           0       -1.321804    3.319755    0.532290
     25          1           0       -1.441340    4.311118    0.480302
     26          6           0       -2.626085    1.245707    0.267051
     27          8           0       -3.844391    0.853669   -0.383813
     28          6           0       -4.283045   -0.442958    0.045956
     29          8           0       -5.548881   -0.645158   -0.598610
     30          1           0       -6.216314   -0.843932    0.062164
     31          1           0       -3.250868    3.230444   -0.145957
     32          1           0       -2.051032    2.616625   -1.246226
     33          1           0       -2.795073    1.273923    1.323246
     34          1           0       -1.302961    0.330895   -1.067988
     35          1           0       -1.781527   -1.359949    1.283158
     36          1           0       -3.313973   -1.839344   -1.153698
     37          1           0       -4.485085   -0.359198    1.093364
     38          1           0        5.656382   -0.757250    0.087602
     39          1           0        2.217344   -3.203323   -0.230157
     40          1           0        2.679513   -2.539745    1.290550
     41          1           0        2.626240   -1.185490   -1.352608
     42          1           0        3.924987   -0.312120    1.207622
     43          1           0        3.164491    1.157018   -1.191781
     44          1           0        1.812323    1.718902    1.299276
     45          1           0        0.666541    0.523679   -1.174967
 ---------------------------------------------------------------------

 SCF Done:  E(RB3LYP) =  -1297.97631050     A.U. after   13 cycles

 The electronic state is 1-A.
 Alpha  occ. eigenvalues --  -19.19194 -19.18324 -19.18004 -19.17823 -19.17454
 Alpha  occ. eigenvalues --  -19.17291 -19.17188 -19.16654 -19.14846 -19.14596
 Alpha  occ. eigenvalues --  -19.14577 -10.30702 -10.29796 -10.25958 -10.25695
 Alpha  occ. eigenvalues --  -10.25660 -10.25416 -10.25138 -10.24938 -10.24895
 Alpha  occ. eigenvalues --  -10.24629 -10.24322 -10.24018  -1.10193  -1.08583
 Alpha  occ. eigenvalues --   -1.05629  -1.04802  -1.04220  -1.03917  -1.02949
 Alpha  occ. eigenvalues --   -1.02636  -1.01993  -1.01656  -1.00428  -0.82066
 Alpha  occ. eigenvalues --   -0.80765  -0.79094  -0.78608  -0.71978  -0.70236
 Alpha  occ. eigenvalues --   -0.67401  -0.65100  -0.63426  -0.62990  -0.60923
 Alpha  occ. eigenvalues --   -0.59660  -0.56218  -0.55766  -0.55166  -0.54818
 Alpha  occ. eigenvalues --   -0.54230  -0.53567  -0.52853  -0.52437  -0.51592
 Alpha  occ. eigenvalues --   -0.50325  -0.49957  -0.49541  -0.49025  -0.46386
 Alpha  occ. eigenvalues --   -0.45957  -0.45123  -0.44617  -0.43520  -0.42992
 Alpha  occ. eigenvalues --   -0.42691  -0.41944  -0.41635  -0.40174  -0.39474
 Alpha  occ. eigenvalues --   -0.38887  -0.38186  -0.37195  -0.36641  -0.36139
 Alpha  occ. eigenvalues --   -0.35830  -0.34352  -0.34279  -0.34153  -0.33673
 Alpha  occ. eigenvalues --   -0.32205  -0.31591  -0.31421  -0.30791  -0.30328
 Alpha  occ. eigenvalues --   -0.29540  -0.29067  -0.28193  -0.27720  -0.26731
 Alpha  occ. eigenvalues --   -0.26277
 Alpha virt. eigenvalues --   -0.01934  -0.01804  -0.01402  -0.00263   0.00414
 Alpha virt. eigenvalues --    0.00977   0.01915   0.02440   0.02781   0.03136
 Alpha virt. eigenvalues --    0.03635   0.04289   0.04877   0.05185   0.05653

 Mulliken atomic charges:
              1
     1  O   -0.527967
     2  C    0.009736
     3  C    0.223558
     4  O   -0.581348
     5  H    0.348176
     6  C   -0.062262
     7  O   -0.538737
     8  H    0.381843
     9  C   -0.334003
    10  O   -0.561198
    11  H    0.345706
    12  C    0.168593
    13  O   -0.252116
    14  C    0.190319
    15  O   -0.175588
    16  C    0.271884
    17  C    0.258925
    18  O   -0.526131
    19  H    0.368802
    20  C   -0.113743
    21  O   -0.530033
    22  H    0.342129
    23  C   -0.199392
    24  O   -0.562678
    25  H    0.356599
    26  C   -0.175144
    27  O   -0.243075
    28  C    0.194129
    29  O   -0.552687
    30  H    0.336323
    31  H    0.147371
    32  H    0.154415
    33  H    0.122222
    34  H    0.110503
    35  H    0.127642
    36  H    0.136840
    37  H    0.109718
    38  H    0.348767
    39  H    0.139897
    40  H    0.148317
    41  H    0.119232
    42  H    0.118666
    43  H    0.102204
    44  H    0.125676
    45  H    0.127907
 Sum of Mulliken atomic charges =   0.00000

 Dipole moment (field-independent basis, Debye):
    X=             -1.5697    Y=             -1.0073    Z=              1.8488  Tot=              2.6262
 Quadrupole moment (field-independent basis, Debye-Ang):
   XX=           -125.3398   YY=           -130.8013   ZZ=           -141.6434
   XY=            -16.7540   XZ=             -1.3709   YZ=              1.8264

  Exact polarizability: 232.508   1.189 199.740   0.233   0.145 143.643
 Approx polarizability: 272.871   0.163 259.423   1.008   1.551 240.679

 ******    6 imaginary frequencies (negative Signs) ******

                     1                      2                      3
                     A                      A                      A
 Frequencies --  -295.4306              -234.4107              -212.1540
 Red. masses --     1.7125                 1.2244                 1.3129
 Frc consts  --     0.0881                 0.0396                 0.0348
 IR Inten    --     4.5193               107.3947                79.0498
 Raman Activ --     0.0527                 0.7860                 0.5240

                     4                      5                      6
                     A                      A                      A
 Frequencies --  -211.5846               -75.7739               -59.8202
 Red. masses --     1.6030                 6.1562                 6.8460
 Frc consts  --     0.0423                 0.0208                 0.0144
 IR Inten    --    35.7709                 0.6738                 0.7771
 Raman Activ --     0.1041                 0.0205                 0.0207

                     7                      8                      9
                     A                      A                      A
 Frequencies --    45.5069                50.9924                55.3280
 Red. masses --     6.3123                 6.7769                 5.7588
 Frc consts  --     0.0077                 0.0104                 0.0104
 IR Inten    --     1.9362                 1.4569                 3.4681
 Raman Activ --     0.0335                 0.0905                 0.0593

                    10                     11                     12
                     A                      A                      A
 Frequencies --    81.3412                88.5374               109.0567
 Red. masses --     6.4891                 6.7106                 5.6056
 Frc consts  --     0.0253                 0.0310                 0.0393
 IR Inten    --     0.6022                 0.3087                 2.5598
 Raman Activ --     0.3147                 0.0310                 0.1850

                    13                     14                     15
                     A                      A                      A
 Frequencies --   145.3420               176.3781               181.6226
 Red. masses --     6.1278                 6.0236                 6.7393
 Frc consts  --     0.0763                 0.1104                 0.1310
 IR Inten    --     2.7794                 6.0749                 0.3217
 Raman Activ --     0.4200                 0.2365                 1.4717

                    16                     17                     18
                     A                      A                      A
 Frequencies --   192.8006               226.6669               257.4624
 Red. masses --     6.8342                 5.9466                 4.5758
 Frc consts  --     0.1497                 0.1800                 0.1787
 IR Inten    --     0.7654                 0.2058                12.2917
 Raman Activ --     0.2287                 0.9957                 0.4062

                    19                     20                     21
                     A                      A                      A
 Frequencies --   267.6258               283.6978               288.6926
 Red. masses --     5.7010                 4.8314                 5.0966
 Frc consts  --     0.2406                 0.2291                 0.2503
 IR Inten    --     5.1489                 2.2628                 1.6735
 Raman Activ --     0.2874                 0.1780                 0.2799

                    22                     23                     24
                     A                      A                      A
 Frequencies --   298.3647               311.5971               320.7452
 Red. masses --     5.3914                 5.6843                 6.5280
 Frc consts  --     0.2828                 0.3252                 0.3957
 IR Inten    --     4.0731                 5.8984                 2.3774
 Raman Activ --     0.7601                 1.1221                 2.9552

                    25                     26                     27
                     A                      A                      A
 Frequencies --   330.9508               354.4850               382.9690
 Red. masses --     6.2089                 4.5322                 6.8248
 Frc consts  --     0.4007                 0.3356                 0.5897
 IR Inten    --     4.6844                 5.5178                 1.8735
 Raman Activ --     6.3870                 0.9335                 1.5424

                    28                     29                     30
                     A                      A                      A
 Frequencies --   390.5196               407.1894               428.3981
 Red. masses --     5.2696                 4.4357                 5.6919
 Frc consts  --     0.4735                 0.4333                 0.6155
 IR Inten    --    12.9994                16.6635                 3.7593
 Raman Activ --     3.2349                 2.9201                 2.7287

                    31                     32                     33
                     A                      A                      A
 Frequencies --   447.5202               475.9478               478.0438
 Red. masses --     5.1603                 4.8619                 4.0767
 Frc consts  --     0.6089                 0.6489                 0.5489
 IR Inten    --     2.0439                 4.4168                19.0542
 Raman Activ --     2.8246                 2.8311                 4.1287

                    34                     35                     36
                     A                      A                      A
 Frequencies --   509.2858               523.7099               551.8437
 Red. masses --     3.7785                 3.5560                 3.7752
 Frc consts  --     0.5774                 0.5746                 0.6774
 IR Inten    --     4.4186                 6.8208                 6.5825
 Raman Activ --     3.9922                 2.2961                 1.6594

                    37                     38                     39
                     A                      A                      A
 Frequencies --   571.0971               586.2762               601.9184
 Red. masses --     3.1201                 5.8229                 4.9437
 Frc consts  --     0.5996                 1.1792                 1.0553
 IR Inten    --    47.0413                 2.3434                 2.3933
 Raman Activ --     0.3996                 1.2308                 0.3876

                    40                     41                     42
                     A                      A                      A
 Frequencies --   634.3855               660.0943               676.9009
 Red. masses --     4.0571                 1.1430                 5.0424
 Frc consts  --     0.9620                 0.2934                 1.3613
 IR Inten    --    40.5635               104.7945                18.0859
 Raman Activ --     1.1842                 1.6160                 1.0117

                    43                     44                     45
                     A                      A                      A
 Frequencies --   717.5078               723.0966               736.7264
 Red. masses --     1.0645                 1.0499                 1.0969
 Frc consts  --     0.3229                 0.3234                 0.3508
 IR Inten    --    90.9553               100.4793                95.8024
 Raman Activ --     1.1407                 1.7797                 0.9625

                    46                     47                     48
                     A                      A                      A
 Frequencies --   744.2292               843.6134               851.8237
 Red. masses --     1.0721                 1.4924                 1.3404
 Frc consts  --     0.3499                 0.6258                 0.5730
 IR Inten    --   127.2296                44.2672                53.8037
 Raman Activ --     3.3695                 2.5986                 0.6715

                    49                     50                     51
                     A                      A                      A
 Frequencies --   865.7656               924.3893               964.7175
 Red. masses --     1.6024                 6.7039                 5.0086
 Frc consts  --     0.7077                 3.3751                 2.7464
 IR Inten    --    16.7134               117.5288               101.2949
 Raman Activ --     1.2038                 2.1803                 0.8681

                    52                     53                     54
                     A                      A                      A
 Frequencies --   972.0890               983.2103               990.3833
 Red. masses --     6.4990                 4.7520                 8.3271
 Frc consts  --     3.6183                 2.7066                 4.8123
 IR Inten    --   103.5842               170.9359                14.8438
 Raman Activ --     1.4990                 0.9498                 1.9870

                    55                     56                     57
                     A                      A                      A
 Frequencies --   999.7184              1007.1087              1035.2304
 Red. masses --     6.0528                 6.0539                 6.0656
 Frc consts  --     3.5642                 3.6177                 3.8300
 IR Inten    --   335.5729                58.1738               134.6709
 Raman Activ --     1.0239                 3.9291                 1.8783

                    58                     59                     60
                     A                      A                      A
 Frequencies --  1040.3777              1048.2036              1057.1666
 Red. masses --     5.4784                 5.0557                 5.9825
 Frc consts  --     3.4937                 3.2728                 3.9393
 IR Inten    --   322.9104                32.2623                95.8400
 Raman Activ --     1.8762                 5.5491                 3.1514

                    61                     62                     63
                     A                      A                      A
 Frequencies --  1059.0566              1069.2451              1072.5567
 Red. masses --     5.9132                 4.0313                 5.8497
 Frc consts  --     3.9076                 2.7155                 3.9648
 IR Inten    --   108.8599                13.2657                72.4451
 Raman Activ --     3.1662                 3.1704                 9.2205

                    64                     65                     66
                     A                      A                      A
 Frequencies --  1096.9395              1099.9391              1123.2108
 Red. masses --     4.0685                 3.8269                 2.7180
 Frc consts  --     2.8844                 2.7279                 2.0203
 IR Inten    --    43.8399                11.3300                 6.4803
 Raman Activ --    19.3756                 3.9783                 1.6565

                    67                     68                     69
                     A                      A                      A
 Frequencies --  1131.7476              1140.7429              1145.8315
 Red. masses --     3.0199                 2.6675                 2.1172
 Frc consts  --     2.2790                 2.0452                 1.6378
 IR Inten    --     6.4488                 9.4925                29.0827
 Raman Activ --     1.4256                 4.5123                 2.3078

                    70                     71                     72
                     A                      A                      A
 Frequencies --  1155.1814              1159.5783              1164.0610
 Red. masses --     1.7960                 2.2789                 2.1741
 Frc consts  --     1.4121                 1.8054                 1.7358
 IR Inten    --    22.0797                50.2499                28.2365
 Raman Activ --     5.6681                 5.3380                 4.4060

                    73                     74                     75
                     A                      A                      A
 Frequencies --  1179.1317              1188.3145              1202.6940
 Red. masses --     1.6854                 1.4768                 1.5440
 Frc consts  --     1.3807                 1.2286                 1.3158
 IR Inten    --     5.4839                18.8128                 2.6609
 Raman Activ --     2.6470                 2.6777                 2.2057

                    76                     77                     78
                     A                      A                      A
 Frequencies --  1208.0269              1214.3514              1247.0196
 Red. masses --     1.4429                 1.2693                 1.2556
 Frc consts  --     1.2406                 1.1028                 1.1504
 IR Inten    --     2.8020                17.1024                10.3627
 Raman Activ --     1.9632                 1.5597                 0.9921

                    79                     80                     81
                     A                      A                      A
 Frequencies --  1252.4342              1259.4787              1270.4963
 Red. masses --     1.2962                 1.2443                 1.2383
 Frc consts  --     1.1979                 1.1630                 1.1776
 IR Inten    --     0.7118                 2.1656                 6.1113
 Raman Activ --     1.2422                 2.9434                 2.5639

                    82                     83                     84
                     A                      A                      A
 Frequencies --  1277.1175              1289.5982              1294.5191
 Red. masses --     1.3613                 1.2442                 1.4169
 Frc consts  --     1.3082                 1.2191                 1.3989
 IR Inten    --    16.1159                10.0140                 9.4802
 Raman Activ --     1.8261                 2.5392                 0.7362

                    85                     86                     87
                     A                      A                      A
 Frequencies --  1302.6523              1309.0872              1320.0701
 Red. masses --     1.2612                 1.2170                 1.1683
 Frc consts  --     1.2610                 1.2288                 1.1995
 IR Inten    --    13.5115                36.6789                 2.2793
 Raman Activ --     5.3341                 0.8291                 1.0058

                    88                     89                     90
                     A                      A                      A
 Frequencies --  1322.2520              1339.2657              1341.2324
 Red. masses --     1.3032                 1.2517                 1.3535
 Frc consts  --     1.3425                 1.3228                 1.4345
 IR Inten    --     8.5016                53.1393                 4.0643
 Raman Activ --     5.1437                 2.9917                 7.5454

                    91                     92                     93
                     A                      A                      A
 Frequencies --  1345.6667              1357.9162              1365.0011
 Red. masses --     1.1850                 1.1838                 1.5413
 Frc consts  --     1.2643                 1.2861                 1.6920
 IR Inten    --    55.9305                 7.5068                 8.5358
 Raman Activ --     5.3203                10.1890                 7.1858

                    94                     95                     96
                     A                      A                      A
 Frequencies --  1368.5683              1373.1869              1391.0048
 Red. masses --     1.4322                 1.2985                 1.3777
 Frc consts  --     1.5805                 1.4426                 1.5706
 IR Inten    --    10.2765                17.7388                41.0750
 Raman Activ --     1.7893                 4.7661                 3.2378

                    97                     98                     99
                     A                      A                      A
 Frequencies --  1398.5449              1399.3255              1411.4239
 Red. masses --     1.2887                 1.3572                 1.3168
 Frc consts  --     1.4851                 1.5657                 1.5456
 IR Inten    --     8.5281                 9.5771                 2.7238
 Raman Activ --     3.1510                 1.3254                 8.2355

                   100                    101                    102
                     A                      A                      A
 Frequencies --  1442.5949              1451.7757              1457.6695
 Red. masses --     1.2934                 1.4455                 1.3250
 Frc consts  --     1.5859                 1.7951                 1.6587
 IR Inten    --    23.2901                27.4235                15.9364
 Raman Activ --     1.4214                 1.7478                 2.9011

                   103                    104                    105
                     A                      A                      A
 Frequencies --  1472.3187              1473.0129              1474.4915
 Red. masses --     1.1769                 1.1209                 1.2874
 Frc consts  --     1.5031                 1.4330                 1.6491
 IR Inten    --    21.0725                 4.3342                27.3234
 Raman Activ --     3.0384                 2.6790                 3.5810

                   106                    107                    108
                     A                      A                      A
 Frequencies --  1476.1792              1537.5249              3228.4007
 Red. masses --     1.2033                 1.2293                 1.0774
 Frc consts  --     1.5448                 1.7122                 6.6163
 IR Inten    --    19.4867                35.3588                20.1016
 Raman Activ --     1.4511                 1.0916                91.7746

                   109                    110                    111
                     A                      A                      A
 Frequencies --  3256.1158              3256.1824              3262.5631
 Red. masses --     1.0601                 1.0800                 1.0574
 Frc consts  --     6.6219                 6.7469                 6.6311
 IR Inten    --    51.5106                11.4770                30.9895
 Raman Activ --   119.8899                43.6936                87.6865

                   112                    113                    114
                     A                      A                      A
 Frequencies --  3266.1567              3270.9146              3273.8770
 Red. masses --     1.0811                 1.0825                 1.0826
 Frc consts  --     6.7950                 6.8235                 6.8366
 IR Inten    --     2.2363                 5.8367                 5.6283
 Raman Activ --   108.9587                14.5922                17.1561

                   115                    116                    117
                     A                      A                      A
 Frequencies --  3277.5237              3279.9352              3286.9125
 Red. masses --     1.0835                 1.0844                 1.0873
 Frc consts  --     6.8575                 6.8735                 6.9213
 IR Inten    --    18.0978                 0.6527                16.1025
 Raman Activ --   194.7352                13.5939                19.1661

                   118                    119                    120
                     A                      A                      A
 Frequencies --  3289.8783              3293.2039              3308.7011
 Red. masses --     1.0868                 1.0857                 1.0808
 Frc consts  --     6.9302                 6.9376                 6.9714
 IR Inten    --    22.1059               109.0825               169.9533
 Raman Activ --    13.8640                 6.6957               113.0944

                   121                    122                    123
                     A                      A                      A
 Frequencies --  3311.2870              3323.2114              3334.5548
 Red. masses --     1.0880                 1.1072                 1.0684
 Frc consts  --     7.0287                 7.2043                 6.9997
 IR Inten    --   192.2026                23.2266               471.7702
 Raman Activ --   133.2343                52.8969               146.3754

                   124                    125                    126
                     A                      A                      A
 Frequencies --  3360.6268              3369.7490              3373.1702
 Red. masses --     1.0656                 1.0677                 1.0685
 Frc consts  --     7.0906                 7.1434                 7.1631
 IR Inten    --    45.0542                44.0338                55.0005
 Raman Activ --   101.1788               136.9893               155.6338

                   127                    128                    129
                     A                      A                      A
 Frequencies --  3376.0921              3891.3267              3893.7394
 Red. masses --     1.0659                 1.0675                 1.0675
 Frc consts  --     7.1582                 9.5235                 9.5357
 IR Inten    --    53.1797                82.9836                87.3577
 Raman Activ --   114.3803                94.1850                90.3710

 - Thermochemistry -
 -------------------
 Temperature   298.150 Kelvin.  Pressure   1.00000 Atm.
 Atom     1 has atomic number  8 and mass  15.99491

 Molecular mass:   342.11621 amu.
 Principal axes and moments of inertia in atomic units:
                           1         2         3
     Eigenvalues --  4490.80282********************
           X            0.99997  -0.00782  -0.00047
           Y            0.00782   0.99997  -0.00125
           Z            0.00048   0.00124   1.00000
 This molecule is an asymmetric top.
 Rotational symmetry number  1.
 Warning -- assumption of classical behavior for rotation
           may cause significant error
 Rotational temperatures (Kelvin)      0.01929     0.00699     0.00526
 Rotational constants (GHZ):           0.40187     0.14566     0.10962
    6 imaginary frequencies ignored.
 Zero-point vibrational energy     975643.2 (Joules/Mol)
                                  233.18433 (Kcal/Mol)
 Warning -- explicit consideration of  33 degrees of freedom as
           vibrations may cause significant error
 Vibrational temperatures:     65.47    73.37    79.60   117.03   127.39
          (Kelvin)            156.91   209.11   253.77   261.31   277.40
                              326.12   370.43   385.05   408.18   415.36
                              429.28   448.32   461.48   476.16   510.02
                              551.01   561.87   585.85   616.37   643.88
                              684.78   687.80   732.75   753.50   793.98
                              821.68   843.52   866.03   912.74   949.73
                              973.91  1032.33  1040.37  1059.98  1070.78
                             1213.77  1225.58  1245.64  1329.99  1388.01
                             1398.62  1414.62  1424.94  1438.37  1449.00
                             1489.46  1496.87  1508.13  1521.03  1523.74
                             1538.40  1543.17  1578.25  1582.57  1616.05
                             1628.33  1641.27  1648.59  1662.05  1668.37
                             1674.82  1696.51  1709.72  1730.41  1738.08
                             1747.18  1794.18  1801.97  1812.11  1827.96
                             1837.48  1855.44  1862.52  1874.22  1883.48
                             1899.28  1902.42  1926.90  1929.73  1936.11
                             1953.74  1963.93  1969.06  1975.71  2001.34
                             2012.19  2013.31  2030.72  2075.57  2088.78
                             2097.26  2118.34  2119.33  2121.46  2123.89
                             2212.15  4644.94  4684.82  4684.91  4694.09
                             4699.27  4706.11  4710.37  4715.62  4719.09
                             4729.13  4733.40  4738.18  4760.48  4764.20
                             4781.35  4797.67  4835.19  4848.31  4853.23
                             4857.44  5598.74  5602.22

 Zero-point correction=                           0.371603 (Hartree/Particle)
 Thermal correction to Energy=                    0.391016
 Thermal correction to Enthalpy=                  0.391960
 Thermal correction to Gibbs Free Energy=         0.324200
 Sum of electronic and zero-point Energies=          -1297.604708
 Sum of electronic and thermal Energies=             -1297.585294
 Sum of electronic and thermal Enthalpies=           -1297.584350
 Sum of electronic and thermal Free Energies=        -1297.652111

                     E (Thermal)             CV                S
                      KCal/Mol        Cal/Mol-Kelvin    Cal/Mol-Kelvin
 Total                  245.366             78.203            142.614
 Electronic               0.000              0.000              0.000
 Translational            0.889              2.981             43.384
 Rotational               0.889              2.981             35.170
 Vibrational            243.589             72.242             64.060
 Vibration     1          0.595              1.979              5.004
 Vibration     2          0.595              1.977              4.779
 Vibration     3          0.596              1.975              4.617
 Vibration     4          0.600              1.962              3.858
 Vibration     5          0.601              1.957              3.692
 Vibration     6          0.606              1.942              3.286
 Vibration     7          0.617              1.908              2.732
 Vibration     8          0.628              1.871              2.366
 Vibration     9          0.630              1.865              2.312
 Vibration    10          0.635              1.850              2.201
 Vibration    11          0.650              1.800              1.905
 Vibration    12          0.667              1.750              1.679
 Vibration    13          0.673              1.733              1.611
 Vibration    14          0.682              1.704              1.511
 Vibration    15          0.685              1.695              1.482
 Vibration    16          0.691              1.677              1.426
 Vibration    17          0.700              1.652              1.354
 Vibration    18          0.706              1.634              1.306
 Vibration    19          0.713              1.614              1.255
 Vibration    20          0.730              1.566              1.146
 Vibration    21          0.752              1.507              1.027
 Vibration    22          0.758              1.490              0.998
 Vibration    23          0.772              1.455              0.937
 Vibration    24          0.790              1.408              0.864
 Vibration    25          0.807              1.366              0.803
 Vibration    26          0.833              1.303              0.721
 Vibration    27          0.835              1.299              0.715
 Vibration    28          0.864              1.229              0.635
 Vibration    29          0.879              1.198              0.601
 Vibration    30          0.907              1.136              0.540
 Vibration    31          0.927              1.094              0.502
 Vibration    32          0.943              1.061              0.474
 Vibration    33          0.960              1.028              0.446

 Normal termination of Gaussian 09 at Wed Mar 23 06:24:53 2016.
