 Gaussian 09, Revision B.01,
 Gaussian 09:  EM64L-G09RevB.01 12-Aug-2010

 -------------------------------------------------
 # freq=raman b3lyp/6-31+g(2d,p) geom=connectivity
 -------------------------------------------------

 -----------------
 310 9021/9021.com
 -----------------
 Symbolic Z-matrix:
 Charge =  0 Multiplicity = 1

                         Standard orientation:
 ---------------------------------------------------------------------
 Center     Atomic      Atomic             Coordinates (Angstroms)
 Number     Number       Type             X           Y           Z
 ---------------------------------------------------------------------
      1          8           0        5.114568   -0.361980   -0.467216
      2          6           0        3.837524   -0.065116    0.117034
      3          6           0        3.285198    1.306263   -0.232961
      4          8           0        4.236506    2.305740    0.160781
      5          1           0        5.185068    2.080707   -0.060777
      6          6           0        1.859306    1.572530    0.222740
      7          8           0        1.398035    2.769399   -0.419802
      8          1           0        0.610281    3.005307    0.149965
      9          6           0        3.207556   -2.558247    0.104117
     10          8           0        4.412032   -3.243261   -0.269383
     11          1           0        4.094191   -4.141452   -0.572253
     12          6           0        2.820661   -1.132560   -0.252877
     13          8           0        1.528797   -0.894285    0.323583
     14          6           0        0.951179    0.376300   -0.012132
     15          8           0       -0.321324    0.508261    0.637359
     16          6           0       -1.596206    0.279748    0.018234
     17          6           0       -2.118861   -1.081045    0.448804
     18          8           0       -1.118512   -2.108100    0.411620
     19          1           0       -0.291328   -1.878266    0.924643
     20          6           0       -3.401914   -1.488772   -0.256694
     21          8           0       -3.957152   -2.762968    0.102404
     22          1           0       -4.914720   -2.846688   -0.172550
     23          6           0       -2.280495    2.493022   -0.295333
     24          8           0       -1.260319    3.240331    0.382437
     25          1           0       -1.494021    4.193073    0.187460
     26          6           0       -2.789006    1.182718    0.285077
     27          8           0       -4.044465    0.840548   -0.319388
     28          6           0       -4.458026   -0.461079    0.118862
     29          8           0       -5.591769   -0.574367   -0.752453
     30          1           0       -6.388811   -0.681545   -0.228203
     31          1           0       -3.126486    3.139645   -0.400586
     32          1           0       -1.914248    2.280539   -1.277990
     33          1           0       -2.922309    1.290774    1.341227
     34          1           0       -4.725646   -0.484902    1.154580
     35          1           0       -3.244517   -1.460431   -1.314675
     36          1           0       -2.381041   -0.973359    1.480582
     37          1           0       -1.440165    0.253268   -1.039996
     38          1           0        2.407007   -3.170491   -0.255299
     39          1           0        3.170971   -2.605663    1.172440
     40          1           0        5.747336   -0.555852    0.228211
     41          1           0        3.960393   -0.095898    1.179510
     42          1           0        3.253811    1.341158   -1.301931
     43          1           0        1.883755    1.758147    1.276233
     44          1           0        0.754296    0.350587   -1.063548
     45          1           0        2.703516   -1.095776   -1.315809
 ---------------------------------------------------------------------

 SCF Done:  E(RB3LYP) =  -1297.94991184     A.U. after   13 cycles

 The electronic state is 1-A.
 Alpha  occ. eigenvalues --  -19.18822 -19.18493 -19.18319 -19.18269 -19.18118
 Alpha  occ. eigenvalues --  -19.16759 -19.16315 -19.16138 -19.14754 -19.14683
 Alpha  occ. eigenvalues --  -19.13905 -10.31048 -10.30933 -10.26038 -10.25960
 Alpha  occ. eigenvalues --  -10.25329 -10.25263 -10.24826 -10.24736 -10.24663
 Alpha  occ. eigenvalues --  -10.24300 -10.24260 -10.23774  -1.10293  -1.09084
 Alpha  occ. eigenvalues --   -1.05328  -1.04891  -1.03912  -1.03495  -1.02779
 Alpha  occ. eigenvalues --   -1.02533  -1.02252  -1.00584  -1.00209  -0.83178
 Alpha  occ. eigenvalues --   -0.80159  -0.79566  -0.78633  -0.71642  -0.69832
 Alpha  occ. eigenvalues --   -0.67715  -0.64972  -0.63148  -0.62380  -0.61642
 Alpha  occ. eigenvalues --   -0.59949  -0.56789  -0.55768  -0.55204  -0.54751
 Alpha  occ. eigenvalues --   -0.53774  -0.53438  -0.52820  -0.51916  -0.51449
 Alpha  occ. eigenvalues --   -0.51162  -0.50195  -0.49119  -0.48156  -0.46140
 Alpha  occ. eigenvalues --   -0.45806  -0.45269  -0.44771  -0.43635  -0.43066
 Alpha  occ. eigenvalues --   -0.42668  -0.41976  -0.41369  -0.40595  -0.39908
 Alpha  occ. eigenvalues --   -0.38590  -0.38521  -0.37248  -0.35762  -0.35075
 Alpha  occ. eigenvalues --   -0.34825  -0.34754  -0.34135  -0.33646  -0.33320
 Alpha  occ. eigenvalues --   -0.32634  -0.31248  -0.30669  -0.30535  -0.30273
 Alpha  occ. eigenvalues --   -0.29127  -0.28444  -0.28355  -0.27920  -0.26452
 Alpha  occ. eigenvalues --   -0.26371
 Alpha virt. eigenvalues --   -0.02218  -0.01958  -0.01700  -0.00239   0.00125
 Alpha virt. eigenvalues --    0.00711   0.01781   0.02114   0.03249   0.03399
 Alpha virt. eigenvalues --    0.03597   0.03857   0.04298   0.05345   0.05515

 Mulliken atomic charges:
              1
     1  O   -0.522229
     2  C   -0.167372
     3  C    0.395200
     4  O   -0.576551
     5  H    0.347096
     6  C   -0.215563
     7  O   -0.503121
     8  H    0.382425
     9  C   -0.404409
    10  O   -0.507129
    11  H    0.334302
    12  C    0.325333
    13  O   -0.268459
    14  C    0.275131
    15  O   -0.298521
    16  C    0.174767
    17  C    0.220984
    18  O   -0.547660
    19  H    0.360512
    20  C    0.109230
    21  O   -0.545982
    22  H    0.340726
    23  C   -0.312833
    24  O   -0.544082
    25  H    0.353114
    26  C    0.013511
    27  O   -0.226206
    28  C    0.106676
    29  O   -0.530972
    30  H    0.331804
    31  H    0.129876
    32  H    0.149396
    33  H    0.128816
    34  H    0.143658
    35  H    0.129324
    36  H    0.102870
    37  H    0.110432
    38  H    0.142902
    39  H    0.143810
    40  H    0.342463
    41  H    0.114443
    42  H    0.119484
    43  H    0.131194
    44  H    0.106783
    45  H    0.104829
 Sum of Mulliken atomic charges =   0.00000

 Dipole moment (field-independent basis, Debye):
    X=             -3.2051    Y=              0.3487    Z=              1.5814  Tot=              3.5909
 Quadrupole moment (field-independent basis, Debye-Ang):
   XX=           -116.9865   YY=           -138.7312   ZZ=           -139.2185
   XY=            -12.0934   XZ=             -1.8647   YZ=              2.5046

  Exact polarizability: 238.099   1.127 196.657   1.142  -0.568 144.831
 Approx polarizability: 280.787  -0.252 255.570   1.593  -0.734 240.881

 ******    8 imaginary frequencies (negative Signs) ******

                     1                      2                      3
                     A                      A                      A
 Frequencies --  -339.6141              -252.0998              -225.6094
 Red. masses --     1.5915                 1.8966                 1.1831
 Frc consts  --     0.1081                 0.0710                 0.0355
 IR Inten    --     3.2978                 2.7274               105.5724
 Raman Activ --     0.1063                 0.0205                 0.8080

                     4                      5                      6
                     A                      A                      A
 Frequencies --  -199.1185               -72.1071               -45.5258
 Red. masses --     1.1991                 6.9237                 6.0604
 Frc consts  --     0.0280                 0.0212                 0.0074
 IR Inten    --   100.6594                 0.9873                 0.7526
 Raman Activ --     0.8141                 0.0376                 0.0927

                     7                      8                      9
                     A                      A                      A
 Frequencies --   -22.7950               -16.0439                52.5735
 Red. masses --     6.5825                 6.3056                 6.4024
 Frc consts  --     0.0020                 0.0010                 0.0104
 IR Inten    --     0.4587                 2.8936                 2.1535
 Raman Activ --     0.0335                 0.0309                 0.0943

                    10                     11                     12
                     A                      A                      A
 Frequencies --    68.6615                80.0842               118.2354
 Red. masses --     7.1477                 6.3958                 6.1628
 Frc consts  --     0.0199                 0.0242                 0.0508
 IR Inten    --     0.8409                 0.6026                 1.3750
 Raman Activ --     0.0615                 0.4219                 0.0433

                    13                     14                     15
                     A                      A                      A
 Frequencies --   143.0725               169.2236               178.4865
 Red. masses --     6.5002                 6.1903                 7.7352
 Frc consts  --     0.0784                 0.1044                 0.1452
 IR Inten    --     2.3105                 2.6177                 0.5385
 Raman Activ --     0.4240                 0.7609                 0.4035

                    16                     17                     18
                     A                      A                      A
 Frequencies --   190.1112               219.4509               239.5967
 Red. masses --     6.7461                 5.7590                 4.5264
 Frc consts  --     0.1437                 0.1634                 0.1531
 IR Inten    --     1.0724                 1.1439                14.3808
 Raman Activ --     1.9605                 1.1475                 0.2328

                    19                     20                     21
                     A                      A                      A
 Frequencies --   274.0338               287.2388               292.7135
 Red. masses --     5.2327                 4.7510                 5.8157
 Frc consts  --     0.2315                 0.2310                 0.2936
 IR Inten    --     1.4017                 1.3212                 0.9849
 Raman Activ --     0.2440                 0.2061                 0.9282

                    22                     23                     24
                     A                      A                      A
 Frequencies --   313.7949               314.5344               318.6853
 Red. masses --     5.5138                 6.0054                 5.1204
 Frc consts  --     0.3199                 0.3500                 0.3064
 IR Inten    --     0.1158                 1.2432                 4.1103
 Raman Activ --     1.5932                 2.7230                 2.7970

                    25                     26                     27
                     A                      A                      A
 Frequencies --   324.4430               353.5273               364.0619
 Red. masses --     6.6167                 6.2069                 4.3737
 Frc consts  --     0.4104                 0.4571                 0.3415
 IR Inten    --    13.6402                 1.2063                14.6919
 Raman Activ --     5.1561                 0.4815                 0.2463

                    28                     29                     30
                     A                      A                      A
 Frequencies --   388.3524               406.2725               419.8773
 Red. masses --     4.5469                 6.3878                 5.1572
 Frc consts  --     0.4040                 0.6212                 0.5357
 IR Inten    --     9.1083                 2.2243                 0.4676
 Raman Activ --     2.5710                 2.9753                 2.6911

                    31                     32                     33
                     A                      A                      A
 Frequencies --   448.3332               461.5690               483.0649
 Red. masses --     4.7727                 5.1960                 4.5766
 Frc consts  --     0.5652                 0.6522                 0.6292
 IR Inten    --     5.7979                 0.6808                 4.2129
 Raman Activ --     1.3796                 2.4531                 6.2454

                    34                     35                     36
                     A                      A                      A
 Frequencies --   505.2553               527.4384               545.7297
 Red. masses --     3.6556                 3.1240                 3.4222
 Frc consts  --     0.5498                 0.5120                 0.6005
 IR Inten    --    15.4085                19.0123                31.0121
 Raman Activ --     4.5453                 1.0803                 0.6077

                    37                     38                     39
                     A                      A                      A
 Frequencies --   574.4174               587.0887               615.8831
 Red. masses --     5.2600                 3.4109                 3.5677
 Frc consts  --     1.0226                 0.6927                 0.7973
 IR Inten    --     8.8272                38.7125                17.4905
 Raman Activ --     0.6860                 1.8281                 0.9007

                    40                     41                     42
                     A                      A                      A
 Frequencies --   621.1519               677.7205               683.9467
 Red. masses --     6.5155                 5.3288                 1.0482
 Frc consts  --     1.4811                 1.4421                 0.2889
 IR Inten    --    13.1598                31.4753               101.0325
 Raman Activ --     0.7198                 1.2432                 1.9162

                    43                     44                     45
                     A                      A                      A
 Frequencies --   687.8462               701.1010               705.9833
 Red. masses --     1.0958                 1.0510                 1.0669
 Frc consts  --     0.3055                 0.3044                 0.3133
 IR Inten    --    57.5635               101.4952               163.0345
 Raman Activ --     1.3309                 1.7431                 5.3992

                    46                     47                     48
                     A                      A                      A
 Frequencies --   725.2266               811.3938               834.4250
 Red. masses --     1.0940                 1.1189                 1.7752
 Frc consts  --     0.3390                 0.4340                 0.7282
 IR Inten    --   114.0628               118.3768                 9.1865
 Raman Activ --     1.4995                 2.6490                 1.0626

                    49                     50                     51
                     A                      A                      A
 Frequencies --   877.6623               912.8603               946.6412
 Red. masses --     1.7456                 5.9993                 6.0170
 Frc consts  --     0.7922                 2.9455                 3.1769
 IR Inten    --     5.6351               178.1848                68.8774
 Raman Activ --     0.5826                 2.6439                 1.7384

                    52                     53                     54
                     A                      A                      A
 Frequencies --   976.9586               980.9698               987.2325
 Red. masses --     5.3793                 6.3799                 6.3249
 Frc consts  --     3.0250                 3.6172                 3.6320
 IR Inten    --   186.9194               221.9619               193.8911
 Raman Activ --     1.9798                 0.7439                 1.0148

                    55                     56                     57
                     A                      A                      A
 Frequencies --   989.5326              1007.1757              1021.8831
 Red. masses --     4.7886                 7.9794                 5.1599
 Frc consts  --     2.7626                 4.7691                 3.1746
 IR Inten    --   249.7247                95.5079               132.3069
 Raman Activ --     1.2872                 5.0777                 3.0723

                    58                     59                     60
                     A                      A                      A
 Frequencies --  1024.8316              1048.0060              1053.8460
 Red. masses --     6.9809                 5.2328                 4.1062
 Frc consts  --     4.3198                 3.3862                 2.6868
 IR Inten    --   128.1981               107.6288                55.5421
 Raman Activ --     2.6914                 3.9522                 3.9578

                    61                     62                     63
                     A                      A                      A
 Frequencies --  1060.2667              1073.6703              1082.4862
 Red. masses --     3.0354                 6.7405                 3.0609
 Frc consts  --     2.0105                 4.5781                 2.1132
 IR Inten    --    34.6190                37.8394                57.1725
 Raman Activ --     2.8394                 0.4709                10.4196

                    64                     65                     66
                     A                      A                      A
 Frequencies --  1089.2265              1107.3208              1113.5585
 Red. masses --     3.1631                 4.5730                 2.3265
 Frc consts  --     2.2110                 3.3037                 1.6997
 IR Inten    --    82.2459                26.9266                32.1381
 Raman Activ --     8.3281                15.3940                 6.9866

                    67                     68                     69
                     A                      A                      A
 Frequencies --  1120.6312              1132.5835              1136.7256
 Red. masses --     2.8646                 2.1356                 2.4882
 Frc consts  --     2.1195                 1.6140                 1.8943
 IR Inten    --    32.7709                36.4181                17.1540
 Raman Activ --     1.6421                 3.4326                 2.7556

                    70                     71                     72
                     A                      A                      A
 Frequencies --  1142.3037              1147.2875              1150.3921
 Red. masses --     1.8036                 3.4088                 2.6591
 Frc consts  --     1.3866                 2.6436                 2.0734
 IR Inten    --     4.5572                39.3716                32.7085
 Raman Activ --     6.4392                 2.2682                 6.2787

                    73                     74                     75
                     A                      A                      A
 Frequencies --  1164.2780              1174.3008              1193.1530
 Red. masses --     2.6741                 1.5968                 1.6905
 Frc consts  --     2.1357                 1.2974                 1.4179
 IR Inten    --    17.3273                 8.7908                 5.9752
 Raman Activ --     2.4613                 2.9267                 1.4948

                    76                     77                     78
                     A                      A                      A
 Frequencies --  1211.6728              1216.9316              1221.4061
 Red. masses --     1.3761                 1.4133                 1.2822
 Frc consts  --     1.1903                 1.2332                 1.1270
 IR Inten    --    22.9579                 3.6803                10.5413
 Raman Activ --     4.2623                 1.2969                 1.5306

                    79                     80                     81
                     A                      A                      A
 Frequencies --  1246.3549              1259.3226              1272.4276
 Red. masses --     1.3135                 1.3197                 1.1976
 Frc consts  --     1.2022                 1.2331                 1.1424
 IR Inten    --     3.2993                23.9757                17.3707
 Raman Activ --     1.6178                 1.1772                 0.7832

                    82                     83                     84
                     A                      A                      A
 Frequencies --  1280.0638              1284.5517              1293.2239
 Red. masses --     1.3583                 1.2260                 1.2004
 Frc consts  --     1.3113                 1.1919                 1.1829
 IR Inten    --    37.9438                 8.0772                32.1899
 Raman Activ --     4.5148                 0.5054                 1.9595

                    85                     86                     87
                     A                      A                      A
 Frequencies --  1301.3058              1308.7615              1322.7426
 Red. masses --     1.2648                 1.3248                 1.1558
 Frc consts  --     1.2619                 1.3370                 1.1915
 IR Inten    --    26.2262                28.2145                 4.2769
 Raman Activ --     5.6812                 0.8869                11.1667

                    88                     89                     90
                     A                      A                      A
 Frequencies --  1325.3025              1334.0160              1340.7936
 Red. masses --     1.2104                 1.2167                 1.3831
 Frc consts  --     1.2526                 1.2758                 1.4649
 IR Inten    --    25.0655                 3.2879                31.0628
 Raman Activ --     4.0535                 7.7889                 4.6080

                    91                     92                     93
                     A                      A                      A
 Frequencies --  1343.1811              1350.7098              1360.4265
 Red. masses --     1.2243                 1.4881                 1.2336
 Frc consts  --     1.3014                 1.5996                 1.3452
 IR Inten    --     4.4270                 5.9125                27.4935
 Raman Activ --     5.5019                 7.1978                 1.0733

                    94                     95                     96
                     A                      A                      A
 Frequencies --  1364.5110              1377.5981              1383.6124
 Red. masses --     1.4191                 1.2839                 1.2454
 Frc consts  --     1.5568                 1.4356                 1.4048
 IR Inten    --     5.2485                11.2789                21.7901
 Raman Activ --     7.2254                 3.8159                 2.5499

                    97                     98                     99
                     A                      A                      A
 Frequencies --  1384.7348              1396.8628              1398.6582
 Red. masses --     1.2500                 1.4304                 1.5098
 Frc consts  --     1.4122                 1.6445                 1.7402
 IR Inten    --     7.7502                48.8467                29.3122
 Raman Activ --     3.4649                 5.1982                 2.1208

                   100                    101                    102
                     A                      A                      A
 Frequencies --  1404.1333              1423.7046              1436.0818
 Red. masses --     1.3647                 1.2787                 1.4491
 Frc consts  --     1.5853                 1.5271                 1.7608
 IR Inten    --     1.1027                 9.7039                25.6124
 Raman Activ --     3.8904                 1.0013                 2.6409

                   103                    104                    105
                     A                      A                      A
 Frequencies --  1461.0890              1484.6167              1492.0258
 Red. masses --     1.0792                 1.1646                 1.2555
 Frc consts  --     1.3574                 1.5123                 1.6468
 IR Inten    --     4.2876                28.9019                29.5419
 Raman Activ --     4.4937                 4.6255                 0.9982

                   106                    107                    108
                     A                      A                      A
 Frequencies --  1500.9199              1540.0608              3251.7939
 Red. masses --     1.1828                 1.2008                 1.0693
 Frc consts  --     1.5699                 1.6780                 6.6620
 IR Inten    --     8.2057                39.4979                18.1018
 Raman Activ --     1.2268                 0.6234                16.6560

                   109                    110                    111
                     A                      A                      A
 Frequencies --  3252.7423              3255.1457              3261.2716
 Red. masses --     1.0593                 1.0703                 1.0813
 Frc consts  --     6.6034                 6.6817                 6.7757
 IR Inten    --    25.0648                44.0318                 8.9342
 Raman Activ --    84.1363               109.3419                15.0779

                   112                    113                    114
                     A                      A                      A
 Frequencies --  3262.5852              3267.1272              3272.8650
 Red. masses --     1.0802                 1.0815                 1.0812
 Frc consts  --     6.7747                 6.8017                 6.8238
 IR Inten    --     3.5954                 7.6410                 2.7588
 Raman Activ --   129.0949                96.4967               107.0858

                   115                    116                    117
                     A                      A                      A
 Frequencies --  3279.3673              3282.6805              3290.0386
 Red. masses --     1.0857                 1.0863                 1.0858
 Frc consts  --     6.8791                 6.8971                 6.9245
 IR Inten    --     5.2095                19.7338                 7.9017
 Raman Activ --     8.1983                51.4917                88.2849

                   118                    119                    120
                     A                      A                      A
 Frequencies --  3292.1097              3303.8246              3304.2189
 Red. masses --     1.0873                 1.0907                 1.1018
 Frc consts  --     6.9429                 7.0143                 7.0873
 IR Inten    --    67.4143                33.5058                75.2100
 Raman Activ --     7.4536                37.1380                22.3889

                   121                    122                    123
                     A                      A                      A
 Frequencies --  3308.1670              3319.9322              3363.0640
 Red. masses --     1.0988                 1.0674                 1.0667
 Frc consts  --     7.0853                 6.9314                 7.1080
 IR Inten    --    60.3385               422.0776               200.8415
 Raman Activ --    39.0808               152.6252               106.7658

                   124                    125                    126
                     A                      A                      A
 Frequencies --  3368.2122              3370.9987              3372.8752
 Red. masses --     1.0662                 1.0677                 1.0666
 Frc consts  --     7.1269                 7.1482                 7.1493
 IR Inten    --    38.4096                48.2847                49.4490
 Raman Activ --   141.1077               136.5431               119.1745

                   127                    128                    129
                     A                      A                      A
 Frequencies --  3375.6725              3889.2258              3890.4321
 Red. masses --     1.0690                 1.0677                 1.0674
 Frc consts  --     7.1774                 9.5155                 9.5187
 IR Inten    --    41.2533                86.6395                60.7207
 Raman Activ --   117.1863                76.6215               139.9138

 - Thermochemistry -
 -------------------
 Temperature   298.150 Kelvin.  Pressure   1.00000 Atm.
 Atom     1 has atomic number  8 and mass  15.99491

 Molecular mass:   342.11621 amu.
 Principal axes and moments of inertia in atomic units:
                           1         2         3
     Eigenvalues --  4351.46309********************
           X            0.99998  -0.00615  -0.00037
           Y            0.00615   0.99998  -0.00118
           Z            0.00038   0.00118   1.00000
 This molecule is an asymmetric top.
 Rotational symmetry number  1.
 Warning -- assumption of classical behavior for rotation
           may cause significant error
 Rotational temperatures (Kelvin)      0.01990     0.00662     0.00509
 Rotational constants (GHZ):           0.41474     0.13798     0.10615
    8 imaginary frequencies ignored.
 Zero-point vibrational energy     972483.5 (Joules/Mol)
                                  232.42913 (Kcal/Mol)
 Warning -- explicit consideration of  31 degrees of freedom as
           vibrations may cause significant error
 Vibrational temperatures:     75.64    98.79   115.22   170.11   205.85
          (Kelvin)            243.47   256.80   273.53   315.74   344.73
                              394.27   413.27   421.15   451.48   452.54
                              458.52   466.80   508.65   523.80   558.75
                              584.53   604.11   645.05   664.09   695.02
                              726.95   758.87   785.18   826.46   844.69
                              886.12   893.70   975.09   984.05   989.66
                             1008.73  1015.75  1043.44  1167.41  1200.55
                             1262.76  1313.40  1362.00  1405.62  1411.39
                             1420.41  1423.71  1449.10  1470.26  1474.50
                             1507.85  1516.25  1525.49  1544.77  1557.45
                             1567.15  1593.19  1602.16  1612.34  1629.53
                             1635.49  1643.52  1650.69  1655.16  1675.13
                             1689.55  1716.68  1743.32  1750.89  1757.33
                             1793.22  1811.88  1830.74  1841.72  1848.18
                             1860.66  1872.29  1883.01  1903.13  1906.81
                             1919.35  1929.10  1932.54  1943.37  1957.35
                             1963.22  1982.05  1990.71  1992.32  2009.77
                             2012.35  2020.23  2048.39  2066.20  2102.18
                             2136.03  2146.69  2159.49  2215.80  4678.60
                             4679.96  4683.42  4692.24  4694.13  4700.66
                             4708.92  4718.27  4723.04  4733.63  4736.61
                             4753.46  4754.03  4759.71  4776.64  4838.69
                             4846.10  4850.11  4852.81  4856.83  5595.72
                             5597.46

 Zero-point correction=                           0.370399 (Hartree/Particle)
 Thermal correction to Energy=                    0.388297
 Thermal correction to Enthalpy=                  0.389241
 Thermal correction to Gibbs Free Energy=         0.325627
 Sum of electronic and zero-point Energies=          -1297.579512
 Sum of electronic and thermal Energies=             -1297.561615
 Sum of electronic and thermal Enthalpies=           -1297.560670
 Sum of electronic and thermal Free Energies=        -1297.624285

                     E (Thermal)             CV                S
                      KCal/Mol        Cal/Mol-Kelvin    Cal/Mol-Kelvin
 Total                  243.660             74.764            133.889
 Electronic               0.000              0.000              0.000
 Translational            0.889              2.981             43.384
 Rotational               0.889              2.981             35.224
 Vibrational            241.883             68.802             55.280
 Vibration     1          0.596              1.977              4.718
 Vibration     2          0.598              1.969              4.191
 Vibration     3          0.600              1.963              3.889
 Vibration     4          0.608              1.934              3.129
 Vibration     5          0.616              1.910              2.762
 Vibration     6          0.625              1.880              2.444
 Vibration     7          0.629              1.869              2.344
 Vibration     8          0.633              1.854              2.227
 Vibration     9          0.647              1.811              1.964
 Vibration    10          0.657              1.780              1.806
 Vibration    11          0.676              1.721              1.571
 Vibration    12          0.684              1.697              1.490
 Vibration    13          0.688              1.687              1.458
 Vibration    14          0.702              1.647              1.342
 Vibration    15          0.702              1.646              1.338
 Vibration    16          0.705              1.638              1.317
 Vibration    17          0.709              1.627              1.288
 Vibration    18          0.730              1.568              1.150
 Vibration    19          0.738              1.546              1.105
 Vibration    20          0.757              1.495              1.006
 Vibration    21          0.771              1.457              0.940
 Vibration    22          0.783              1.427              0.892
 Vibration    23          0.807              1.365              0.801
 Vibration    24          0.819              1.335              0.762
 Vibration    25          0.839              1.288              0.702
 Vibration    26          0.861              1.238              0.645
 Vibration    27          0.882              1.189              0.593
 Vibration    28          0.901              1.149              0.553
 Vibration    29          0.931              1.087              0.496
 Vibration    30          0.944              1.059              0.472
 Vibration    31          0.975              0.998              0.423

 Normal termination of Gaussian 09 at Thu Mar 24 12:47:24 2016.
