 Gaussian 09, Revision B.01,
 Gaussian 09:  EM64L-G09RevB.01 12-Aug-2010

 -------------------------------------------------
 # freq=raman b3lyp/6-31+g(2d,p) geom=connectivity
 -------------------------------------------------

 -----------------
 400 6358/6358.com
 -----------------
 Symbolic Z-matrix:
 Charge =  0 Multiplicity = 1

                         Standard orientation:
 ---------------------------------------------------------------------
 Center     Atomic      Atomic             Coordinates (Angstroms)
 Number     Number       Type             X           Y           Z
 ---------------------------------------------------------------------
      1          8           0       -4.961652   -0.409559    0.428784
      2          6           0       -3.691564   -0.148145   -0.186056
      3          6           0       -3.207957    1.169269    0.397381
      4          8           0       -4.168641    2.232593    0.322165
      5          1           0       -5.079693    1.837376    0.206311
      6          6           0       -1.839891    1.516175   -0.167519
      7          8           0       -1.385365    2.793375    0.303153
      8          1           0       -0.571793    2.971351   -0.250168
      9          6           0       -3.028880   -2.590446   -0.200449
     10          8           0       -4.274160   -3.091198    0.308068
     11          1           0       -4.219626   -4.089812    0.332732
     12          6           0       -2.608414   -1.167188    0.125098
     13          8           0       -1.358395   -0.833114   -0.496281
     14          6           0       -0.859584    0.382268    0.082757
     15          8           0        0.271184    0.644191   -0.761035
     16          6           0        1.521581    0.274028   -0.160642
     17          6           0        2.042180   -1.117014   -0.486727
     18          8           0        1.021769   -2.123371   -0.435229
     19          1           0        0.099521   -1.784933   -0.623708
     20          6           0        3.284242   -1.502176    0.300926
     21          8           0        3.830833   -2.760490   -0.121610
     22          1           0        4.575210   -3.109123    0.448302
     23          6           0        2.323068    2.651233    0.045316
     24          8           0        1.156662    3.364619   -0.389290
     25          1           0        1.194242    4.361503   -0.311221
     26          6           0        2.674392    1.237643   -0.386932
     27          8           0        3.807330    0.835439    0.397474
     28          6           0        4.350627   -0.447587    0.054559
     29          8           0        5.435323   -0.714115    0.956330
     30          1           0        6.245331   -0.835449    0.455565
     31          1           0        3.161091    3.260764   -0.221308
     32          1           0        2.279685    2.633307    1.114286
     33          1           0        2.940504    1.237716   -1.423312
     34          1           0        1.342146    0.277311    0.894200
     35          1           0        2.352743   -1.074479   -1.509782
     36          1           0        3.051439   -1.542364    1.344520
     37          1           0        4.682515   -0.465881   -0.962504
     38          1           0       -5.634330   -0.496051   -0.250644
     39          1           0       -2.255822   -3.239982    0.153648
     40          1           0       -3.062119   -2.676963   -1.266427
     41          1           0       -2.446138   -1.129172    1.182038
     42          1           0       -3.811300   -0.054900   -1.245239
     43          1           0       -3.056439    0.989212    1.441182
     44          1           0       -1.953061    1.599663   -1.228236
     45          1           0       -0.592017    0.275584    1.113255
 ---------------------------------------------------------------------

 SCF Done:  E(RB3LYP) =  -1297.97483768     A.U. after   13 cycles

 The electronic state is 1-A.
 Alpha  occ. eigenvalues --  -19.19525 -19.18302 -19.18109 -19.17985 -19.17938
 Alpha  occ. eigenvalues --  -19.16887 -19.16369 -19.15614 -19.14573 -19.13520
 Alpha  occ. eigenvalues --  -19.13016 -10.30792 -10.30526 -10.26471 -10.25868
 Alpha  occ. eigenvalues --  -10.25255 -10.25243 -10.25064 -10.24716 -10.24324
 Alpha  occ. eigenvalues --  -10.24064 -10.23847 -10.23558  -1.10838  -1.08994
 Alpha  occ. eigenvalues --   -1.05402  -1.04736  -1.04002  -1.03488  -1.02741
 Alpha  occ. eigenvalues --   -1.02164  -1.01464  -0.99925  -0.99617  -0.82203
 Alpha  occ. eigenvalues --   -0.80904  -0.79483  -0.78332  -0.71877  -0.70137
 Alpha  occ. eigenvalues --   -0.67013  -0.64856  -0.63288  -0.62579  -0.61776
 Alpha  occ. eigenvalues --   -0.60578  -0.56484  -0.55587  -0.55274  -0.54418
 Alpha  occ. eigenvalues --   -0.53979  -0.53532  -0.52801  -0.51727  -0.51430
 Alpha  occ. eigenvalues --   -0.50437  -0.49668  -0.49405  -0.48511  -0.46633
 Alpha  occ. eigenvalues --   -0.46316  -0.45266  -0.44398  -0.43649  -0.43389
 Alpha  occ. eigenvalues --   -0.42348  -0.41889  -0.40887  -0.40239  -0.39147
 Alpha  occ. eigenvalues --   -0.38765  -0.37530  -0.36845  -0.36315  -0.35605
 Alpha  occ. eigenvalues --   -0.35290  -0.34315  -0.34267  -0.33773  -0.33436
 Alpha  occ. eigenvalues --   -0.32958  -0.31256  -0.30859  -0.30266  -0.29645
 Alpha  occ. eigenvalues --   -0.28860  -0.28618  -0.27767  -0.26963  -0.26801
 Alpha  occ. eigenvalues --   -0.26025
 Alpha virt. eigenvalues --   -0.02041  -0.01869  -0.01604  -0.00419   0.00229
 Alpha virt. eigenvalues --    0.01081   0.01877   0.02349   0.02988   0.03363
 Alpha virt. eigenvalues --    0.03967   0.04122   0.04873   0.05389   0.05553

 Mulliken atomic charges:
              1
     1  O   -0.540468
     2  C   -0.083433
     3  C    0.071391
     4  O   -0.553274
     5  H    0.337136
     6  C   -0.001868
     7  O   -0.536500
     8  H    0.389039
     9  C   -0.227633
    10  O   -0.509514
    11  H    0.345406
    12  C    0.205020
    13  O   -0.275066
    14  C    0.238717
    15  O   -0.212457
    16  C    0.254622
    17  C    0.116053
    18  O   -0.593026
    19  H    0.397319
    20  C    0.083959
    21  O   -0.550090
    22  H    0.342616
    23  C   -0.314504
    24  O   -0.579369
    25  H    0.367987
    26  C   -0.000872
    27  O   -0.246549
    28  C    0.176062
    29  O   -0.551718
    30  H    0.335251
    31  H    0.142733
    32  H    0.157864
    33  H    0.121409
    34  H    0.093123
    35  H    0.104377
    36  H    0.125908
    37  H    0.134219
    38  H    0.342587
    39  H    0.147452
    40  H    0.142566
    41  H    0.112666
    42  H    0.121710
    43  H    0.110045
    44  H    0.121948
    45  H    0.137157
 Sum of Mulliken atomic charges =   0.00000

 Dipole moment (field-independent basis, Debye):
    X=              2.3519    Y=             -0.6146    Z=             -2.0120  Tot=              3.1555
 Quadrupole moment (field-independent basis, Debye-Ang):
   XX=           -115.4593   YY=           -134.5608   ZZ=           -140.6262
   XY=             16.1723   XZ=              5.1354   YZ=             -6.5595

  Exact polarizability: 233.894  -2.794 197.862   0.988  -0.452 143.823
 Approx polarizability: 275.217  -3.980 257.452   0.633  -1.076 240.446

 ******    7 imaginary frequencies (negative Signs) ******

                     1                      2                      3
                     A                      A                      A
 Frequencies --  -311.8185              -291.4979              -225.2733
 Red. masses --     1.7504                 1.7108                 1.2291
 Frc consts  --     0.1003                 0.0857                 0.0367
 IR Inten    --     4.1408                 9.3308                92.6686
 Raman Activ --     0.0226                 0.1127                 0.8003

                     4                      5                      6
                     A                      A                      A
 Frequencies --  -206.4911               -75.6839               -39.3061
 Red. masses --     1.1602                 7.2467                 5.9274
 Frc consts  --     0.0291                 0.0245                 0.0054
 IR Inten    --   114.8312                 1.6103                 2.2413
 Raman Activ --     0.8446                 0.0580                 0.0244

                     7                      8                      9
                     A                      A                      A
 Frequencies --   -36.8762                54.0755                78.6243
 Red. masses --     6.7905                 6.9816                 6.9963
 Frc consts  --     0.0054                 0.0120                 0.0255
 IR Inten    --     0.3075                 0.1638                 3.2033
 Raman Activ --     0.0404                 0.0773                 0.0619

                    10                     11                     12
                     A                      A                      A
 Frequencies --    94.6907                96.6563               139.2750
 Red. masses --     6.5800                 6.3638                 5.8351
 Frc consts  --     0.0348                 0.0350                 0.0667
 IR Inten    --     0.0088                 2.1259                 1.8073
 Raman Activ --     0.1574                 0.2038                 0.0822

                    13                     14                     15
                     A                      A                      A
 Frequencies --   166.6511               185.9637               200.4050
 Red. masses --     6.4723                 6.0700                 6.6517
 Frc consts  --     0.1059                 0.1237                 0.1574
 IR Inten    --     4.9147                 2.8722                 0.2066
 Raman Activ --     0.6214                 0.6502                 0.1857

                    16                     17                     18
                     A                      A                      A
 Frequencies --   216.9613               234.6767               281.9239
 Red. masses --     6.6586                 6.1780                 4.2754
 Frc consts  --     0.1847                 0.2005                 0.2002
 IR Inten    --     0.8647                 1.8729                14.4979
 Raman Activ --     2.3719                 0.7706                 0.5886

                    19                     20                     21
                     A                      A                      A
 Frequencies --   286.9220               301.5677               305.6109
 Red. masses --     4.8914                 5.6906                 5.3716
 Frc consts  --     0.2373                 0.3049                 0.2956
 IR Inten    --     0.2294                 0.9570                 0.6215
 Raman Activ --     0.2940                 1.7387                 0.1186

                    22                     23                     24
                     A                      A                      A
 Frequencies --   312.4114               317.2862               323.2155
 Red. masses --     6.1793                 5.4285                 4.4605
 Frc consts  --     0.3553                 0.3220                 0.2745
 IR Inten    --     4.6745                12.3301                 0.2809
 Raman Activ --     1.8076                 1.7450                 2.8269

                    25                     26                     27
                     A                      A                      A
 Frequencies --   340.1127               361.0787               381.9276
 Red. masses --     6.6941                 4.6859                 7.8936
 Frc consts  --     0.4562                 0.3600                 0.6784
 IR Inten    --    11.7831                 2.9795                 1.5946
 Raman Activ --     2.3189                 0.3876                 3.0924

                    28                     29                     30
                     A                      A                      A
 Frequencies --   405.2250               426.3233               431.9290
 Red. masses --     5.4499                 5.4231                 4.0627
 Frc consts  --     0.5273                 0.5807                 0.4466
 IR Inten    --    13.4148                 5.3142                14.1608
 Raman Activ --     1.8993                 0.8409                 4.9731

                    31                     32                     33
                     A                      A                      A
 Frequencies --   437.8438               475.6698               488.9492
 Red. masses --     6.1028                 4.5053                 4.0644
 Frc consts  --     0.6893                 0.6006                 0.5725
 IR Inten    --     6.7151                10.4618                10.6125
 Raman Activ --     2.0031                 4.2846                 0.9768

                    34                     35                     36
                     A                      A                      A
 Frequencies --   500.2525               531.7624               568.9734
 Red. masses --     4.1628                 3.0875                 3.9728
 Frc consts  --     0.6138                 0.5144                 0.7578
 IR Inten    --     7.3633                 6.7461                 8.2778
 Raman Activ --     4.4315                 3.4945                 0.9241

                    37                     38                     39
                     A                      A                      A
 Frequencies --   582.9723               595.1254               607.8055
 Red. masses --     3.1250                 6.8143                 4.3966
 Frc consts  --     0.6258                 1.4220                 0.9570
 IR Inten    --    21.8115                 2.5397                26.1591
 Raman Activ --     0.8493                 1.1234                 0.3928

                    40                     41                     42
                     A                      A                      A
 Frequencies --   619.4539               635.0968               679.0638
 Red. masses --     1.1203                 3.3339                 1.6850
 Frc consts  --     0.2533                 0.7923                 0.4578
 IR Inten    --   106.2818                27.5223                77.5069
 Raman Activ --     1.6127                 1.0618                 1.4382

                    43                     44                     45
                     A                      A                      A
 Frequencies --   684.0091               688.2153               702.3460
 Red. masses --     1.3157                 1.4468                 1.0928
 Frc consts  --     0.3627                 0.4038                 0.3176
 IR Inten    --     4.0882                89.4522               110.5798
 Raman Activ --     1.6727                 2.1084                 2.1856

                    46                     47                     48
                     A                      A                      A
 Frequencies --   740.3283               798.0143               855.9498
 Red. masses --     1.0708                 1.1032                 1.7675
 Frc consts  --     0.3458                 0.4139                 0.7630
 IR Inten    --   113.3568               138.9623                 3.6101
 Raman Activ --     1.6678                 2.4259                 0.9940

                    49                     50                     51
                     A                      A                      A
 Frequencies --   861.1430               928.8700               947.1441
 Red. masses --     1.7611                 5.6556                 5.9715
 Frc consts  --     0.7695                 2.8750                 3.1562
 IR Inten    --     0.2479               167.9614                15.8986
 Raman Activ --     0.5592                 4.0166                 0.2532

                    52                     53                     54
                     A                      A                      A
 Frequencies --   973.2751               977.8668               988.3857
 Red. masses --     6.2465                 6.0372                 4.6435
 Frc consts  --     3.4863                 3.4013                 2.6727
 IR Inten    --    92.9034               342.8643               109.7601
 Raman Activ --     2.2849                 0.8447                 0.4719

                    55                     56                     57
                     A                      A                      A
 Frequencies --   992.8223              1004.6038              1014.3979
 Red. masses --     7.4181                 5.9600                 5.3959
 Frc consts  --     4.3081                 3.5439                 3.2714
 IR Inten    --   118.7029                17.3251               214.9683
 Raman Activ --     1.0639                 2.0428                 2.7417

                    58                     59                     60
                     A                      A                      A
 Frequencies --  1025.9836              1046.4430              1059.7284
 Red. masses --     6.4066                 5.9292                 6.3100
 Frc consts  --     3.9734                 3.8254                 4.1751
 IR Inten    --   313.8897               132.3643                 6.6313
 Raman Activ --     2.4820                 1.6547                 2.4493

                    61                     62                     63
                     A                      A                      A
 Frequencies --  1066.4460              1067.3291              1075.4666
 Red. masses --     5.1611                 3.1820                 2.7552
 Frc consts  --     3.4584                 2.1358                 1.8776
 IR Inten    --    24.6173                 2.6784                18.3855
 Raman Activ --     0.3978                 6.4427                27.0819

                    64                     65                     66
                     A                      A                      A
 Frequencies --  1094.6322              1103.2871              1111.3083
 Red. masses --     2.3115                 2.3985                 2.8120
 Frc consts  --     1.6318                 1.7202                 2.0461
 IR Inten    --    50.2388                57.6872                12.3527
 Raman Activ --     4.8120                 3.9781                 2.9453

                    67                     68                     69
                     A                      A                      A
 Frequencies --  1113.6327              1130.0320              1137.0591
 Red. masses --     2.9951                 2.1625                 2.8380
 Frc consts  --     2.1885                 1.6270                 2.1618
 IR Inten    --    43.4785                10.0331                31.7976
 Raman Activ --    10.7635                 8.6361                 1.4573

                    70                     71                     72
                     A                      A                      A
 Frequencies --  1147.1889              1150.6764              1158.5087
 Red. masses --     2.2997                 1.8419                 2.6038
 Frc consts  --     1.7832                 1.4368                 2.0590
 IR Inten    --    39.0364                32.6495                33.3021
 Raman Activ --     1.4424                 6.1818                 3.3423

                    73                     74                     75
                     A                      A                      A
 Frequencies --  1168.6756              1183.8367              1192.4043
 Red. masses --     2.0732                 2.3551                 1.8716
 Frc consts  --     1.6683                 1.9447                 1.5679
 IR Inten    --    11.9517                 1.3001                13.1195
 Raman Activ --     3.6027                 2.6779                 2.0552

                    76                     77                     78
                     A                      A                      A
 Frequencies --  1209.4143              1211.7613              1235.4457
 Red. masses --     1.4108                 1.3091                 1.3169
 Frc consts  --     1.2158                 1.1325                 1.1843
 IR Inten    --     9.4829                20.8470                 7.2577
 Raman Activ --     2.4366                 1.1063                 0.7603

                    79                     80                     81
                     A                      A                      A
 Frequencies --  1240.1791              1249.1092              1256.5230
 Red. masses --     1.2047                 1.2255                 1.3138
 Frc consts  --     1.0917                 1.1266                 1.2221
 IR Inten    --    22.5527                 2.1562                32.5582
 Raman Activ --     1.4180                 1.5053                 2.4248

                    82                     83                     84
                     A                      A                      A
 Frequencies --  1286.2155              1287.1184              1294.8284
 Red. masses --     1.3600                 1.3042                 1.2690
 Frc consts  --     1.3256                 1.2730                 1.2535
 IR Inten    --    34.6988                23.3298                 3.6808
 Raman Activ --     2.7977                 1.4302                 4.4807

                    85                     86                     87
                     A                      A                      A
 Frequencies --  1296.2296              1305.6309              1312.1296
 Red. masses --     1.2106                 1.4210                 1.2586
 Frc consts  --     1.1984                 1.4272                 1.2767
 IR Inten    --    22.6480                 1.5470                13.6994
 Raman Activ --     2.6808                 3.3928                11.0155

                    88                     89                     90
                     A                      A                      A
 Frequencies --  1319.2294              1325.1244              1339.7780
 Red. masses --     1.2809                 1.1186                 1.2022
 Frc consts  --     1.3134                 1.1573                 1.2714
 IR Inten    --    68.5647                 8.8071                 4.2089
 Raman Activ --     1.9376                 7.3892                 3.0794

                    91                     92                     93
                     A                      A                      A
 Frequencies --  1344.2727              1355.4207              1358.2572
 Red. masses --     1.2442                 1.1855                 1.2449
 Frc consts  --     1.3247                 1.2833                 1.3532
 IR Inten    --    27.6879                 6.1651                32.2192
 Raman Activ --     2.3326                 5.1987                 2.0157

                    94                     95                     96
                     A                      A                      A
 Frequencies --  1370.5379              1373.2229              1375.4376
 Red. masses --     1.4371                 1.3354                 1.5398
 Frc consts  --     1.5904                 1.4837                 1.7163
 IR Inten    --     1.1214                19.1198                 9.6250
 Raman Activ --     6.8929                 3.2191                 6.3306

                    97                     98                     99
                     A                      A                      A
 Frequencies --  1383.0746              1393.2278              1397.4564
 Red. masses --     1.1906                 1.5559                 1.5531
 Frc consts  --     1.3419                 1.7795                 1.7870
 IR Inten    --     8.9487                27.1480                 5.1441
 Raman Activ --     4.3419                 1.4545                 4.6111

                   100                    101                    102
                     A                      A                      A
 Frequencies --  1424.8655              1429.0776              1445.4337
 Red. masses --     1.2356                 1.4447                 1.3440
 Frc consts  --     1.4780                 1.7383                 1.6544
 IR Inten    --    10.3571                42.2586                22.2948
 Raman Activ --     7.2142                 2.4213                 1.1559

                   103                    104                    105
                     A                      A                      A
 Frequencies --  1465.5340              1471.2780              1473.6012
 Red. masses --     1.2917                 1.2450                 1.1083
 Frc consts  --     1.6346                 1.5878                 1.4180
 IR Inten    --    31.5857                19.0647                 8.8526
 Raman Activ --     4.8266                 1.8790                 3.6810

                   106                    107                    108
                     A                      A                      A
 Frequencies --  1477.3286              1535.4197              3249.1302
 Red. masses --     1.1654                 1.2281                 1.0778
 Frc consts  --     1.4986                 1.7058                 6.7036
 IR Inten    --     4.9260                43.5605               129.7347
 Raman Activ --     1.8413                 0.9085               120.0994

                   109                    110                    111
                     A                      A                      A
 Frequencies --  3253.9955              3258.7867              3259.4374
 Red. masses --     1.0593                 1.0790                 1.0612
 Frc consts  --     6.6082                 6.7514                 6.6423
 IR Inten    --    23.5879                29.6445               107.7072
 Raman Activ --    69.6110                42.0099                96.9208

                   112                    113                    114
                     A                      A                      A
 Frequencies --  3262.4589              3268.0843              3274.8254
 Red. masses --     1.0804                 1.0798                 1.0750
 Frc consts  --     6.7753                 6.7949                 6.7923
 IR Inten    --     9.0904                68.4796               308.7129
 Raman Activ --    55.4014               109.9095               151.8704

                   115                    116                    117
                     A                      A                      A
 Frequencies --  3276.6589              3279.2606              3287.6892
 Red. masses --     1.0840                 1.0845                 1.0851
 Frc consts  --     6.8570                 6.8713                 6.9101
 IR Inten    --    12.2336                49.6783                 4.0238
 Raman Activ --    57.4529                47.1974               113.0419

                   118                    119                    120
                     A                      A                      A
 Frequencies --  3292.4751              3300.8531              3301.6203
 Red. masses --     1.0871                 1.0841                 1.0714
 Frc consts  --     6.9436                 6.9596                 6.8814
 IR Inten    --    21.2186               222.3990               505.3482
 Raman Activ --    58.2349                18.9632               126.3869

                   121                    122                    123
                     A                      A                      A
 Frequencies --  3303.9030              3308.8044              3311.6341
 Red. masses --     1.0894                 1.1014                 1.1024
 Frc consts  --     7.0064                 7.1047                 7.1234
 IR Inten    --    60.0547                95.9107               101.4498
 Raman Activ --    29.8263                36.1617                32.6037

                   124                    125                    126
                     A                      A                      A
 Frequencies --  3363.1698              3363.2153              3368.8673
 Red. masses --     1.0680                 1.0682                 1.0653
 Frc consts  --     7.1171                 7.1191                 7.1236
 IR Inten    --    64.2898                61.7330                39.7751
 Raman Activ --    83.0958               231.3052               104.5131

                   127                    128                    129
                     A                      A                      A
 Frequencies --  3370.8124              3887.4079              3891.9577
 Red. masses --     1.0670                 1.0677                 1.0675
 Frc consts  --     7.1432                 9.5066                 9.5267
 IR Inten    --    52.2234                75.3592                78.7283
 Raman Activ --   166.0131                90.8798               120.9257

 - Thermochemistry -
 -------------------
 Temperature   298.150 Kelvin.  Pressure   1.00000 Atm.
 Atom     1 has atomic number  8 and mass  15.99491

 Molecular mass:   342.11621 amu.
 Principal axes and moments of inertia in atomic units:
                           1         2         3
     Eigenvalues --  4442.67498********************
           X            0.99997   0.00798   0.00035
           Y           -0.00798   0.99997  -0.00137
           Z           -0.00036   0.00137   1.00000
 This molecule is an asymmetric top.
 Rotational symmetry number  1.
 Warning -- assumption of classical behavior for rotation
           may cause significant error
 Rotational temperatures (Kelvin)      0.01950     0.00705     0.00535
 Rotational constants (GHZ):           0.40623     0.14696     0.11139
    7 imaginary frequencies ignored.
 Zero-point vibrational energy     973961.8 (Joules/Mol)
                                  232.78246 (Kcal/Mol)
 Warning -- explicit consideration of  33 degrees of freedom as
           vibrations may cause significant error
 Vibrational temperatures:     77.80   113.12   136.24   139.07   200.39
          (Kelvin)            239.77   267.56   288.34   312.16   337.65
                              405.63   412.82   433.89   439.71   449.49
                              456.50   465.03   489.35   519.51   549.51
                              583.03   613.38   621.45   629.96   684.38
                              703.49   719.75   765.09   818.62   838.77
                              856.25   874.50   891.25   913.76   977.02
                              984.14   990.19  1010.52  1065.17  1148.16
                             1231.52  1238.99  1336.44  1362.73  1400.32
                             1406.93  1422.06  1428.45  1445.40  1459.49
                             1476.16  1505.60  1524.71  1534.38  1535.65
                             1547.35  1574.93  1587.38  1598.92  1602.27
                             1625.86  1635.97  1650.55  1655.56  1666.83
                             1681.46  1703.27  1715.60  1740.08  1743.45
                             1777.53  1784.34  1797.19  1807.85  1850.57
                             1851.87  1862.97  1864.98  1878.51  1887.86
                             1898.07  1906.56  1927.64  1934.11  1950.15
                             1954.23  1971.90  1975.76  1978.95  1989.93
                             2004.54  2010.63  2050.06  2056.12  2079.65
                             2108.57  2116.84  2120.18  2125.54  2209.12
                             4674.77  4681.77  4688.66  4689.60  4693.94
                             4702.04  4711.74  4714.38  4718.12  4730.25
                             4737.13  4749.19  4750.29  4753.57  4760.63
                             4764.70  4838.85  4838.91  4847.04  4849.84
                             5593.11  5599.65

 Zero-point correction=                           0.370962 (Hartree/Particle)
 Thermal correction to Energy=                    0.389139
 Thermal correction to Enthalpy=                  0.390083
 Thermal correction to Gibbs Free Energy=         0.326221
 Sum of electronic and zero-point Energies=          -1297.603875
 Sum of electronic and thermal Energies=             -1297.585699
 Sum of electronic and thermal Enthalpies=           -1297.584755
 Sum of electronic and thermal Free Energies=        -1297.648617

                     E (Thermal)             CV                S
                      KCal/Mol        Cal/Mol-Kelvin    Cal/Mol-Kelvin
 Total                  244.188             76.237            134.409
 Electronic               0.000              0.000              0.000
 Translational            0.889              2.981             43.384
 Rotational               0.889              2.981             35.135
 Vibrational            242.411             70.275             55.890
 Vibration     1          0.596              1.976              4.662
 Vibration     2          0.600              1.964              3.925
 Vibration     3          0.603              1.953              3.561
 Vibration     4          0.603              1.952              3.521
 Vibration     5          0.615              1.914              2.814
 Vibration     6          0.624              1.883              2.473
 Vibration     7          0.632              1.859              2.268
 Vibration     8          0.638              1.839              2.129
 Vibration     9          0.646              1.815              1.984
 Vibration    10          0.654              1.788              1.843
 Vibration    11          0.681              1.707              1.522
 Vibration    12          0.684              1.698              1.492
 Vibration    13          0.694              1.671              1.408
 Vibration    14          0.696              1.663              1.386
 Vibration    15          0.701              1.650              1.350
 Vibration    16          0.704              1.641              1.324
 Vibration    17          0.708              1.629              1.294
 Vibration    18          0.720              1.595              1.212
 Vibration    19          0.735              1.552              1.117
 Vibration    20          0.751              1.509              1.032
 Vibration    21          0.770              1.459              0.944
 Vibration    22          0.788              1.413              0.871
 Vibration    23          0.793              1.401              0.852
 Vibration    24          0.798              1.388              0.833
 Vibration    25          0.832              1.304              0.722
 Vibration    26          0.845              1.275              0.686
 Vibration    27          0.856              1.249              0.657
 Vibration    28          0.887              1.180              0.583
 Vibration    29          0.925              1.098              0.506
 Vibration    30          0.940              1.068              0.480
 Vibration    31          0.953              1.042              0.458
 Vibration    32          0.967              1.015              0.436
 Vibration    33          0.979              0.991              0.417

 Normal termination of Gaussian 09 at Sat Mar 26 02:01:49 2016.
