 Gaussian 09, Revision B.01,
 Gaussian 09:  EM64L-G09RevB.01 12-Aug-2010

 ------------------------------------------------
 # freq=raman b3lyp/6-31+g(d,p) geom=connectivity
 ------------------------------------------------

 ------------
 280 9000.com
 ------------
 Symbolic Z-matrix:
 Charge =  0 Multiplicity = 1

                         Standard orientation:
 ---------------------------------------------------------------------
 Center     Atomic      Atomic             Coordinates (Angstroms)
 Number     Number       Type             X           Y           Z
 ---------------------------------------------------------------------
      1          8           0        5.056473   -0.067288   -0.454312
      2          6           0        3.809010    0.039486    0.245659
      3          6           0        3.083320    1.274611   -0.263695
      4          8           0        3.962577    2.406203   -0.179172
      5          1           0        4.892215    2.040975   -0.123859
      6          6           0        1.701326    1.609479    0.273330
      7          8           0        1.147606    2.700876   -0.476828
      8          1           0        0.252426    2.890059   -0.073667
      9          6           0        3.194847   -2.475571    0.329458
     10          8           0        4.408232   -3.133872   -0.061186
     11          1           0        4.134079   -4.073802   -0.264065
     12          6           0        2.809513   -1.060871   -0.072404
     13          8           0        1.495059   -0.858269    0.465956
     14          6           0        0.875114    0.358701    0.026072
     15          8           0       -0.372397    0.430835    0.732452
     16          6           0       -1.537627    0.272907   -0.089945
     17          6           0       -1.803287   -1.213941    0.074500
     18          8           0       -0.793671   -2.050590   -0.508184
     19          1           0        0.077438   -1.775237   -0.101374
     20          6           0       -3.230019   -1.592706   -0.289878
     21          8           0       -3.461006   -2.911213    0.227646
     22          1           0       -4.422170   -3.130633    0.058801
     23          6           0       -2.653344    2.603869    0.026164
     24          8           0       -1.466161    3.385311    0.218147
     25          1           0       -1.760151    4.339031    0.155812
     26          6           0       -2.693358    1.130821    0.399046
     27          8           0       -3.970744    0.742816   -0.128502
     28          6           0       -4.304618   -0.620691    0.169374
     29          8           0       -5.494120   -0.800302   -0.612345
     30          1           0        5.766018   -0.210418    0.176290
     31          1           0       -6.234620   -0.985784   -0.030232
     32          1           0        2.396241   -3.105489   -0.002705
     33          1           0        3.179347   -2.493964    1.399188
     34          1           0        2.704034   -1.067123   -1.137174
     35          1           0        3.971542    0.108085    1.301016
     36          1           0        2.939371    1.101419   -1.309728
     37          1           0        1.741831    1.841628    1.317057
     38          1           0        0.673520    0.282433   -1.021995
     39          1           0       -3.435375    3.085465    0.575158
     40          1           0       -2.904835    2.669337   -1.011798
     41          1           0       -2.733897    1.056323    1.465679
     42          1           0       -1.307421    0.499967   -1.109920
     43          1           0       -1.732030   -1.391909    1.127187
     44          1           0       -3.285084   -1.649778   -1.356935
     45          1           0       -4.512537   -0.743200    1.211804
 ---------------------------------------------------------------------

 SCF Done:  E(RB3LYP) =  -1297.93707296     A.U. after   13 cycles

 The electronic state is 1-A.
 Alpha  occ. eigenvalues --  -19.20444 -19.19656 -19.19204 -19.19155 -19.19031
 Alpha  occ. eigenvalues --  -19.18710 -19.17494 -19.17106 -19.15015 -19.14922
 Alpha  occ. eigenvalues --  -19.14795 -10.31596 -10.30833 -10.26843 -10.26372
 Alpha  occ. eigenvalues --  -10.26333 -10.25863 -10.25571 -10.24952 -10.24744
 Alpha  occ. eigenvalues --  -10.24483 -10.24281 -10.24013  -1.10564  -1.09643
 Alpha  occ. eigenvalues --   -1.06284  -1.05572  -1.04831  -1.03685  -1.03173
 Alpha  occ. eigenvalues --   -1.02969  -1.01908  -1.00761  -1.00004  -0.82388
 Alpha  occ. eigenvalues --   -0.80898  -0.79563  -0.78331  -0.71925  -0.70377
 Alpha  occ. eigenvalues --   -0.67743  -0.65348  -0.63550  -0.62635  -0.61257
 Alpha  occ. eigenvalues --   -0.60383  -0.56719  -0.55935  -0.55625  -0.54732
 Alpha  occ. eigenvalues --   -0.54597  -0.53445  -0.53092  -0.52351  -0.51689
 Alpha  occ. eigenvalues --   -0.51153  -0.50023  -0.49037  -0.48740  -0.46373
 Alpha  occ. eigenvalues --   -0.45712  -0.45635  -0.44521  -0.43625  -0.43191
 Alpha  occ. eigenvalues --   -0.42621  -0.42208  -0.41471  -0.40562  -0.39545
 Alpha  occ. eigenvalues --   -0.39130  -0.38255  -0.37760  -0.37126  -0.36085
 Alpha  occ. eigenvalues --   -0.36012  -0.35327  -0.34527  -0.34262  -0.33987
 Alpha  occ. eigenvalues --   -0.33181  -0.31559  -0.30857  -0.30353  -0.30280
 Alpha  occ. eigenvalues --   -0.29572  -0.28824  -0.28468  -0.27858  -0.27005
 Alpha  occ. eigenvalues --   -0.26047
 Alpha virt. eigenvalues --   -0.02308  -0.02208  -0.02134  -0.00592   0.00370
 Alpha virt. eigenvalues --    0.01215   0.02061   0.02479   0.02968   0.03396
 Alpha virt. eigenvalues --    0.03991   0.04170   0.05252   0.05496   0.05582

 Mulliken atomic charges:
              1
     1  O   -0.531091
     2  C   -0.304808
     3  C    0.062247
     4  O   -0.512138
     5  H    0.352503
     6  C    0.159932
     7  O   -0.515403
     8  H    0.429261
     9  C   -0.254193
    10  O   -0.521325
    11  H    0.352237
    12  C    0.539296
    13  O   -0.411002
    14  C   -0.113341
    15  O   -0.369875
    16  C    0.230716
    17  C   -0.224653
    18  O   -0.536940
    19  H    0.418295
    20  C    0.285894
    21  O   -0.501656
    22  H    0.341445
    23  C   -0.111821
    24  O   -0.613430
    25  H    0.388985
    26  C   -0.024860
    27  O   -0.299652
    28  C    0.129042
    29  O   -0.532571
    30  H    0.374033
    31  H    0.357608
    32  H    0.128311
    33  H    0.140714
    34  H    0.133518
    35  H    0.141539
    36  H    0.129893
    37  H    0.143239
    38  H    0.140655
    39  H    0.137750
    40  H    0.155372
    41  H    0.136702
    42  H    0.138990
    43  H    0.143703
    44  H    0.154271
    45  H    0.132610
 Sum of Mulliken atomic charges =   0.00000

 Dipole moment (field-independent basis, Debye):
    X=             -3.1840    Y=             -0.3273    Z=              3.2975  Tot=              4.5955
 Quadrupole moment (field-independent basis, Debye-Ang):
   XX=           -114.5250   YY=           -137.1301   ZZ=           -141.2672
   XY=            -14.3400   XZ=             -0.5193   YZ=              2.8795

  Exact polarizability: 228.939   0.069 192.223   0.291  -0.134 140.030
 Approx polarizability: 267.496  -1.603 247.163   1.591  -1.401 228.828

 ******    7 imaginary frequencies (negative Signs) ******

                     1                      2                      3
                     A                      A                      A
 Frequencies --  -324.3653              -283.5298              -275.0733
 Red. masses --     1.6204                 1.7986                 1.1833
 Frc consts  --     0.1004                 0.0852                 0.0528
 IR Inten    --     3.0141                 1.6168               104.0422
 Raman Activ --     0.1393                 0.0569                 1.2557

                     4                      5                      6
                     A                      A                      A
 Frequencies --  -229.2944               -71.4255               -49.1032
 Red. masses --     1.1762                 6.7195                 6.3252
 Frc consts  --     0.0364                 0.0202                 0.0090
 IR Inten    --   116.9564                 0.6340                 0.2829
 Raman Activ --     0.7496                 0.0237                 0.0124

                     7                      8                      9
                     A                      A                      A
 Frequencies --    -7.4624                40.7109                57.6155
 Red. masses --     6.3436                 6.5322                 6.3588
 Frc consts  --     0.0002                 0.0064                 0.0124
 IR Inten    --     0.7184                 0.5718                 3.2178
 Raman Activ --     0.0293                 0.0375                 0.1718

                    10                     11                     12
                     A                      A                      A
 Frequencies --    79.8523                89.8406                97.4354
 Red. masses --     6.5053                 6.3537                 6.5034
 Frc consts  --     0.0244                 0.0302                 0.0364
 IR Inten    --     0.4819                 0.9070                 0.5566
 Raman Activ --     0.1511                 0.1627                 0.0642

                    13                     14                     15
                     A                      A                      A
 Frequencies --   149.6750               167.6123               183.5490
 Red. masses --     6.7194                 7.3259                 5.5790
 Frc consts  --     0.0887                 0.1213                 0.1107
 IR Inten    --     2.4359                 0.7541                 2.2186
 Raman Activ --     0.1520                 0.6884                 0.0827

                    16                     17                     18
                     A                      A                      A
 Frequencies --   200.7504               227.8391               263.5718
 Red. masses --     7.0464                 6.3737                 4.1874
 Frc consts  --     0.1673                 0.1949                 0.1714
 IR Inten    --     0.2890                 0.4291                14.0730
 Raman Activ --     2.4410                 0.7402                 0.4535

                    19                     20                     21
                     A                      A                      A
 Frequencies --   277.2916               301.3647               306.2709
 Red. masses --     4.8757                 4.7412                 6.3987
 Frc consts  --     0.2209                 0.2537                 0.3536
 IR Inten    --     2.0962                 3.5600                 4.5025
 Raman Activ --     0.0867                 0.2958                 0.3305

                    22                     23                     24
                     A                      A                      A
 Frequencies --   313.6657               317.6396               329.0873
 Red. masses --     5.9112                 5.7261                 5.1583
 Frc consts  --     0.3427                 0.3404                 0.3291
 IR Inten    --     3.1291                 9.0208                 3.0809
 Raman Activ --     1.5952                 2.3593                 3.3255

                    25                     26                     27
                     A                      A                      A
 Frequencies --   340.5433               362.4204               381.8015
 Red. masses --     6.5478                 5.1098                 6.3588
 Frc consts  --     0.4474                 0.3954                 0.5461
 IR Inten    --     4.2545                 2.6474                 4.0204
 Raman Activ --     1.0585                 0.9814                 4.1258

                    28                     29                     30
                     A                      A                      A
 Frequencies --   411.4128               415.1097               427.4215
 Red. masses --     5.4648                 4.1260                 6.2043
 Frc consts  --     0.5450                 0.4189                 0.6678
 IR Inten    --     0.7166                18.7196                 0.5100
 Raman Activ --     6.3951                 0.9013                 1.1831

                    31                     32                     33
                     A                      A                      A
 Frequencies --   439.0859               484.3311               490.2167
 Red. masses --     4.8512                 4.8622                 3.8281
 Frc consts  --     0.5511                 0.6720                 0.5420
 IR Inten    --     9.5775                 9.5034                12.0942
 Raman Activ --     1.8513                 1.0929                 1.4267

                    34                     35                     36
                     A                      A                      A
 Frequencies --   501.1029               529.8198               568.8952
 Red. masses --     3.8415                 3.7712                 3.1999
 Frc consts  --     0.5683                 0.6237                 0.6102
 IR Inten    --     5.4902                 5.2195                15.4353
 Raman Activ --     7.4372                 3.7333                 0.6168

                    37                     38                     39
                     A                      A                      A
 Frequencies --   595.8033               604.3203               620.4600
 Red. masses --     6.2348                 3.0272                 6.5199
 Frc consts  --     1.3040                 0.6514                 1.4788
 IR Inten    --    17.7908                54.5185                15.9805
 Raman Activ --     0.9695                 0.8687                 1.3704

                    40                     41                     42
                     A                      A                      A
 Frequencies --   629.0014               665.9218               683.2940
 Red. masses --     4.0851                 1.0979                 3.6395
 Frc consts  --     0.9523                 0.2868                 1.0012
 IR Inten    --    11.7758               105.7984                 9.5130
 Raman Activ --     0.9328                 1.3614                 0.7957

                    43                     44                     45
                     A                      A                      A
 Frequencies --   697.3957               699.9092               729.9265
 Red. masses --     1.0917                 1.1970                 1.0757
 Frc consts  --     0.3128                 0.3455                 0.3377
 IR Inten    --   100.4858               103.0457               105.9022
 Raman Activ --     2.0489                 1.2578                 2.2790

                    46                     47                     48
                     A                      A                      A
 Frequencies --   840.5011               849.6140               871.1250
 Red. masses --     1.6666                 1.1619                 1.5395
 Frc consts  --     0.6937                 0.4941                 0.6883
 IR Inten    --     5.3985                81.8236                14.3187
 Raman Activ --     1.4665                 0.7293                 0.8178

                    49                     50                     51
                     A                      A                      A
 Frequencies --   875.8921               944.6159               961.2264
 Red. masses --     1.1050                 5.3230                 5.8413
 Frc consts  --     0.4995                 2.7985                 3.1799
 IR Inten    --    63.8125               152.0741                17.9846
 Raman Activ --     1.0034                 2.9386                 0.3891

                    52                     53                     54
                     A                      A                      A
 Frequencies --   985.9132               999.0425              1004.2803
 Red. masses --     5.2883                 4.2270                 8.0301
 Frc consts  --     3.0286                 2.4857                 4.7718
 IR Inten    --   104.9885               166.9727                22.2850
 Raman Activ --     3.4605                 1.3573                 2.4579

                    55                     56                     57
                     A                      A                      A
 Frequencies --  1021.5908              1028.8335              1035.6993
 Red. masses --     5.3220                 6.3425                 5.2542
 Frc consts  --     3.2725                 3.9555                 3.3206
 IR Inten    --    53.2795               230.1239                98.4320
 Raman Activ --     1.2547                 0.2978                 3.2198

                    58                     59                     60
                     A                      A                      A
 Frequencies --  1045.8821              1060.4959              1070.7233
 Red. masses --     3.6622                 2.8613                 5.0924
 Frc consts  --     2.3603                 1.8960                 3.4398
 IR Inten    --   300.1122                70.7579                 4.6709
 Raman Activ --     1.5099                 8.1913                 2.1952

                    61                     62                     63
                     A                      A                      A
 Frequencies --  1074.8653              1086.2175              1090.7859
 Red. masses --     5.2977                 5.4262                 4.1564
 Frc consts  --     3.6061                 3.7721                 2.9137
 IR Inten    --   196.9141                18.6232               107.8915
 Raman Activ --     2.2624                 0.6805                 7.0942

                    64                     65                     66
                     A                      A                      A
 Frequencies --  1103.6553              1111.2495              1120.7394
 Red. masses --     2.2924                 3.3346                 4.0287
 Frc consts  --     1.6451                 2.4262                 2.9814
 IR Inten    --    22.7505                55.1848                28.6670
 Raman Activ --     2.4927                 8.2236                14.8485

                    67                     68                     69
                     A                      A                      A
 Frequencies --  1127.8713              1134.6051              1140.7035
 Red. masses --     2.6599                 2.0911                 2.8006
 Frc consts  --     1.9936                 1.5860                 2.1471
 IR Inten    --    80.1635                71.4176                33.6062
 Raman Activ --    12.2553                 6.2118                 5.0604

                    70                     71                     72
                     A                      A                      A
 Frequencies --  1153.2583              1156.3722              1168.8514
 Red. masses --     1.6428                 2.0391                 2.7999
 Frc consts  --     1.2874                 1.6065                 2.2538
 IR Inten    --    12.4731                 5.6680                 4.0842
 Raman Activ --     5.3512                 2.1249                 1.9190

                    73                     74                     75
                     A                      A                      A
 Frequencies --  1177.9101              1186.5294              1203.0127
 Red. masses --     2.0034                 1.9338                 2.0037
 Frc consts  --     1.6377                 1.6040                 1.7085
 IR Inten    --    12.5141                42.2232                17.2575
 Raman Activ --     1.3598                 2.2211                 3.1514

                    76                     77                     78
                     A                      A                      A
 Frequencies --  1216.2610              1219.8929              1233.4693
 Red. masses --     1.3586                 1.4734                 1.4737
 Frc consts  --     1.1841                 1.2918                 1.3211
 IR Inten    --    18.7873                19.3931                 3.4868
 Raman Activ --     1.0119                 2.8488                 1.9008

                    79                     80                     81
                     A                      A                      A
 Frequencies --  1240.1722              1256.7137              1265.5395
 Red. masses --     1.2283                 1.3160                 1.2322
 Frc consts  --     1.1130                 1.2245                 1.1627
 IR Inten    --    10.2689                17.2009                23.0916
 Raman Activ --     1.6062                 1.9257                 1.9192

                    82                     83                     84
                     A                      A                      A
 Frequencies --  1275.6854              1291.3328              1293.7384
 Red. masses --     1.1907                 1.3405                 1.2831
 Frc consts  --     1.1417                 1.3170                 1.2653
 IR Inten    --    13.4713                15.7979                22.2949
 Raman Activ --     0.3789                 1.7610                 0.4372

                    85                     86                     87
                     A                      A                      A
 Frequencies --  1309.4343              1316.1078              1318.3607
 Red. masses --     1.3212                 1.3234                 1.2198
 Frc consts  --     1.3347                 1.3506                 1.2491
 IR Inten    --     1.8530                27.6597                 3.2021
 Raman Activ --     1.7487                 0.9074                 9.3911

                    88                     89                     90
                     A                      A                      A
 Frequencies --  1332.8070              1336.6781              1344.5106
 Red. masses --     1.2866                 1.3288                 1.2683
 Frc consts  --     1.3466                 1.3989                 1.3508
 IR Inten    --    27.5551                 4.3380                 7.1531
 Raman Activ --     2.0747                19.9035                 9.0536

                    91                     92                     93
                     A                      A                      A
 Frequencies --  1355.4457              1364.3767              1366.2316
 Red. masses --     1.1665                 1.2316                 1.1976
 Frc consts  --     1.2627                 1.3508                 1.3171
 IR Inten    --    26.6650                33.0177                30.2169
 Raman Activ --     3.2708                 3.2531                 3.4807

                    94                     95                     96
                     A                      A                      A
 Frequencies --  1369.5036              1372.7334              1383.2835
 Red. masses --     1.3328                 1.3810                 1.4082
 Frc consts  --     1.4728                 1.5333                 1.5876
 IR Inten    --    13.7465                10.8815                11.1187
 Raman Activ --    11.7735                 3.0975                 4.8300

                    97                     98                     99
                     A                      A                      A
 Frequencies --  1386.8584              1415.5384              1423.4676
 Red. masses --     1.1890                 1.3966                 1.4316
 Frc consts  --     1.3474                 1.6488                 1.7091
 IR Inten    --    21.6305                 9.1291                19.7808
 Raman Activ --     4.5111                 6.6120                 2.8178

                   100                    101                    102
                     A                      A                      A
 Frequencies --  1434.4104              1453.8572              1468.9822
 Red. masses --     1.4993                 1.3170                 1.1434
 Frc consts  --     1.8175                 1.6401                 1.4537
 IR Inten    --    35.8237                50.1948                 5.4240
 Raman Activ --     1.3491                 1.3108                 5.2961

                   103                    104                    105
                     A                      A                      A
 Frequencies --  1475.3280              1478.5476              1480.6240
 Red. masses --     1.4069                 1.2624                 1.1851
 Frc consts  --     1.8043                 1.6260                 1.5308
 IR Inten    --    53.2841                18.1060                13.3333
 Raman Activ --     1.1711                 1.0288                 4.2022

                   106                    107                    108
                     A                      A                      A
 Frequencies --  1487.0279              1510.0517              3264.0390
 Red. masses --     1.2438                 1.3041                 1.0594
 Frc consts  --     1.6205                 1.7521                 6.6498
 IR Inten    --    13.9706                32.3538                26.0506
 Raman Activ --     2.2037                 1.6099                80.0918

                   109                    110                    111
                     A                      A                      A
 Frequencies --  3271.7227              3272.7612              3277.8156
 Red. masses --     1.0811                 1.0592                 1.0817
 Frc consts  --     6.8184                 6.6843                 6.8476
 IR Inten    --    37.8951                69.8348                43.5318
 Raman Activ --    24.7007                93.6915                71.6229

                   112                    113                    114
                     A                      A                      A
 Frequencies --  3283.2157              3286.8629              3295.4081
 Red. masses --     1.0821                 1.0841                 1.0830
 Frc consts  --     6.8723                 6.9007                 6.9297
 IR Inten    --    16.1138                 8.0739                42.5460
 Raman Activ --   148.4713                63.7711               121.7629

                   115                    116                    117
                     A                      A                      A
 Frequencies --  3296.4935              3303.5244              3305.6090
 Red. masses --     1.0817                 1.0777                 1.0868
 Frc consts  --     6.9254                 6.9298                 6.9968
 IR Inten    --   126.8459               174.0650                 3.1536
 Raman Activ --    40.5946               135.7031                31.8327

                   118                    119                    120
                     A                      A                      A
 Frequencies --  3306.7970              3311.9944              3315.8608
 Red. masses --     1.0856                 1.0870                 1.0940
 Frc consts  --     6.9942                 7.0254                 7.0872
 IR Inten    --    66.4157                23.7105                56.7089
 Raman Activ --   105.1506                58.8113                 7.9728

                   121                    122                    123
                     A                      A                      A
 Frequencies --  3319.4915              3327.5510              3330.6337
 Red. masses --     1.0940                 1.1037                 1.0714
 Frc consts  --     7.1025                 7.2002                 7.0023
 IR Inten    --   187.4375                62.4496               730.3103
 Raman Activ --    31.6174                75.9608               101.3535

                   124                    125                    126
                     A                      A                      A
 Frequencies --  3373.8436              3383.3692              3395.9635
 Red. masses --     1.0652                 1.0658                 1.0686
 Frc consts  --     7.1438                 7.1886                 7.2609
 IR Inten    --    38.1034                18.5785                46.4555
 Raman Activ --    95.0498               148.7205               112.5678

                   127                    128                    129
                     A                      A                      A
 Frequencies --  3397.8299              3920.3272              3921.1186
 Red. masses --     1.0668                 1.0676                 1.0678
 Frc consts  --     7.2569                 9.6676                 9.6726
 IR Inten    --    61.8772                75.1091                77.6032
 Raman Activ --   151.9135               116.1576               109.0160

 - Thermochemistry -
 -------------------
 Temperature   298.150 Kelvin.  Pressure   1.00000 Atm.
 Atom     1 has atomic number  8 and mass  15.99491

 Molecular mass:   342.11621 amu.
 Principal axes and moments of inertia in atomic units:
                           1         2         3
     Eigenvalues --  4432.88831********************
           X            0.99997  -0.00765  -0.00039
           Y            0.00765   0.99997  -0.00028
           Z            0.00039   0.00028   1.00000
 This molecule is an asymmetric top.
 Rotational symmetry number  1.
 Warning -- assumption of classical behavior for rotation
           may cause significant error
 Rotational temperatures (Kelvin)      0.01954     0.00704     0.00530
 Rotational constants (GHZ):           0.40713     0.14660     0.11052
    7 imaginary frequencies ignored.
 Zero-point vibrational energy     980658.1 (Joules/Mol)
                                  234.38291 (Kcal/Mol)
 Warning -- explicit consideration of  32 degrees of freedom as
           vibrations may cause significant error
 Vibrational temperatures:     58.57    82.90   114.89   129.26   140.19
          (Kelvin)            215.35   241.16   264.09   288.83   327.81
                              379.22   398.96   433.60   440.65   451.29
                              457.01   473.48   489.97   521.44   549.33
                              591.93   597.25   614.96   631.75   696.84
                              705.31   720.97   762.29   818.51   857.23
                              869.48   892.70   904.99   958.11   983.11
                             1003.40  1007.01  1050.20  1209.29  1222.40
                             1253.35  1260.21  1359.09  1382.99  1418.51
                             1437.40  1444.93  1469.84  1480.26  1490.14
                             1504.79  1525.82  1540.53  1546.49  1562.82
                             1569.40  1587.91  1598.84  1612.49  1622.75
                             1632.44  1641.22  1659.28  1663.76  1681.71
                             1694.75  1707.15  1730.86  1749.93  1755.15
                             1774.69  1784.33  1808.13  1820.83  1835.42
                             1857.94  1861.40  1883.98  1893.58  1896.82
                             1917.61  1923.18  1934.45  1950.18  1963.03
                             1965.70  1970.41  1975.05  1990.23  1995.38
                             2036.64  2048.05  2063.79  2091.77  2113.54
                             2122.67  2127.30  2130.29  2139.50  2172.62
                             4696.22  4707.27  4708.77  4716.04  4723.81
                             4729.06  4741.35  4742.91  4753.03  4756.03
                             4757.74  4765.22  4770.78  4776.00  4787.60
                             4792.03  4854.20  4867.91  4886.03  4888.71
                             5640.47  5641.61

 Zero-point correction=                           0.373513 (Hartree/Particle)
 Thermal correction to Energy=                    0.391866
 Thermal correction to Enthalpy=                  0.392811
 Thermal correction to Gibbs Free Energy=         0.327628
 Sum of electronic and zero-point Energies=          -1297.563560
 Sum of electronic and thermal Energies=             -1297.545207
 Sum of electronic and thermal Enthalpies=           -1297.544262
 Sum of electronic and thermal Free Energies=        -1297.609445

                     E (Thermal)             CV                S
                      KCal/Mol        Cal/Mol-Kelvin    Cal/Mol-Kelvin
 Total                  245.900             75.456            137.189
 Electronic               0.000              0.000              0.000
 Translational            0.889              2.981             43.384
 Rotational               0.889              2.981             35.143
 Vibrational            244.122             69.494             58.662
 Vibration     1          0.594              1.981              5.224
 Vibration     2          0.596              1.974              4.537
 Vibration     3          0.600              1.963              3.895
 Vibration     4          0.602              1.956              3.664
 Vibration     5          0.603              1.951              3.505
 Vibration     6          0.618              1.903              2.676
 Vibration     7          0.624              1.882              2.462
 Vibration     8          0.631              1.862              2.292
 Vibration     9          0.638              1.839              2.126
 Vibration    10          0.651              1.799              1.896
 Vibration    11          0.670              1.740              1.638
 Vibration    12          0.678              1.715              1.550
 Vibration    13          0.693              1.671              1.409
 Vibration    14          0.697              1.662              1.382
 Vibration    15          0.702              1.648              1.343
 Vibration    16          0.704              1.640              1.322
 Vibration    17          0.712              1.617              1.265
 Vibration    18          0.720              1.594              1.210
 Vibration    19          0.736              1.550              1.112
 Vibration    20          0.751              1.509              1.032
 Vibration    21          0.775              1.445              0.922
 Vibration    22          0.779              1.437              0.909
 Vibration    23          0.789              1.411              0.867
 Vibration    24          0.799              1.385              0.829
 Vibration    25          0.840              1.285              0.698
 Vibration    26          0.846              1.272              0.683
 Vibration    27          0.856              1.248              0.655
 Vibration    28          0.885              1.184              0.588
 Vibration    29          0.925              1.099              0.506
 Vibration    30          0.954              1.041              0.457
 Vibration    31          0.963              1.023              0.442
 Vibration    32          0.981              0.989              0.416

 Normal termination of Gaussian 09 at Tue Mar  1 03:33:51 2016.
