 Gaussian 09, Revision B.01,
 Gaussian 09:  EM64L-G09RevB.01 12-Aug-2010

 ------------------------------------------------
 # freq=raman b3lyp/6-31+g(d,p) geom=connectivity
 ------------------------------------------------

 ------------
 290 9000.com
 ------------
 Symbolic Z-matrix:
 Charge =  0 Multiplicity = 1

                         Standard orientation:
 ---------------------------------------------------------------------
 Center     Atomic      Atomic             Coordinates (Angstroms)
 Number     Number       Type             X           Y           Z
 ---------------------------------------------------------------------
      1          8           0       -5.013539   -0.537260    0.311381
      2          6           0       -3.742748   -0.127616   -0.214037
      3          6           0       -3.288691    1.213672    0.338495
      4          8           0       -4.041145    2.317882   -0.184663
      5          1           0       -5.020918    2.119642   -0.219344
      6          6           0       -1.863086    1.572773   -0.048619
      7          8           0       -1.340696    2.725254    0.628772
      8          1           0       -0.405505    2.874528    0.306572
      9          6           0       -2.919084   -2.607608   -0.081432
     10          8           0       -4.182268   -3.172502    0.299744
     11          1           0       -4.063161   -4.163249    0.363956
     12          6           0       -2.689011   -1.135175    0.216730
     13          8           0       -1.484580   -0.809663   -0.492153
     14          6           0       -0.953001    0.368778    0.130716
     15          8           0        0.270113    0.617908   -0.576813
     16          6           0        1.531292    0.181937   -0.048258
     17          6           0        2.081828   -1.172711   -0.463527
     18          8           0        1.029832   -2.132279   -0.286415
     19          1           0        0.200562   -1.697486   -0.636887
     20          6           0        3.402105   -1.526466    0.201476
     21          8           0        3.870821   -2.860178   -0.041961
     22          1           0        4.782705   -2.984138    0.349510
     23          6           0        2.263197    2.702991    0.151092
     24          8           0        1.099470    3.341705   -0.395755
     25          1           0        1.214241    4.325289   -0.260115
     26          6           0        2.567397    1.273610   -0.263604
     27          8           0        3.848012    0.868768    0.242496
     28          6           0        4.348878   -0.403593   -0.191871
     29          8           0        5.437418   -0.580405    0.726844
     30          1           0       -5.618545   -0.710967   -0.413459
     31          1           0       -2.150360   -3.164461    0.412409
     32          1           0       -2.803341   -2.748940   -1.135723
     33          1           0       -2.513784   -1.020730    1.266062
     34          1           0       -3.788015   -0.083987   -1.282189
     35          1           0       -3.372919    1.202591    1.405117
     36          1           0       -1.873219    1.804457   -1.093186
     37          1           0       -0.758560    0.192466    1.168024
     38          1           0        6.255443   -0.689883    0.236487
     39          1           0        3.111380    3.301446   -0.108403
     40          1           0        2.167429    2.716108    1.216717
     41          1           0        2.690213    1.321815   -1.325439
     42          1           0        1.389764    0.118262    1.010428
     43          1           0        2.275328   -1.118468   -1.514486
     44          1           0        3.248659   -1.446217    1.257371
     45          1           0        4.650649   -0.425460   -1.218203
 ---------------------------------------------------------------------

 SCF Done:  E(RB3LYP) =  -1297.93646724     A.U. after   14 cycles

 The electronic state is 1-A.
 Alpha  occ. eigenvalues --  -19.20057 -19.19295 -19.18961 -19.18889 -19.18787
 Alpha  occ. eigenvalues --  -19.17396 -19.16961 -19.16516 -19.15759 -19.14823
 Alpha  occ. eigenvalues --  -19.14035 -10.31675 -10.30653 -10.26454 -10.26035
 Alpha  occ. eigenvalues --  -10.26013 -10.25550 -10.25436 -10.25312 -10.24879
 Alpha  occ. eigenvalues --  -10.24505 -10.24081 -10.24073  -1.10114  -1.09514
 Alpha  occ. eigenvalues --   -1.05922  -1.04844  -1.03863  -1.03534  -1.02659
 Alpha  occ. eigenvalues --   -1.02231  -1.01846  -1.00878  -0.99745  -0.82106
 Alpha  occ. eigenvalues --   -0.80159  -0.80122  -0.77982  -0.72302  -0.70191
 Alpha  occ. eigenvalues --   -0.67526  -0.64828  -0.63288  -0.62044  -0.61718
 Alpha  occ. eigenvalues --   -0.60538  -0.56573  -0.55980  -0.54970  -0.54745
 Alpha  occ. eigenvalues --   -0.53489  -0.53291  -0.53051  -0.51816  -0.51650
 Alpha  occ. eigenvalues --   -0.50815  -0.50211  -0.49134  -0.48135  -0.46759
 Alpha  occ. eigenvalues --   -0.46497  -0.44982  -0.44124  -0.43418  -0.43191
 Alpha  occ. eigenvalues --   -0.42545  -0.41779  -0.40823  -0.40057  -0.39404
 Alpha  occ. eigenvalues --   -0.39092  -0.38098  -0.37918  -0.35887  -0.35111
 Alpha  occ. eigenvalues --   -0.34996  -0.34608  -0.34412  -0.34152  -0.33473
 Alpha  occ. eigenvalues --   -0.32731  -0.31469  -0.31033  -0.30281  -0.29913
 Alpha  occ. eigenvalues --   -0.29261  -0.28355  -0.28278  -0.27527  -0.26673
 Alpha  occ. eigenvalues --   -0.26022
 Alpha virt. eigenvalues --   -0.02069  -0.02040  -0.01664  -0.00224   0.00113
 Alpha virt. eigenvalues --    0.01105   0.02059   0.02397   0.02983   0.03502
 Alpha virt. eigenvalues --    0.03741   0.04341   0.04826   0.05440   0.05870

 Mulliken atomic charges:
              1
     1  O   -0.509596
     2  C   -0.147413
     3  C    0.099798
     4  O   -0.519517
     5  H    0.345981
     6  C   -0.047945
     7  O   -0.554613
     8  H    0.448575
     9  C    0.021995
    10  O   -0.541644
    11  H    0.364844
    12  C    0.217128
    13  O   -0.386107
    14  C    0.145462
    15  O   -0.368392
    16  C   -0.030594
    17  C    0.037452
    18  O   -0.487950
    19  H    0.396073
    20  C   -0.098608
    21  O   -0.502317
    22  H    0.355313
    23  C    0.000232
    24  O   -0.612505
    25  H    0.391883
    26  C   -0.144528
    27  O   -0.320072
    28  C    0.356160
    29  O   -0.561145
    30  H    0.363621
    31  H    0.143776
    32  H    0.138477
    33  H    0.128906
    34  H    0.143645
    35  H    0.146114
    36  H    0.153096
    37  H    0.126719
    38  H    0.357303
    39  H    0.140707
    40  H    0.149156
    41  H    0.130076
    42  H    0.119539
    43  H    0.123777
    44  H    0.148352
    45  H    0.138785
 Sum of Mulliken atomic charges =   0.00000

 Dipole moment (field-independent basis, Debye):
    X=              3.1671    Y=              0.2141    Z=             -1.9713  Tot=              3.7367
 Quadrupole moment (field-independent basis, Debye-Ang):
   XX=           -113.8908   YY=           -135.8941   ZZ=           -140.1137
   XY=             13.8441   XZ=              1.8771   YZ=             -2.2876

  Exact polarizability: 228.767  -2.236 194.484   1.187  -0.435 141.518
 Approx polarizability: 265.721  -1.654 250.376   1.448  -1.766 231.654

 ******    6 imaginary frequencies (negative Signs) ******

                     1                      2                      3
                     A                      A                      A
 Frequencies --  -369.9189              -281.7398              -272.3373
 Red. masses --     1.1347                 1.1541                 1.7491
 Frc consts  --     0.0915                 0.0540                 0.0764
 IR Inten    --   113.7782               113.0611                 2.9006
 Raman Activ --     1.3813                 1.1013                 0.0455

                     4                      5                      6
                     A                      A                      A
 Frequencies --  -259.7511               -76.7607               -65.8548
 Red. masses --     1.7709                 6.3163                 6.5242
 Frc consts  --     0.0704                 0.0219                 0.0167
 IR Inten    --     4.5937                 0.8131                 0.3911
 Raman Activ --     0.1585                 0.0349                 0.0299

                     7                      8                      9
                     A                      A                      A
 Frequencies --    35.9145                45.0422                65.7866
 Red. masses --     6.3602                 6.3388                 6.5038
 Frc consts  --     0.0048                 0.0076                 0.0166
 IR Inten    --     1.5204                 1.1496                 0.4679
 Raman Activ --     0.0266                 0.0528                 0.0630

                    10                     11                     12
                     A                      A                      A
 Frequencies --    79.3020                88.6106               103.3628
 Red. masses --     6.3455                 6.9570                 6.2281
 Frc consts  --     0.0235                 0.0322                 0.0392
 IR Inten    --     2.0066                 2.4178                 2.1182
 Raman Activ --     0.1932                 0.0812                 0.2176

                    13                     14                     15
                     A                      A                      A
 Frequencies --   159.7338               163.9998               192.5955
 Red. masses --     5.2127                 6.5028                 7.2385
 Frc consts  --     0.0784                 0.1030                 0.1582
 IR Inten    --     2.1577                 4.2112                 0.5945
 Raman Activ --     0.2006                 0.6062                 0.6764

                    16                     17                     18
                     A                      A                      A
 Frequencies --   207.1885               227.6570               259.4057
 Red. masses --     6.7729                 5.9374                 5.0058
 Frc consts  --     0.1713                 0.1813                 0.1985
 IR Inten    --     0.1585                 2.7475                 4.4549
 Raman Activ --     2.2176                 0.4612                 0.3586

                    19                     20                     21
                     A                      A                      A
 Frequencies --   280.1800               288.7574               294.4834
 Red. masses --     5.4644                 5.2289                 5.0124
 Frc consts  --     0.2527                 0.2569                 0.2561
 IR Inten    --     0.6840                 4.8678                13.3569
 Raman Activ --     0.3287                 0.8714                 0.1667

                    22                     23                     24
                     A                      A                      A
 Frequencies --   307.1770               317.2588               332.9219
 Red. masses --     5.0649                 6.0172                 6.7717
 Frc consts  --     0.2816                 0.3568                 0.4422
 IR Inten    --     7.8210                 1.9676                 5.8506
 Raman Activ --     0.4891                 2.2959                 4.3075

                    25                     26                     27
                     A                      A                      A
 Frequencies --   341.5136               353.9653               378.8359
 Red. masses --     6.6205                 4.7625                 6.7937
 Frc consts  --     0.4549                 0.3516                 0.5745
 IR Inten    --     4.0013                 6.5201                 1.0425
 Raman Activ --     3.1956                 0.8535                 1.2455

                    28                     29                     30
                     A                      A                      A
 Frequencies --   404.7791               422.0932               427.3220
 Red. masses --     4.4411                 5.0423                 5.2610
 Frc consts  --     0.4287                 0.5293                 0.5660
 IR Inten    --    19.0242                 2.8871                 2.8346
 Raman Activ --     1.7240                 6.0109                 0.1760

                    31                     32                     33
                     A                      A                      A
 Frequencies --   440.3082               472.3350               490.7896
 Red. masses --     5.2579                 4.3351                 4.1304
 Frc consts  --     0.6006                 0.5698                 0.5862
 IR Inten    --     3.7849                 6.1232                10.5791
 Raman Activ --     4.3530                 4.1356                 1.3395

                    34                     35                     36
                     A                      A                      A
 Frequencies --   507.0261               531.0262               563.9450
 Red. masses --     4.6009                 3.1323                 4.6583
 Frc consts  --     0.6969                 0.5204                 0.8729
 IR Inten    --     2.2533                19.2732                11.1128
 Raman Activ --     2.4722                 2.4763                 1.5742

                    37                     38                     39
                     A                      A                      A
 Frequencies --   584.5911               589.3712               615.5576
 Red. masses --     2.8312                 6.0945                 4.0610
 Frc consts  --     0.5701                 1.2473                 0.9066
 IR Inten    --    52.5300                 5.5049                 0.1538
 Raman Activ --     0.2943                 1.0584                 0.2680

                    40                     41                     42
                     A                      A                      A
 Frequencies --   630.7643               690.0091               696.7828
 Red. masses --     4.9710                 1.1569                 3.5759
 Frc consts  --     1.1653                 0.3245                 1.0229
 IR Inten    --    48.1159               102.3581                12.2493
 Raman Activ --     0.8899                 1.5554                 2.2508

                    43                     44                     45
                     A                      A                      A
 Frequencies --   705.6814               707.8497               740.9006
 Red. masses --     1.0633                 1.0977                 1.0896
 Frc consts  --     0.3120                 0.3240                 0.3524
 IR Inten    --   100.1750               110.2553               130.8692
 Raman Activ --     2.0453                 1.8947                 1.8912

                    46                     47                     48
                     A                      A                      A
 Frequencies --   812.3259               848.9848               854.9441
 Red. masses --     1.0792                 1.5002                 1.7577
 Frc consts  --     0.4196                 0.6371                 0.7570
 IR Inten    --   141.5850                 9.6652                 5.6485
 Raman Activ --     3.5691                 0.8390                 1.6960

                    49                     50                     51
                     A                      A                      A
 Frequencies --   889.6229               936.4014               960.9157
 Red. masses --     1.1974                 4.7952                 5.9523
 Frc consts  --     0.5584                 2.4773                 3.2382
 IR Inten    --    57.9862               105.6001                69.7466
 Raman Activ --     0.4998                 2.7351                 0.8294

                    52                     53                     54
                     A                      A                      A
 Frequencies --   986.9432               993.0934               994.9135
 Red. masses --     6.3185                 6.1236                 4.1094
 Frc consts  --     3.6262                 3.5582                 2.3966
 IR Inten    --     9.2787               177.9964                18.6645
 Raman Activ --     1.7209                 0.9068                 1.0361

                    55                     56                     57
                     A                      A                      A
 Frequencies --  1008.2279              1023.4902              1031.8941
 Red. masses --     4.4620                 6.1032                 5.9884
 Frc consts  --     2.6724                 3.7668                 3.7569
 IR Inten    --   218.8030                14.4174               116.1808
 Raman Activ --     3.6934                 1.5289                 1.1990

                    58                     59                     60
                     A                      A                      A
 Frequencies --  1048.9176              1065.3129              1067.7967
 Red. masses --     3.3497                 3.0051                 2.4911
 Frc consts  --     2.1714                 2.0094                 1.6735
 IR Inten    --   411.3596               140.2563                42.8106
 Raman Activ --     3.2385                 6.0885                 9.4841

                    61                     62                     63
                     A                      A                      A
 Frequencies --  1075.0114              1081.1723              1086.7068
 Red. masses --     3.7267                 5.1747                 3.8860
 Frc consts  --     2.5375                 3.5639                 2.7038
 IR Inten    --   135.4365                 8.5864                18.3069
 Raman Activ --     2.1145                 0.9582                 4.1015

                    64                     65                     66
                     A                      A                      A
 Frequencies --  1103.6354              1107.0557              1114.0976
 Red. masses --     3.4346                 3.5182                 2.6614
 Frc consts  --     2.4648                 2.5404                 1.9463
 IR Inten    --   163.0279                46.9423                26.5889
 Raman Activ --     2.5450                25.6645                 3.3722

                    67                     68                     69
                     A                      A                      A
 Frequencies --  1121.4032              1127.1772              1139.8975
 Red. masses --     3.1239                 2.8246                 2.0472
 Frc consts  --     2.3146                 2.1144                 1.5673
 IR Inten    --    18.5278                27.4252                 5.5402
 Raman Activ --     6.1033                 3.7779                 7.0912

                    70                     71                     72
                     A                      A                      A
 Frequencies --  1146.6387              1148.9339              1162.3264
 Red. masses --     1.7379                 3.1932                 2.2823
 Frc consts  --     1.3463                 2.4835                 1.8167
 IR Inten    --    22.1338                71.3163                28.6026
 Raman Activ --     4.1459                 3.3858                 4.5712

                    73                     74                     75
                     A                      A                      A
 Frequencies --  1169.0875              1192.3085              1197.4245
 Red. masses --     2.1873                 1.7932                 1.2935
 Frc consts  --     1.7614                 1.5020                 1.0927
 IR Inten    --    27.5331                 7.3638                 3.8744
 Raman Activ --     4.5481                 0.9849                 2.2410

                    76                     77                     78
                     A                      A                      A
 Frequencies --  1200.1173              1206.8407              1231.2802
 Red. masses --     1.4302                 1.8730                 1.3641
 Frc consts  --     1.2136                 1.6073                 1.2184
 IR Inten    --    19.2693                 5.3857                 9.3694
 Raman Activ --     4.0512                 2.5431                 1.4563

                    79                     80                     81
                     A                      A                      A
 Frequencies --  1235.6793              1256.0678              1259.6701
 Red. masses --     1.3829                 1.2466                 1.2372
 Frc consts  --     1.2441                 1.1587                 1.1567
 IR Inten    --     8.4899                14.9596                11.0311
 Raman Activ --     1.4923                 2.2464                 2.1793

                    82                     83                     84
                     A                      A                      A
 Frequencies --  1266.9862              1285.5327              1286.7086
 Red. masses --     1.2866                 1.3167                 1.2780
 Frc consts  --     1.2169                 1.2821                 1.2466
 IR Inten    --    48.1741                10.6389                 5.9833
 Raman Activ --     0.4055                 2.3717                 5.1992

                    85                     86                     87
                     A                      A                      A
 Frequencies --  1297.3330              1308.9142              1312.8366
 Red. masses --     1.1894                 1.1899                 1.2178
 Frc consts  --     1.1794                 1.2011                 1.2367
 IR Inten    --     1.5745                35.3290                 3.4835
 Raman Activ --     4.4645                11.1335                 4.1691

                    88                     89                     90
                     A                      A                      A
 Frequencies --  1317.5299              1328.9929              1331.5652
 Red. masses --     1.2296                 1.3131                 1.2768
 Frc consts  --     1.2576                 1.3665                 1.3338
 IR Inten    --    29.2102                11.1113                44.7908
 Raman Activ --     5.2022                 2.4900                 1.6100

                    91                     92                     93
                     A                      A                      A
 Frequencies --  1335.0018              1346.5513              1352.6014
 Red. masses --     1.2208                 1.2905                 1.2466
 Frc consts  --     1.2819                 1.3787                 1.3437
 IR Inten    --     6.0656                45.6893                16.0956
 Raman Activ --    10.0403                 3.8402                 1.6879

                    94                     95                     96
                     A                      A                      A
 Frequencies --  1356.5137              1360.4181              1377.4048
 Red. masses --     1.2442                 1.4707                 1.3543
 Frc consts  --     1.3489                 1.6037                 1.5139
 IR Inten    --    45.1244                 3.5067                 3.3063
 Raman Activ --     2.6640                 3.8626                 5.3374

                    97                     98                     99
                     A                      A                      A
 Frequencies --  1388.4852              1391.6505              1404.3343
 Red. masses --     1.3873                 1.5835                 1.4787
 Frc consts  --     1.5758                 1.8068                 1.7182
 IR Inten    --     5.0561                19.0907                 6.2587
 Raman Activ --    12.8302                 5.0371                 4.8869

                   100                    101                    102
                     A                      A                      A
 Frequencies --  1405.8659              1413.1833              1460.5007
 Red. masses --     1.5608                 1.5101                 1.4491
 Frc consts  --     1.8176                 1.7769                 1.8212
 IR Inten    --    27.4465                17.4497                28.2311
 Raman Activ --     3.6151                 1.1530                 0.4270

                   103                    104                    105
                     A                      A                      A
 Frequencies --  1461.7412              1480.8283              1484.0194
 Red. masses --     1.4197                 1.1174                 1.0810
 Frc consts  --     1.7873                 1.4436                 1.4027
 IR Inten    --     4.4763                 0.9197                 3.3136
 Raman Activ --     2.8631                 3.9429                 5.3194

                   106                    107                    108
                     A                      A                      A
 Frequencies --  1492.9304              1500.4379              3261.3566
 Red. masses --     1.2919                 1.2840                 1.0721
 Frc consts  --     1.6965                 1.7031                 6.7188
 IR Inten    --    48.0767                37.8168               232.1446
 Raman Activ --     2.7944                 0.4006                32.9410

                   109                    110                    111
                     A                      A                      A
 Frequencies --  3265.5317              3267.6598              3268.8052
 Red. masses --     1.0737                 1.0794                 1.0575
 Frc consts  --     6.7462                 6.7903                 6.6574
 IR Inten    --   353.5490                68.3205                36.4097
 Raman Activ --    87.5537               133.2632                64.0916

                   112                    113                    114
                     A                      A                      A
 Frequencies --  3278.1669              3286.1878              3287.1168
 Red. masses --     1.0646                 1.0838                 1.0848
 Frc consts  --     6.7406                 6.8957                 6.9058
 IR Inten    --   202.5040                56.5104                 7.1589
 Raman Activ --   263.7714                12.2405                29.0877

                   115                    116                    117
                     A                      A                      A
 Frequencies --  3296.8009              3298.1691              3299.1736
 Red. masses --     1.0830                 1.0848                 1.0847
 Frc consts  --     6.9356                 6.9527                 6.9563
 IR Inten    --    15.2489                 5.1712                22.5419
 Raman Activ --   127.4865                66.5666                31.4686

                   118                    119                    120
                     A                      A                      A
 Frequencies --  3305.7824              3316.8047              3317.2039
 Red. masses --     1.0860                 1.0886                 1.0878
 Frc consts  --     6.9927                 7.0559                 7.0522
 IR Inten    --    12.9079                37.3568                78.3600
 Raman Activ --    31.0917                18.0393                50.1725

                   121                    122                    123
                     A                      A                      A
 Frequencies --  3326.0887              3328.3121              3345.6804
 Red. masses --     1.1050                 1.1072                 1.0679
 Frc consts  --     7.2025                 7.2262                 7.0429
 IR Inten    --    51.0798                42.8750               477.2009
 Raman Activ --    22.9200                58.6613               144.3970

                   124                    125                    126
                     A                      A                      A
 Frequencies --  3384.1114              3388.2885              3393.1270
 Red. masses --     1.0666                 1.0676                 1.0661
 Frc consts  --     7.1967                 7.2211                 7.2320
 IR Inten    --    19.9835                30.7658                41.9594
 Raman Activ --   154.1160               179.9914               149.1213

                   127                    128                    129
                     A                      A                      A
 Frequencies --  3404.1362              3919.2210              3920.1666
 Red. masses --     1.0668                 1.0678                 1.0675
 Frc consts  --     7.2839                 9.6639                 9.6652
 IR Inten    --    63.3328                72.9580                52.3027
 Raman Activ --   141.6287                88.8665               148.0601

 - Thermochemistry -
 -------------------
 Temperature   298.150 Kelvin.  Pressure   1.00000 Atm.
 Atom     1 has atomic number  8 and mass  15.99491

 Molecular mass:   342.11621 amu.
 Principal axes and moments of inertia in atomic units:
                           1         2         3
     Eigenvalues --  4484.70331********************
           X            0.99997   0.00725   0.00001
           Y           -0.00725   0.99997   0.00020
           Z           -0.00001  -0.00020   1.00000
 This molecule is an asymmetric top.
 Rotational symmetry number  1.
 Warning -- assumption of classical behavior for rotation
           may cause significant error
 Rotational temperatures (Kelvin)      0.01931     0.00707     0.00531
 Rotational constants (GHZ):           0.40242     0.14741     0.11072
    6 imaginary frequencies ignored.
 Zero-point vibrational energy     978173.9 (Joules/Mol)
                                  233.78916 (Kcal/Mol)
 Warning -- explicit consideration of  33 degrees of freedom as
           vibrations may cause significant error
 Vibrational temperatures:     51.67    64.81    94.65   114.10   127.49
          (Kelvin)            148.72   229.82   235.96   277.10   298.10
                              327.55   373.23   403.12   415.46   423.70
                              441.96   456.46   479.00   491.36   509.28
                              545.06   582.39   607.30   614.82   633.50
                              679.58   706.14   729.50   764.03   811.39
                              841.10   847.97   885.65   907.53   992.77
                             1002.51  1015.32  1018.44  1065.99  1168.75
                             1221.50  1230.07  1279.97  1347.27  1382.54
                             1419.99  1428.84  1431.46  1450.61  1472.57
                             1484.66  1509.16  1532.75  1536.32  1546.70
                             1555.56  1563.53  1587.88  1592.80  1602.94
                             1613.45  1621.75  1640.06  1649.76  1653.06
                             1672.33  1682.05  1715.46  1722.82  1726.70
                             1736.37  1771.54  1777.86  1807.20  1812.38
                             1822.91  1849.59  1851.28  1866.57  1883.23
                             1888.88  1895.63  1912.12  1915.82  1920.77
                             1937.38  1946.09  1951.72  1957.34  1981.78
                             1997.72  2002.27  2020.52  2022.72  2033.25
                             2101.33  2103.12  2130.58  2135.17  2147.99
                             2158.79  4692.36  4698.37  4701.43  4703.08
                             4716.55  4728.09  4729.42  4743.36  4745.32
                             4746.77  4756.28  4772.14  4772.71  4785.49
                             4788.69  4813.68  4868.98  4874.99  4881.95
                             4897.79  5638.88  5640.24

 Zero-point correction=                           0.372567 (Hartree/Particle)
 Thermal correction to Energy=                    0.391791
 Thermal correction to Enthalpy=                  0.392736
 Thermal correction to Gibbs Free Energy=         0.325177
 Sum of electronic and zero-point Energies=          -1297.563900
 Sum of electronic and thermal Energies=             -1297.544676
 Sum of electronic and thermal Enthalpies=           -1297.543732
 Sum of electronic and thermal Free Energies=        -1297.611290

                     E (Thermal)             CV                S
                      KCal/Mol        Cal/Mol-Kelvin    Cal/Mol-Kelvin
 Total                  245.853             77.718            142.189
 Electronic               0.000              0.000              0.000
 Translational            0.889              2.981             43.384
 Rotational               0.889              2.981             35.147
 Vibrational            244.075             71.757             63.658
 Vibration     1          0.594              1.982              5.473
 Vibration     2          0.595              1.979              5.024
 Vibration     3          0.597              1.971              4.276
 Vibration     4          0.600              1.963              3.908
 Vibration     5          0.601              1.957              3.691
 Vibration     6          0.605              1.947              3.390
 Vibration     7          0.622              1.892              2.553
 Vibration     8          0.623              1.887              2.503
 Vibration     9          0.635              1.850              2.203
 Vibration    10          0.641              1.830              2.068
 Vibration    11          0.651              1.799              1.897
 Vibration    12          0.668              1.747              1.666
 Vibration    13          0.680              1.710              1.533
 Vibration    14          0.685              1.695              1.481
 Vibration    15          0.689              1.684              1.448
 Vibration    16          0.697              1.660              1.377
 Vibration    17          0.704              1.641              1.324
 Vibration    18          0.715              1.610              1.246
 Vibration    19          0.721              1.593              1.205
 Vibration    20          0.730              1.567              1.148
 Vibration    21          0.749              1.515              1.044
 Vibration    22          0.770              1.460              0.945
 Vibration    23          0.784              1.422              0.885
 Vibration    24          0.789              1.411              0.867
 Vibration    25          0.800              1.382              0.826
 Vibration    26          0.829              1.311              0.731
 Vibration    27          0.847              1.270              0.682
 Vibration    28          0.862              1.234              0.641
 Vibration    29          0.886              1.181              0.585
 Vibration    30          0.920              1.109              0.516
 Vibration    31          0.942              1.065              0.477
 Vibration    32          0.947              1.054              0.468
 Vibration    33          0.975              0.999              0.424

 Normal termination of Gaussian 09 at Tue Mar  1 03:42:22 2016.
