 Gaussian 09, Revision B.01,
 Gaussian 09:  EM64L-G09RevB.01 12-Aug-2010

 ------------------------------------------------
 # freq=raman b3lyp/6-31+g(d,p) geom=connectivity
 ------------------------------------------------

 ------------
 500 5000.com
 ------------
 Symbolic Z-matrix:
 Charge =  0 Multiplicity = 1

                         Standard orientation:
 ---------------------------------------------------------------------
 Center     Atomic      Atomic             Coordinates (Angstroms)
 Number     Number       Type             X           Y           Z
 ---------------------------------------------------------------------
      1          8           0       -5.213428    0.153060   -0.260068
      2          6           0       -3.867887   -0.076740    0.181890
      3          6           0       -3.188934   -1.249153   -0.508545
      4          8           0       -4.030703   -2.410044   -0.558161
      5          1           0       -4.869723   -1.963866   -0.869356
      6          6           0       -1.980458   -1.677825    0.306938
      7          8           0       -1.452344   -3.012120    0.269076
      8          1           0       -2.125551   -3.688990    0.565603
      9          6           0       -3.263079    2.412783    0.534319
     10          8           0       -2.657989    3.631499    0.077571
     11          1           0       -3.143580    4.454980    0.371711
     12          6           0       -2.836852    1.033069    0.058861
     13          8           0       -1.463080    0.788698    0.392433
     14          6           0       -1.057745   -0.520086   -0.034803
     15          8           0        0.215386   -0.758201    0.582592
     16          6           0        1.358486   -0.310679   -0.161072
     17          6           0        1.584935    1.187033   -0.028990
     18          8           0        0.660421    1.988982   -0.778441
     19          1           0       -0.244229    1.897295   -0.362602
     20          6           0        3.014854    1.565492   -0.375599
     21          8           0        3.166783    2.990859   -0.312581
     22          1           0        2.346746    3.328882   -0.775882
     23          6           0        2.424466   -2.479268   -0.205408
     24          8           0        3.575155   -3.329671   -0.091087
     25          1           0        3.515481   -4.188505   -0.600506
     26          6           0        2.499689   -1.109066    0.449142
     27          8           0        3.821809   -0.611245    0.197559
     28          6           0        4.051960    0.788219    0.418397
     29          8           0        5.393740    0.885320   -0.080231
     30          1           0        6.013388    0.766386    0.643296
     31          1           0        4.006441    1.026336    1.460572
     32          1           0        3.158445    1.293144   -1.400347
     33          1           0        1.440295    1.431190    1.002691
     34          1           0        1.244697   -0.571245   -1.192604
     35          1           0        2.346793   -1.206053    1.503711
     36          1           0        2.227889   -2.333570   -1.247055
     37          1           0        1.590674   -2.998757    0.218646
     38          1           0       -3.163398    2.408100    1.599656
     39          1           0       -4.307757    2.496097    0.318432
     40          1           0       -5.811255    0.090107    0.488424
     41          1           0       -2.787903    1.162545   -1.002148
     42          1           0       -3.930634   -0.322628    1.221362
     43          1           0       -2.886362   -0.970876   -1.496427
     44          1           0       -2.261550   -1.529652    1.328668
     45          1           0       -0.921518   -0.500699   -1.095918
 ---------------------------------------------------------------------

 SCF Done:  E(RB3LYP) =  -1297.89874511     A.U. after   14 cycles

 The electronic state is 1-A.
 Alpha  occ. eigenvalues --  -19.22287 -19.22012 -19.19026 -19.18902 -19.18369
 Alpha  occ. eigenvalues --  -19.18156 -19.15905 -19.15610 -19.15488 -19.14663
 Alpha  occ. eigenvalues --  -19.14480 -10.32153 -10.29493 -10.29089 -10.28332
 Alpha  occ. eigenvalues --  -10.27300 -10.27146 -10.26250 -10.24983 -10.24114
 Alpha  occ. eigenvalues --  -10.24108 -10.23577 -10.22357  -1.11501  -1.09107
 Alpha  occ. eigenvalues --   -1.06507  -1.05831  -1.04915  -1.03592  -1.03395
 Alpha  occ. eigenvalues --   -1.02786  -1.00483  -0.99922  -0.99040  -0.84952
 Alpha  occ. eigenvalues --   -0.82947  -0.79188  -0.77598  -0.73029  -0.69229
 Alpha  occ. eigenvalues --   -0.67788  -0.64840  -0.64296  -0.63639  -0.61446
 Alpha  occ. eigenvalues --   -0.59249  -0.59030  -0.56000  -0.55650  -0.54828
 Alpha  occ. eigenvalues --   -0.53906  -0.53800  -0.53159  -0.52583  -0.51911
 Alpha  occ. eigenvalues --   -0.50484  -0.50307  -0.48308  -0.47764  -0.47143
 Alpha  occ. eigenvalues --   -0.46327  -0.45888  -0.45044  -0.44416  -0.43723
 Alpha  occ. eigenvalues --   -0.42878  -0.42357  -0.41268  -0.40499  -0.39545
 Alpha  occ. eigenvalues --   -0.39286  -0.38981  -0.37796  -0.37110  -0.35628
 Alpha  occ. eigenvalues --   -0.35162  -0.34782  -0.34146  -0.33504  -0.32685
 Alpha  occ. eigenvalues --   -0.31966  -0.31639  -0.31190  -0.30885  -0.29901
 Alpha  occ. eigenvalues --   -0.29604  -0.29268  -0.27854  -0.26743  -0.26374
 Alpha  occ. eigenvalues --   -0.25805
 Alpha virt. eigenvalues --   -0.04629  -0.02452  -0.01319  -0.00635   0.00223
 Alpha virt. eigenvalues --    0.01075   0.01270   0.02387   0.02764   0.03233
 Alpha virt. eigenvalues --    0.03487   0.03775   0.04581   0.04912   0.05487

 Mulliken atomic charges:
              1
     1  O   -0.537234
     2  C   -0.336376
     3  C    0.023216
     4  O   -0.489440
     5  H    0.355790
     6  C   -0.387674
     7  O   -0.473491
     8  H    0.373488
     9  C   -0.244980
    10  O   -0.555723
    11  H    0.367246
    12  C    0.592615
    13  O   -0.430112
    14  C    0.476702
    15  O   -0.283672
    16  C    0.225466
    17  C    0.003705
    18  O   -0.577935
    19  H    0.435891
    20  C   -0.110685
    21  O   -0.480735
    22  H    0.369653
    23  C   -0.128322
    24  O   -0.542036
    25  H    0.350762
    26  C   -0.236906
    27  O   -0.274642
    28  C    0.406112
    29  O   -0.488154
    30  H    0.349899
    31  H    0.111899
    32  H    0.142834
    33  H    0.144037
    34  H    0.117490
    35  H    0.143341
    36  H    0.108103
    37  H    0.164121
    38  H    0.137290
    39  H    0.140016
    40  H    0.378030
    41  H    0.138420
    42  H    0.136399
    43  H    0.136535
    44  H    0.132305
    45  H    0.116752
 Sum of Mulliken atomic charges =   0.00000

 Dipole moment (field-independent basis, Debye):
    X=            -10.1636    Y=             -0.7657    Z=              2.7803  Tot=             10.5648
 Quadrupole moment (field-independent basis, Debye-Ang):
   XX=           -128.6520   YY=           -138.7707   ZZ=           -134.4517
   XY=            -11.8045   XZ=             -3.8643   YZ=              8.1094

  Exact polarizability: 220.481  -0.566 199.997   0.983   0.907 141.502
 Approx polarizability: 261.384  -2.435 257.317   0.896  -1.085 229.158

 ******    7 imaginary frequencies (negative Signs) ******

                     1                      2                      3
                     A                      A                      A
 Frequencies --  -374.9691              -327.7287              -293.5277
 Red. masses --     1.0840                 1.6750                 1.7901
 Frc consts  --     0.0898                 0.1060                 0.0909
 IR Inten    --   111.5120                 6.0247                 6.7834
 Raman Activ --     2.3662                 0.0608                 0.1522

                     4                      5                      6
                     A                      A                      A
 Frequencies --  -174.0458               -81.1538               -55.9015
 Red. masses --     1.2862                 5.9048                 6.8948
 Frc consts  --     0.0230                 0.0229                 0.0127
 IR Inten    --   102.6278                 2.3207                 0.8511
 Raman Activ --     0.3898                 0.0437                 0.0317

                     7                      8                      9
                     A                      A                      A
 Frequencies --   -22.3080                36.8831                50.0675
 Red. masses --     7.3663                 6.7469                 6.4449
 Frc consts  --     0.0022                 0.0054                 0.0095
 IR Inten    --     0.7620                 0.1283                 2.6062
 Raman Activ --     0.0446                 0.1275                 0.1256

                    10                     11                     12
                     A                      A                      A
 Frequencies --    79.3051               104.5400               121.7726
 Red. masses --     5.9902                 6.7160                 5.9977
 Frc consts  --     0.0222                 0.0432                 0.0524
 IR Inten    --     4.8781                 0.9919                 4.7788
 Raman Activ --     0.2532                 0.4386                 0.2337

                    13                     14                     15
                     A                      A                      A
 Frequencies --   140.0058               159.3002               177.4636
 Red. masses --     5.9826                 5.9213                 6.0689
 Frc consts  --     0.0691                 0.0885                 0.1126
 IR Inten    --     1.4476                 2.7955                 1.2361
 Raman Activ --     0.4416                 0.1211                 0.4196

                    16                     17                     18
                     A                      A                      A
 Frequencies --   191.6665               211.5612               249.7195
 Red. masses --     6.6152                 5.9350                 4.8500
 Frc consts  --     0.1432                 0.1565                 0.1782
 IR Inten    --     2.3570                 2.2270                 8.8159
 Raman Activ --     0.5458                 1.1187                 1.0215

                    19                     20                     21
                     A                      A                      A
 Frequencies --   267.4253               276.2037               287.0408
 Red. masses --     4.3991                 5.3561                 6.3358
 Frc consts  --     0.1854                 0.2407                 0.3076
 IR Inten    --     4.4710                 1.1473                 0.9464
 Raman Activ --     0.5900                 0.2322                 0.1563

                    22                     23                     24
                     A                      A                      A
 Frequencies --   292.7431               319.4967               326.6522
 Red. masses --     5.2320                 5.2972                 5.1176
 Frc consts  --     0.2642                 0.3186                 0.3217
 IR Inten    --     4.6386                 1.4958                 5.1255
 Raman Activ --     0.5753                 3.6747                 0.5777

                    25                     26                     27
                     A                      A                      A
 Frequencies --   344.6974               361.9246               381.7353
 Red. masses --     7.2623                 4.1811                 5.3600
 Frc consts  --     0.5084                 0.3227                 0.4602
 IR Inten    --     1.2272                 3.2023                 9.3971
 Raman Activ --     4.6517                 2.2735                 0.6696

                    28                     29                     30
                     A                      A                      A
 Frequencies --   408.8902               420.3291               428.1474
 Red. masses --     5.2163                 6.3268                 4.7392
 Frc consts  --     0.5138                 0.6586                 0.5119
 IR Inten    --     3.4875                 2.6542                 9.5557
 Raman Activ --     5.1934                 3.5991                 1.7679

                    31                     32                     33
                     A                      A                      A
 Frequencies --   444.2974               472.6688               490.7135
 Red. masses --     5.7708                 3.9523                 4.4723
 Frc consts  --     0.6712                 0.5202                 0.6345
 IR Inten    --    14.4130                 2.2347                16.1160
 Raman Activ --     1.6684                 1.7707                 0.8344

                    34                     35                     36
                     A                      A                      A
 Frequencies --   525.8353               543.8487               554.5654
 Red. masses --     5.1081                 4.9306                 4.8187
 Frc consts  --     0.8322                 0.8592                 0.8732
 IR Inten    --    11.5815                 1.7223                10.8281
 Raman Activ --     2.3436                 5.4342                 5.4600

                    37                     38                     39
                     A                      A                      A
 Frequencies --   592.6283               596.5221               608.0027
 Red. masses --     3.0658                 2.8379                 2.7059
 Frc consts  --     0.6344                 0.5950                 0.5893
 IR Inten    --    22.7162                 6.1224               110.1568
 Raman Activ --     2.1629                 0.4528                 0.3709

                    40                     41                     42
                     A                      A                      A
 Frequencies --   611.7595               618.7356               634.1077
 Red. masses --     1.1988                 1.0556                 1.1020
 Frc consts  --     0.2643                 0.2381                 0.2611
 IR Inten    --    89.4645               105.0762               102.9369
 Raman Activ --     1.5125                 2.2508                 1.9309

                    43                     44                     45
                     A                      A                      A
 Frequencies --   661.3400               673.8942               747.5431
 Red. masses --     3.9084                 3.9941                 1.0889
 Frc consts  --     1.0072                 1.0687                 0.3585
 IR Inten    --    35.9505                15.3341               125.1282
 Raman Activ --     0.1272                 0.3335                 1.5054

                    46                     47                     48
                     A                      A                      A
 Frequencies --   776.7412               815.4069               837.9362
 Red. masses --     1.1355                 1.4790                 1.6199
 Frc consts  --     0.4036                 0.5794                 0.6701
 IR Inten    --   105.5682                85.6662                21.2260
 Raman Activ --     1.4363                 2.7063                 2.1625

                    49                     50                     51
                     A                      A                      A
 Frequencies --   855.1923               951.2605               954.1944
 Red. masses --     2.4838                 4.8103                 6.0318
 Frc consts  --     1.0703                 2.5646                 3.2357
 IR Inten    --    23.4747               153.8663               119.3783
 Raman Activ --     4.4101                 1.0731                 2.4631

                    52                     53                     54
                     A                      A                      A
 Frequencies --   959.8021               981.5382               987.9412
 Red. masses --     6.5815                 4.3769                 3.6512
 Frc consts  --     3.5722                 2.4845                 2.0996
 IR Inten    --    28.4286                34.2365                22.0549
 Raman Activ --     4.6121                 3.4773                 1.1683

                    55                     56                     57
                     A                      A                      A
 Frequencies --   999.7060              1011.9863              1027.3450
 Red. masses --     6.2572                 3.2656                 4.9539
 Frc consts  --     3.6845                 1.9705                 3.0806
 IR Inten    --   234.1479                35.6836               272.0759
 Raman Activ --     2.1732                 2.3126                 1.8967

                    58                     59                     60
                     A                      A                      A
 Frequencies --  1037.8871              1056.1893              1071.6763
 Red. masses --     3.2163                 2.9665                 4.5919
 Frc consts  --     2.0413                 1.9498                 3.1072
 IR Inten    --   118.6895               287.1571                49.6248
 Raman Activ --     0.7217                 4.3313                 4.3291

                    61                     62                     63
                     A                      A                      A
 Frequencies --  1073.7329              1079.3617              1093.2776
 Red. masses --     5.3274                 4.0618                 4.0215
 Frc consts  --     3.6187                 2.7881                 2.8320
 IR Inten    --    44.6699                50.5423                92.4600
 Raman Activ --    19.4149                 1.4255                 6.0356

                    64                     65                     66
                     A                      A                      A
 Frequencies --  1100.9377              1109.3535              1119.0578
 Red. masses --     3.5755                 3.1852                 2.6305
 Frc consts  --     2.5534                 2.3095                 1.9409
 IR Inten    --   139.9029                 3.3668                60.1794
 Raman Activ --     7.6297                 4.4430                 1.7588

                    67                     68                     69
                     A                      A                      A
 Frequencies --  1126.1313              1139.7560              1143.7219
 Red. masses --     2.9306                 2.5707                 2.2196
 Frc consts  --     2.1897                 1.9676                 1.7107
 IR Inten    --    22.5665                16.0591                14.6147
 Raman Activ --     3.3646                 8.0777                 5.5804

                    70                     71                     72
                     A                      A                      A
 Frequencies --  1151.5069              1160.0534              1171.8387
 Red. masses --     2.7039                 2.2921                 1.5869
 Frc consts  --     2.1124                 1.8173                 1.2839
 IR Inten    --    22.0848                45.4562                28.8333
 Raman Activ --     6.1927                 3.1068                 2.3114

                    73                     74                     75
                     A                      A                      A
 Frequencies --  1184.3619              1187.5263              1191.4236
 Red. masses --     2.6253                 1.7612                 2.3481
 Frc consts  --     2.1697                 1.4633                 1.9638
 IR Inten    --    38.2317                10.6731                27.6436
 Raman Activ --     0.3290                 1.6086                 1.7389

                    76                     77                     78
                     A                      A                      A
 Frequencies --  1212.3341              1229.0065              1233.4752
 Red. masses --     1.5540                 1.2838                 1.5111
 Frc consts  --     1.3457                 1.1425                 1.3546
 IR Inten    --    14.4637                 6.6259                 1.1178
 Raman Activ --     2.9723                 3.7810                 2.0072

                    79                     80                     81
                     A                      A                      A
 Frequencies --  1248.2505              1254.7830              1273.1058
 Red. masses --     1.4118                 1.4066                 1.1332
 Frc consts  --     1.2961                 1.3048                 1.0821
 IR Inten    --    18.3779                 1.8326                22.9906
 Raman Activ --     1.5381                 7.6452                 7.5042

                    82                     83                     84
                     A                      A                      A
 Frequencies --  1280.8606              1286.1653              1299.2854
 Red. masses --     1.1924                 1.1882                 1.2929
 Frc consts  --     1.1526                 1.1580                 1.2860
 IR Inten    --     5.4555                 4.5285                16.8815
 Raman Activ --     1.5806                 2.5582                 3.2288

                    85                     86                     87
                     A                      A                      A
 Frequencies --  1299.8090              1309.1924              1315.6409
 Red. masses --     1.2560                 1.2155                 1.2094
 Frc consts  --     1.2503                 1.2275                 1.2334
 IR Inten    --    52.9585                11.4570                13.6902
 Raman Activ --     2.3099                 3.4654                 3.0143

                    88                     89                     90
                     A                      A                      A
 Frequencies --  1324.1196              1326.7539              1342.0333
 Red. masses --     1.3487                 1.2433                 1.3986
 Frc consts  --     1.3932                 1.2895                 1.4841
 IR Inten    --    15.1001                 4.6490                 7.0254
 Raman Activ --     4.9006                 2.6699                 5.1889

                    91                     92                     93
                     A                      A                      A
 Frequencies --  1347.0079              1349.1710              1367.3214
 Red. masses --     1.3892                 1.4148                 1.3268
 Frc consts  --     1.4851                 1.5173                 1.4614
 IR Inten    --     4.9634                17.8310                31.7827
 Raman Activ --     8.4840                 0.6845                 2.6842

                    94                     95                     96
                     A                      A                      A
 Frequencies --  1375.9161              1380.5793              1381.3280
 Red. masses --     1.2287                 1.3963                 1.2870
 Frc consts  --     1.3705                 1.5680                 1.4468
 IR Inten    --    34.9368                17.5222                50.8570
 Raman Activ --     7.6164                 7.5182                 0.6673

                    97                     98                     99
                     A                      A                      A
 Frequencies --  1400.2357              1407.6121              1428.9036
 Red. masses --     1.2354                 1.3270                 1.2608
 Frc consts  --     1.4272                 1.5491                 1.5167
 IR Inten    --     4.0385                 6.1484                 1.9277
 Raman Activ --     2.6175                 9.8898                 4.8846

                   100                    101                    102
                     A                      A                      A
 Frequencies --  1440.1049              1442.8718              1451.9536
 Red. masses --     1.4025                 1.3567                 1.2116
 Frc consts  --     1.7138                 1.6642                 1.5049
 IR Inten    --     2.2001                 3.9285                 3.9442
 Raman Activ --     0.6989                 0.4964                 1.8480

                   103                    104                    105
                     A                      A                      A
 Frequencies --  1459.2430              1465.5601              1478.5234
 Red. masses --     1.3238                 1.1041                 1.0773
 Frc consts  --     1.6608                 1.3972                 1.3876
 IR Inten    --     7.7384                 6.2556                 4.7219
 Raman Activ --     3.0212                 5.9517                 5.6943

                   106                    107                    108
                     A                      A                      A
 Frequencies --  1487.7750              1492.4562              3252.1528
 Red. masses --     1.4455                 1.3313                 1.0773
 Frc consts  --     1.8851                 1.7471                 6.7134
 IR Inten    --    84.2663                63.7439                12.7093
 Raman Activ --     2.0321                 1.8315                84.6013

                   109                    110                    111
                     A                      A                      A
 Frequencies --  3262.9946              3267.8662              3272.6650
 Red. masses --     1.0608                 1.0651                 1.0806
 Frc consts  --     6.6548                 6.7013                 6.8189
 IR Inten    --    38.4445                35.1974                12.0036
 Raman Activ --    50.8094                56.4111                 3.8384

                   112                    113                    114
                     A                      A                      A
 Frequencies --  3281.1202              3281.7403              3287.1943
 Red. masses --     1.0829                 1.0818                 1.0831
 Frc consts  --     6.8689                 6.8645                 6.8955
 IR Inten    --    11.9331                 6.9742                 3.9259
 Raman Activ --   146.0759                62.1105                21.8600

                   115                    116                    117
                     A                      A                      A
 Frequencies --  3289.4807              3294.9721              3298.9614
 Red. masses --     1.0837                 1.0844                 1.0864
 Frc consts  --     6.9090                 6.9368                 6.9660
 IR Inten    --     8.8643                 7.0117                 3.6926
 Raman Activ --    56.1072               156.4735                11.4160

                   118                    119                    120
                     A                      A                      A
 Frequencies --  3304.7253              3306.8589              3315.6138
 Red. masses --     1.0866                 1.0873                 1.1031
 Frc consts  --     6.9916                 7.0055                 7.1447
 IR Inten    --    31.7107               121.1441                45.4607
 Raman Activ --    29.7052                16.5094                44.1655

                   121                    122                    123
                     A                      A                      A
 Frequencies --  3327.0356              3344.1449              3377.0522
 Red. masses --     1.1036                 1.0668                 1.0651
 Frc consts  --     7.1974                 7.0291                 7.1565
 IR Inten    --    43.2602               579.1024                40.0761
 Raman Activ --    50.0158               210.6187                37.9012

                   124                    125                    126
                     A                      A                      A
 Frequencies --  3382.8707              3383.3843              3389.1961
 Red. masses --     1.0680                 1.0644                 1.0683
 Frc consts  --     7.2012                 7.1790                 7.2298
 IR Inten    --    46.7354                39.8649                72.7365
 Raman Activ --   181.2806                90.4531               189.4220

                   127                    128                    129
                     A                      A                      A
 Frequencies --  3406.7035              3920.0136              3920.6149
 Red. masses --     1.0671                 1.0679                 1.0674
 Frc consts  --     7.2970                 9.6688                 9.6672
 IR Inten    --    77.1839               113.1079                58.8686
 Raman Activ --   124.9036                76.2924               143.0886

 - Thermochemistry -
 -------------------
 Temperature   298.150 Kelvin.  Pressure   1.00000 Atm.
 Atom     1 has atomic number  8 and mass  15.99491

 Molecular mass:   342.11621 amu.
 Principal axes and moments of inertia in atomic units:
                           1         2         3
     Eigenvalues --  4741.80035********************
           X            0.99996  -0.00825  -0.00145
           Y            0.00825   0.99995   0.00529
           Z            0.00140  -0.00530   0.99998
 This molecule is an asymmetric top.
 Rotational symmetry number  1.
 Warning -- assumption of classical behavior for rotation
           may cause significant error
 Rotational temperatures (Kelvin)      0.01827     0.00726     0.00535
 Rotational constants (GHZ):           0.38060     0.15130     0.11143
    7 imaginary frequencies ignored.
 Zero-point vibrational energy     976928.1 (Joules/Mol)
                                  233.49141 (Kcal/Mol)
 Warning -- explicit consideration of  34 degrees of freedom as
           vibrations may cause significant error
 Vibrational temperatures:     53.07    72.04   114.10   150.41   175.20
          (Kelvin)            201.44   229.20   255.33   275.77   304.39
                              359.29   384.76   397.40   412.99   421.19
                              459.68   469.98   495.94   520.73   549.23
                              588.30   604.76   616.01   639.24   680.06
                              706.03   756.56   782.48   797.89   852.66
                              858.26   874.78   880.18   890.22   912.34
                              951.52   969.58  1075.55  1117.56  1173.19
                             1205.60  1230.43  1368.65  1372.87  1380.94
                             1412.21  1421.43  1438.35  1456.02  1478.12
                             1493.29  1519.62  1541.90  1544.86  1552.96
                             1572.98  1584.00  1596.11  1610.07  1620.25
                             1639.85  1645.56  1656.76  1669.06  1686.01
                             1704.03  1708.58  1714.19  1744.28  1768.26
                             1774.69  1795.95  1805.35  1831.71  1842.87
                             1850.50  1869.38  1870.13  1883.63  1892.91
                             1905.11  1908.90  1930.88  1938.04  1941.15
                             1967.27  1979.63  1986.34  1987.42  2014.62
                             2025.24  2055.87  2071.99  2075.97  2089.03
                             2099.52  2108.61  2127.26  2140.57  2147.31
                             4679.12  4694.72  4701.72  4708.63  4720.79
                             4721.69  4729.53  4732.82  4740.72  4746.46
                             4754.76  4757.83  4770.42  4786.86  4811.47
                             4858.82  4867.19  4867.93  4876.29  4901.48
                             5640.02  5640.88

 Zero-point correction=                           0.372092 (Hartree/Particle)
 Thermal correction to Energy=                    0.390717
 Thermal correction to Enthalpy=                  0.391661
 Thermal correction to Gibbs Free Energy=         0.325920
 Sum of electronic and zero-point Energies=          -1297.526653
 Sum of electronic and thermal Energies=             -1297.508029
 Sum of electronic and thermal Enthalpies=           -1297.507084
 Sum of electronic and thermal Free Energies=        -1297.572825

                     E (Thermal)             CV                S
                      KCal/Mol        Cal/Mol-Kelvin    Cal/Mol-Kelvin
 Total                  245.178             76.369            138.362
 Electronic               0.000              0.000              0.000
 Translational            0.889              2.981             43.384
 Rotational               0.889              2.981             35.170
 Vibrational            243.401             70.408             59.808
 Vibration     1          0.594              1.982              5.420
 Vibration     2          0.595              1.978              4.815
 Vibration     3          0.600              1.963              3.908
 Vibration     4          0.605              1.946              3.368
 Vibration     5          0.609              1.931              3.072
 Vibration     6          0.615              1.913              2.804
 Vibration     7          0.621              1.892              2.558
 Vibration     8          0.628              1.870              2.355
 Vibration     9          0.634              1.851              2.212
 Vibration    10          0.643              1.823              2.030
 Vibration    11          0.663              1.763              1.733
 Vibration    12          0.673              1.733              1.613
 Vibration    13          0.678              1.717              1.557
 Vibration    14          0.684              1.698              1.491
 Vibration    15          0.688              1.687              1.458
 Vibration    16          0.705              1.636              1.313
 Vibration    17          0.710              1.622              1.277
 Vibration    18          0.723              1.586              1.190
 Vibration    19          0.736              1.551              1.114
 Vibration    20          0.751              1.509              1.032
 Vibration    21          0.773              1.451              0.931
 Vibration    22          0.783              1.426              0.891
 Vibration    23          0.790              1.409              0.865
 Vibration    24          0.804              1.373              0.813
 Vibration    25          0.830              1.311              0.730
 Vibration    26          0.847              1.271              0.682
 Vibration    27          0.881              1.193              0.597
 Vibration    28          0.899              1.153              0.557
 Vibration    29          0.910              1.130              0.535
 Vibration    30          0.950              1.047              0.463
 Vibration    31          0.954              1.039              0.456
 Vibration    32          0.967              1.015              0.436
 Vibration    33          0.971              1.007              0.430
 Vibration    34          0.979              0.992              0.419

 Normal termination of Gaussian 09 at Thu Jan 21 18:18:55 2016.
