 Gaussian 09, Revision B.01,
 Gaussian 09:  EM64L-G09RevB.01 12-Aug-2010

 -------------------------------------------------
 # freq=raman b3lyp/6-31+g(2d,p) geom=connectivity
 -------------------------------------------------

 ------------
 280 5000.com
 ------------
 Symbolic Z-matrix:
 Charge =  0 Multiplicity = 1

                         Standard orientation:
 ---------------------------------------------------------------------
 Center     Atomic      Atomic             Coordinates (Angstroms)
 Number     Number       Type             X           Y           Z
 ---------------------------------------------------------------------
      1          8           0       -5.139455   -0.365373    0.326793
      2          6           0       -3.783398   -0.193342   -0.109493
      3          6           0       -3.323981    1.222267    0.200734
      4          8           0       -4.101798    2.226482   -0.465952
      5          1           0       -5.076285    1.999782   -0.468869
      6          6           0       -1.866506    1.485840   -0.138757
      7          8           0       -1.429196    2.788056    0.278463
      8          1           0       -0.473131    2.901532    0.006800
      9          6           0       -3.026971   -2.591842   -0.127220
     10          8           0       -4.216197   -3.249824    0.332368
     11          1           0       -4.141718   -4.235029    0.178066
     12          6           0       -2.740805   -1.186149    0.376847
     13          8           0       -1.399537   -0.845249   -0.002121
     14          6           0       -0.908352    0.439726    0.407603
     15          8           0        0.257328    0.587611   -0.415315
     16          6           0        1.543157    0.193878    0.086129
     17          6           0        2.111358   -1.072118   -0.533397
     18          8           0        1.256678   -2.218578   -0.409455
     19          1           0        0.327523   -1.860696   -0.509355
     20          6           0        3.413415   -1.494572    0.129133
     21          8           0        3.950480   -2.675102   -0.485197
     22          1           0        4.838048   -2.941166   -0.109370
     23          6           0        2.238699    2.634355    0.154980
     24          8           0        1.082512    3.310936   -0.359849
     25          1           0        1.238923    4.272315   -0.136964
     26          6           0        2.607035    1.220394   -0.263978
     27          8           0        3.805546    0.903596    0.459345
     28          6           0        4.375928   -0.327233   -0.009816
     29          8           0        5.557568   -0.608145    0.744980
     30          1           0       -5.699086   -0.546897   -0.431799
     31          1           0       -3.440599    1.371676    1.253814
     32          1           0       -3.801122   -0.279525   -1.175870
     33          1           0       -1.786090    1.455822   -1.205309
     34          1           0       -2.783587   -1.206141    1.445805
     35          1           0       -2.193310   -3.207053    0.140035
     36          1           0       -3.073464   -2.549019   -1.195351
     37          1           0       -0.714499    0.522889    1.456605
     38          1           0        3.082189    3.251381   -0.074591
     39          1           0        2.802406    1.194370   -1.315668
     40          1           0        1.492659    0.079990    1.148851
     41          1           0        2.296353   -0.892084   -1.571792
     42          1           0        3.236449   -1.685436    1.166993
     43          1           0        4.640389   -0.216388   -1.040676
     44          1           0        2.137156    2.621590    1.220074
     45          1           0        6.261907   -0.874413    0.149490
 ---------------------------------------------------------------------

 SCF Done:  E(RB3LYP) =  -1297.99036055     A.U. after   13 cycles

 The electronic state is 1-A.
 Alpha  occ. eigenvalues --  -19.19183 -19.18566 -19.18231 -19.18156 -19.18113
 Alpha  occ. eigenvalues --  -19.16814 -19.16393 -19.16157 -19.14680 -19.14179
 Alpha  occ. eigenvalues --  -19.12287 -10.30632 -10.30543 -10.26561 -10.25816
 Alpha  occ. eigenvalues --  -10.25563 -10.25449 -10.24856 -10.24754 -10.24314
 Alpha  occ. eigenvalues --  -10.24035 -10.23638 -10.23351  -1.09952  -1.09267
 Alpha  occ. eigenvalues --   -1.06057  -1.04918  -1.04184  -1.03729  -1.02916
 Alpha  occ. eigenvalues --   -1.02442  -1.01415  -1.00678  -0.99140  -0.82731
 Alpha  occ. eigenvalues --   -0.80155  -0.79583  -0.78079  -0.72126  -0.69773
 Alpha  occ. eigenvalues --   -0.67228  -0.64844  -0.63053  -0.62580  -0.61859
 Alpha  occ. eigenvalues --   -0.59813  -0.56527  -0.55849  -0.55160  -0.54982
 Alpha  occ. eigenvalues --   -0.54133  -0.53580  -0.53000  -0.51621  -0.50866
 Alpha  occ. eigenvalues --   -0.50591  -0.50236  -0.49538  -0.48600  -0.46648
 Alpha  occ. eigenvalues --   -0.46141  -0.45210  -0.44187  -0.43704  -0.43363
 Alpha  occ. eigenvalues --   -0.42472  -0.41515  -0.40919  -0.40452  -0.39757
 Alpha  occ. eigenvalues --   -0.38369  -0.38058  -0.37860  -0.36012  -0.35404
 Alpha  occ. eigenvalues --   -0.35102  -0.34632  -0.34372  -0.34318  -0.33350
 Alpha  occ. eigenvalues --   -0.32794  -0.31366  -0.31182  -0.30353  -0.29575
 Alpha  occ. eigenvalues --   -0.29192  -0.28646  -0.28556  -0.26939  -0.26552
 Alpha  occ. eigenvalues --   -0.25956
 Alpha virt. eigenvalues --   -0.02198  -0.02046  -0.01808  -0.00304   0.00109
 Alpha virt. eigenvalues --    0.00944   0.01705   0.02367   0.03071   0.03480
 Alpha virt. eigenvalues --    0.03756   0.04384   0.04493   0.05200   0.05719

 Mulliken atomic charges:
              1
     1  O   -0.533776
     2  C   -0.262371
     3  C    0.335305
     4  O   -0.566706
     5  H    0.336441
     6  C    0.124093
     7  O   -0.620718
     8  H    0.442366
     9  C   -0.186299
    10  O   -0.529328
    11  H    0.340156
    12  C    0.222552
    13  O   -0.210715
    14  C    0.087081
    15  O   -0.218118
    16  C    0.035347
    17  C    0.150778
    18  O   -0.560771
    19  H    0.368593
    20  C    0.128673
    21  O   -0.549139
    22  H    0.334362
    23  C   -0.318237
    24  O   -0.555449
    25  H    0.356828
    26  C    0.069083
    27  O   -0.272910
    28  C    0.118849
    29  O   -0.553864
    30  H    0.340636
    31  H    0.120003
    32  H    0.110301
    33  H    0.131099
    34  H    0.109388
    35  H    0.142967
    36  H    0.136343
    37  H    0.137212
    38  H    0.147377
    39  H    0.126756
    40  H    0.117445
    41  H    0.117587
    42  H    0.129342
    43  H    0.125463
    44  H    0.157652
    45  H    0.338321
 Sum of Mulliken atomic charges =   0.00000

 Dipole moment (field-independent basis, Debye):
    X=              2.8142    Y=             -0.4731    Z=             -1.4687  Tot=              3.2094
 Quadrupole moment (field-independent basis, Debye-Ang):
   XX=           -119.2485   YY=           -135.4211   ZZ=           -139.6175
   XY=             14.5814   XZ=              2.2874   YZ=              0.3876

  Exact polarizability: 234.313  -1.851 197.457   1.509   0.822 144.340
 Approx polarizability: 274.781  -2.196 257.398   1.299   0.850 239.146

 ******    7 imaginary frequencies (negative Signs) ******

                     1                      2                      3
                     A                      A                      A
 Frequencies --  -283.5633              -275.5443              -268.6378
 Red. masses --     1.7276                 1.7466                 1.2081
 Frc consts  --     0.0818                 0.0781                 0.0514
 IR Inten    --     2.5106                16.5571               128.9535
 Raman Activ --     0.0276                 0.0791                 1.0876

                     4                      5                      6
                     A                      A                      A
 Frequencies --  -222.5193               -70.1512               -44.0055
 Red. masses --     1.2392                 6.7170                 6.3792
 Frc consts  --     0.0362                 0.0195                 0.0073
 IR Inten    --    91.3177                 0.8865                 0.1315
 Raman Activ --     0.6809                 0.0334                 0.0215

                     7                      8                      9
                     A                      A                      A
 Frequencies --   -22.2958                51.2247                58.0650
 Red. masses --     6.3220                 6.8358                 6.4545
 Frc consts  --     0.0019                 0.0106                 0.0128
 IR Inten    --     2.3717                 0.0315                 1.3549
 Raman Activ --     0.0417                 0.0190                 0.0765

                    10                     11                     12
                     A                      A                      A
 Frequencies --    78.1412                83.0390               135.4514
 Red. masses --     6.6982                 7.0192                 5.6579
 Frc consts  --     0.0241                 0.0285                 0.0612
 IR Inten    --     0.3212                 1.1856                 0.9263
 Raman Activ --     0.3361                 0.0412                 0.0408

                    13                     14                     15
                     A                      A                      A
 Frequencies --   152.8362               181.5143               187.3576
 Red. masses --     6.1261                 5.9295                 7.7629
 Frc consts  --     0.0843                 0.1151                 0.1606
 IR Inten    --     2.5235                 3.5059                 2.3344
 Raman Activ --     0.3938                 0.5192                 0.6573

                    16                     17                     18
                     A                      A                      A
 Frequencies --   214.1097               231.8026               252.1808
 Red. masses --     7.1305                 5.7278                 4.6026
 Frc consts  --     0.1926                 0.1813                 0.1725
 IR Inten    --     0.0312                 4.2217                20.6182
 Raman Activ --     2.2709                 0.7499                 0.1862

                    19                     20                     21
                     A                      A                      A
 Frequencies --   286.5260               294.4476               300.8056
 Red. masses --     4.1907                 4.4499                 5.5376
 Frc consts  --     0.2027                 0.2273                 0.2952
 IR Inten    --     1.3186                 2.0587                 3.6377
 Raman Activ --     0.1814                 0.4579                 0.5881

                    22                     23                     24
                     A                      A                      A
 Frequencies --   312.6629               316.0963               316.4319
 Red. masses --     5.0315                 6.0963                 6.9893
 Frc consts  --     0.2898                 0.3589                 0.4123
 IR Inten    --     5.3985                 3.2741                 2.7308
 Raman Activ --     0.3095                 4.4219                 2.2798

                    25                     26                     27
                     A                      A                      A
 Frequencies --   344.6848               358.7599               378.3211
 Red. masses --     5.8358                 5.4067                 5.2142
 Frc consts  --     0.4085                 0.4100                 0.4397
 IR Inten    --    13.4607                 1.4604                 1.3008
 Raman Activ --     1.0062                 1.6365                 0.3714

                    28                     29                     30
                     A                      A                      A
 Frequencies --   403.0391               421.5782               432.8264
 Red. masses --     4.2447                 6.5866                 5.3050
 Frc consts  --     0.4062                 0.6897                 0.5855
 IR Inten    --    13.3196                 2.5194                 1.2537
 Raman Activ --     2.0948                 6.7046                 3.0316

                    31                     32                     33
                     A                      A                      A
 Frequencies --   437.9683               469.5997               487.4125
 Red. masses --     5.1127                 4.5401                 4.4218
 Frc consts  --     0.5778                 0.5899                 0.6189
 IR Inten    --     3.2663                 4.4225                14.2278
 Raman Activ --     1.5764                 3.5057                 1.5726

                    34                     35                     36
                     A                      A                      A
 Frequencies --   511.9717               522.1939               567.2142
 Red. masses --     3.2079                 3.3309                 4.5858
 Frc consts  --     0.4954                 0.5351                 0.8693
 IR Inten    --     9.9758                 4.8191                17.4045
 Raman Activ --     2.2541                 3.4670                 1.8009

                    37                     38                     39
                     A                      A                      A
 Frequencies --   585.1624               598.6625               608.1272
 Red. masses --     4.5811                 3.5493                 5.3147
 Frc consts  --     0.9242                 0.7495                 1.1580
 IR Inten    --     7.7892                21.4150                25.8092
 Raman Activ --     1.0956                 0.7618                 0.7414

                    40                     41                     42
                     A                      A                      A
 Frequencies --   631.0272               678.1989               688.6742
 Red. masses --     3.4745                 4.1563                 1.1237
 Frc consts  --     0.8151                 1.1263                 0.3140
 IR Inten    --    18.6622                26.9866                87.0792
 Raman Activ --     0.4852                 1.0507                 2.2667

                    43                     44                     45
                     A                      A                      A
 Frequencies --   703.4218               721.3429               749.0277
 Red. masses --     1.0499                 1.0540                 1.1002
 Frc consts  --     0.3061                 0.3231                 0.3637
 IR Inten    --    89.4495                89.7966               103.5293
 Raman Activ --     1.9048                 1.8630                 1.4149

                    46                     47                     48
                     A                      A                      A
 Frequencies --   796.3118               849.9546               853.6365
 Red. masses --     1.0830                 1.7532                 1.4377
 Frc consts  --     0.4046                 0.7462                 0.6173
 IR Inten    --    88.4096                 8.4547                16.7306
 Raman Activ --     1.8142                 0.6142                 0.4049

                    49                     50                     51
                     A                      A                      A
 Frequencies --   878.9244               911.1011               955.8712
 Red. masses --     1.3181                 4.6537                 4.0644
 Frc consts  --     0.5999                 2.2760                 2.1880
 IR Inten    --    56.5069                73.5724                71.8982
 Raman Activ --     0.7703                 1.7411                 0.5679

                    52                     53                     54
                     A                      A                      A
 Frequencies --   967.9328               986.9845               990.6954
 Red. masses --     5.6328                 5.2406                 5.8634
 Frc consts  --     3.1093                 3.0078                 3.3906
 IR Inten    --    19.8665               156.9608               201.0553
 Raman Activ --     2.8308                 2.1581                 1.0592

                    55                     56                     57
                     A                      A                      A
 Frequencies --   997.9469              1009.3008              1022.4910
 Red. masses --     6.3946                 6.4141                 5.4600
 Frc consts  --     3.7521                 3.8497                 3.3633
 IR Inten    --   158.0382                37.0243               365.7356
 Raman Activ --     1.7622                 3.1216                 3.0811

                    58                     59                     60
                     A                      A                      A
 Frequencies --  1030.0501              1046.8482              1062.4493
 Red. masses --     7.3220                 5.3208                 5.2412
 Frc consts  --     4.5771                 3.4355                 3.4857
 IR Inten    --   319.1790                48.7799                90.0101
 Raman Activ --     1.3683                 1.8910                13.4999

                    61                     62                     63
                     A                      A                      A
 Frequencies --  1068.4678              1070.5063              1078.5330
 Red. masses --     3.9515                 4.6377                 3.1264
 Frc consts  --     2.6579                 3.1314                 2.1427
 IR Inten    --    40.6518                60.1507                34.6864
 Raman Activ --     1.6519                 0.3579                12.0348

                    64                     65                     66
                     A                      A                      A
 Frequencies --  1092.3982              1097.8215              1115.1289
 Red. masses --     2.4238                 2.9111                 2.6574
 Frc consts  --     1.7042                 2.0671                 1.9470
 IR Inten    --     4.4173                36.6140                18.2970
 Raman Activ --     3.9644                11.9691                10.1015

                    67                     68                     69
                     A                      A                      A
 Frequencies --  1119.5622              1120.5966              1129.2136
 Red. masses --     2.6957                 2.5375                 2.3144
 Frc consts  --     1.9908                 1.8774                 1.7387
 IR Inten    --    28.1073                39.1979                23.2742
 Raman Activ --     6.8107                 8.4274                 6.1125

                    70                     71                     72
                     A                      A                      A
 Frequencies --  1138.9002              1146.2893              1157.3825
 Red. masses --     2.4469                 2.2267                 1.9967
 Frc consts  --     1.8700                 1.7238                 1.5759
 IR Inten    --    22.1519                 8.9711                14.5612
 Raman Activ --     2.6564                 4.5997                 1.3614

                    73                     74                     75
                     A                      A                      A
 Frequencies --  1164.0994              1177.2540              1185.0995
 Red. masses --     2.2524                 1.8887                 1.8802
 Frc consts  --     1.7984                 1.5423                 1.5559
 IR Inten    --    33.2337                 3.0192                17.2074
 Raman Activ --     4.0149                 2.5954                 1.5099

                    76                     77                     78
                     A                      A                      A
 Frequencies --  1205.1419              1210.8987              1216.4853
 Red. masses --     1.4356                 1.2253                 1.2672
 Frc consts  --     1.2284                 1.0585                 1.1049
 IR Inten    --     8.0413                 5.1870                13.7285
 Raman Activ --     2.3600                 2.1444                 3.0517

                    79                     80                     81
                     A                      A                      A
 Frequencies --  1228.0725              1246.6570              1253.6782
 Red. masses --     1.2543                 1.3266                 1.2245
 Frc consts  --     1.1145                 1.2148                 1.1339
 IR Inten    --     3.2551                23.9309                10.5414
 Raman Activ --     1.6979                 1.1717                 1.1667

                    82                     83                     84
                     A                      A                      A
 Frequencies --  1260.1506              1283.0584              1292.8215
 Red. masses --     1.1682                 1.3735                 1.3192
 Frc consts  --     1.0930                 1.3322                 1.2991
 IR Inten    --    17.3312                57.2614                 7.8381
 Raman Activ --     1.2763                 4.6180                 1.0930

                    85                     86                     87
                     A                      A                      A
 Frequencies --  1295.8026              1299.5907              1303.4926
 Red. masses --     1.2406                 1.2807                 1.2567
 Frc consts  --     1.2273                 1.2744                 1.2581
 IR Inten    --     9.3738                 7.4129                28.0840
 Raman Activ --     6.9044                 1.5086                 1.8901

                    88                     89                     90
                     A                      A                      A
 Frequencies --  1311.2629              1318.3980              1330.6738
 Red. masses --     1.2632                 1.2075                 1.3294
 Frc consts  --     1.2797                 1.2366                 1.3869
 IR Inten    --    10.2609                13.2517                13.5499
 Raman Activ --     5.8703                 9.0775                 1.9017

                    91                     92                     93
                     A                      A                      A
 Frequencies --  1332.8615              1335.8979              1344.6096
 Red. masses --     1.1811                 1.2985                 1.3583
 Frc consts  --     1.2362                 1.3653                 1.4469
 IR Inten    --    46.3534                 8.5627                44.0786
 Raman Activ --     2.7240                 6.7476                 1.8644

                    94                     95                     96
                     A                      A                      A
 Frequencies --  1359.4453              1363.0061              1367.1841
 Red. masses --     1.3642                 1.2455                 1.5583
 Frc consts  --     1.4854                 1.3633                 1.7162
 IR Inten    --     3.8584                21.3135                23.0016
 Raman Activ --     5.5491                 8.9799                 6.4945

                    97                     98                     99
                     A                      A                      A
 Frequencies --  1378.9923              1391.9506              1399.1303
 Red. masses --     1.2751                 1.4865                 1.4764
 Frc consts  --     1.4287                 1.6969                 1.7028
 IR Inten    --     8.1837                10.6263                30.0567
 Raman Activ --     1.7745                 2.0886                 2.8985

                   100                    101                    102
                     A                      A                      A
 Frequencies --  1400.5233              1414.5079              1457.2187
 Red. masses --     1.4554                 1.5153                 1.3686
 Frc consts  --     1.6819                 1.7864                 1.7123
 IR Inten    --     7.2265                14.0575                18.7461
 Raman Activ --     1.3015                 4.9088                 2.3310

                   103                    104                    105
                     A                      A                      A
 Frequencies --  1473.9353              1477.0146              1484.6629
 Red. masses --     1.0720                 1.1017                 1.3879
 Frc consts  --     1.3721                 1.4161                 1.8024
 IR Inten    --     7.1766                 1.9494                23.5031
 Raman Activ --     4.9457                 3.3685                 0.3200

                   106                    107                    108
                     A                      A                      A
 Frequencies --  1506.9102              1530.4907              3225.7108
 Red. masses --     1.2659                 1.2280                 1.0689
 Frc consts  --     1.6936                 1.6947                 6.5529
 IR Inten    --    43.9561                42.9953              1058.5180
 Raman Activ --     1.3805                 1.0755               158.6643

                   109                    110                    111
                     A                      A                      A
 Frequencies --  3254.2906              3261.2655              3263.9817
 Red. masses --     1.0580                 1.0589                 1.0805
 Frc consts  --     6.6014                 6.6358                 6.7820
 IR Inten    --    31.1883                17.5196                 0.8888
 Raman Activ --    74.8170               172.6864               142.2340

                   112                    113                    114
                     A                      A                      A
 Frequencies --  3269.6210              3269.8302              3274.7865
 Red. masses --     1.0827                 1.0819                 1.0844
 Frc consts  --     6.8193                 6.8156                 6.8516
 IR Inten    --    32.6600                 6.8654                 5.7608
 Raman Activ --    21.8956                 8.5874                23.7456

                   115                    116                    117
                     A                      A                      A
 Frequencies --  3280.2078              3281.6474              3290.4276
 Red. masses --     1.0843                 1.0831                 1.0862
 Frc consts  --     6.8741                 6.8721                 6.9290
 IR Inten    --    15.8124                11.2141                24.4914
 Raman Activ --    19.4955               246.7995                18.7957

                   118                    119                    120
                     A                      A                      A
 Frequencies --  3291.6016              3302.0952              3306.3151
 Red. masses --     1.0862                 1.0881                 1.0883
 Frc consts  --     6.9337                 6.9904                 7.0092
 IR Inten    --    32.3213                37.1919                34.8317
 Raman Activ --     3.9036                 5.4816                44.1023

                   121                    122                    123
                     A                      A                      A
 Frequencies --  3309.4334              3313.2205              3331.6855
 Red. masses --     1.1043                 1.1030                 1.0669
 Frc consts  --     7.1260                 7.1342                 6.9772
 IR Inten    --    57.9108                73.9743               292.4839
 Raman Activ --    26.4891                43.6475               154.8992

                   124                    125                    126
                     A                      A                      A
 Frequencies --  3362.0773              3368.8088              3369.5268
 Red. masses --     1.0660                 1.0678                 1.0665
 Frc consts  --     7.0996                 7.1399                 7.1342
 IR Inten    --    28.9786                48.9004                40.0925
 Raman Activ --   129.4721               156.9723               168.6631

                   127                    128                    129
                     A                      A                      A
 Frequencies --  3383.1638              3887.3142              3891.8902
 Red. masses --     1.0663                 1.0678                 1.0674
 Frc consts  --     7.1907                 9.5070                 9.5258
 IR Inten    --    65.6676                78.4439                79.4769
 Raman Activ --   130.8212                81.1150                99.1164

 - Thermochemistry -
 -------------------
 Temperature   298.150 Kelvin.  Pressure   1.00000 Atm.
 Atom     1 has atomic number  8 and mass  15.99491

 Molecular mass:   342.11621 amu.
 Principal axes and moments of inertia in atomic units:
                           1         2         3
     Eigenvalues --  4416.32430********************
           X            0.99998   0.00704   0.00016
           Y           -0.00704   0.99997   0.00193
           Z           -0.00015  -0.00193   1.00000
 This molecule is an asymmetric top.
 Rotational symmetry number  1.
 Warning -- assumption of classical behavior for rotation
           may cause significant error
 Rotational temperatures (Kelvin)      0.01961     0.00688     0.00523
 Rotational constants (GHZ):           0.40865     0.14329     0.10891
    7 imaginary frequencies ignored.
 Zero-point vibrational energy     973982.1 (Joules/Mol)
                                  232.78730 (Kcal/Mol)
 Warning -- explicit consideration of  32 degrees of freedom as
           vibrations may cause significant error
 Vibrational temperatures:     73.70    83.54   112.43   119.47   194.88
          (Kelvin)            219.90   261.16   269.57   308.06   333.51
                              362.83   412.25   423.64   432.79   449.85
                              454.79   455.27   495.92   516.17   544.32
                              579.88   606.56   622.74   630.14   675.65
                              701.28   736.61   751.32   816.09   841.92
                              861.34   874.96   907.91   975.78   990.85
                             1012.07  1037.85  1077.68  1145.71  1222.89
                             1228.19  1264.57  1310.87  1375.28  1392.64
                             1420.05  1425.39  1435.82  1452.16  1471.13
                             1482.01  1506.18  1528.63  1537.28  1540.22
                             1551.77  1571.72  1579.52  1604.42  1610.80
                             1612.29  1624.68  1638.62  1649.25  1665.21
                             1674.88  1693.80  1705.09  1733.93  1742.21
                             1750.25  1766.92  1793.66  1803.76  1813.07
                             1846.03  1860.08  1864.37  1869.82  1875.43
                             1886.61  1896.88  1914.54  1917.69  1922.06
                             1934.59  1955.94  1961.06  1967.07  1984.06
                             2002.70  2013.03  2015.04  2035.16  2096.61
                             2120.66  2125.09  2136.10  2168.10  2202.03
                             4641.07  4682.19  4692.23  4696.14  4704.25
                             4704.55  4711.68  4719.48  4721.55  4734.19
                             4735.87  4750.97  4757.04  4761.53  4766.98
                             4793.55  4837.27  4846.96  4847.99  4867.61
                             5592.97  5599.55

 Zero-point correction=                           0.370970 (Hartree/Particle)
 Thermal correction to Energy=                    0.389298
 Thermal correction to Enthalpy=                  0.390243
 Thermal correction to Gibbs Free Energy=         0.325476
 Sum of electronic and zero-point Energies=          -1297.619390
 Sum of electronic and thermal Energies=             -1297.601062
 Sum of electronic and thermal Enthalpies=           -1297.600118
 Sum of electronic and thermal Free Energies=        -1297.664884

                     E (Thermal)             CV                S
                      KCal/Mol        Cal/Mol-Kelvin    Cal/Mol-Kelvin
 Total                  244.288             76.008            136.313
 Electronic               0.000              0.000              0.000
 Translational            0.889              2.981             43.384
 Rotational               0.889              2.981             35.176
 Vibrational            242.511             70.046             57.752
 Vibration     1          0.595              1.977              4.770
 Vibration     2          0.596              1.974              4.522
 Vibration     3          0.599              1.964              3.937
 Vibration     4          0.600              1.961              3.818
 Vibration     5          0.613              1.918              2.867
 Vibration     6          0.619              1.900              2.637
 Vibration     7          0.630              1.865              2.313
 Vibration     8          0.632              1.857              2.254
 Vibration     9          0.644              1.819              2.008
 Vibration    10          0.653              1.792              1.865
 Vibration    11          0.664              1.759              1.715
 Vibration    12          0.684              1.699              1.494
 Vibration    13          0.689              1.684              1.448
 Vibration    14          0.693              1.672              1.412
 Vibration    15          0.701              1.650              1.348
 Vibration    16          0.703              1.643              1.330
 Vibration    17          0.703              1.642              1.328
 Vibration    18          0.723              1.586              1.190
 Vibration    19          0.734              1.557              1.127
 Vibration    20          0.749              1.516              1.046
 Vibration    21          0.768              1.464              0.952
 Vibration    22          0.784              1.423              0.887
 Vibration    23          0.794              1.399              0.849
 Vibration    24          0.798              1.387              0.833
 Vibration    25          0.827              1.317              0.739
 Vibration    26          0.843              1.278              0.690
 Vibration    27          0.867              1.223              0.629
 Vibration    28          0.877              1.201              0.605
 Vibration    29          0.923              1.102              0.510
 Vibration    30          0.942              1.063              0.476
 Vibration    31          0.957              1.035              0.452
 Vibration    32          0.967              1.015              0.436

 Normal termination of Gaussian 09 at Fri Mar  4 17:37:23 2016.
