 Gaussian 09, Revision B.01,
 Gaussian 09:  EM64L-G09RevB.01 12-Aug-2010

 ------------------------------------------------
 # freq=raman b3lyp/6-31+g(d,p) geom=connectivity
 ------------------------------------------------

 ------------
 450 6000.com
 ------------
 Symbolic Z-matrix:
 Charge =  0 Multiplicity = 1

                         Standard orientation:
 ---------------------------------------------------------------------
 Center     Atomic      Atomic             Coordinates (Angstroms)
 Number     Number       Type             X           Y           Z
 ---------------------------------------------------------------------
      1          8           0        5.027192    0.237995    0.817215
      2          6           0        3.878699    0.050494   -0.021153
      3          6           0        3.398306   -1.359251    0.282962
      4          8           0        4.280475   -2.216055   -0.457214
      5          1           0        5.204976   -2.045553   -0.116486
      6          6           0        1.948008   -1.635096   -0.079585
      7          8           0        1.525595   -2.597972    0.897323
      8          1           0        1.905812   -3.518827    0.975704
      9          6           0        3.141947    2.327618   -0.357600
     10          8           0        2.460608    3.590094   -0.336615
     11          1           0        3.053008    4.273514   -0.763850
     12          6           0        2.741539    1.010884    0.288318
     13          8           0        1.592056    0.675938   -0.502303
     14          6           0        0.965273   -0.484867    0.063507
     15          8           0       -0.155384   -0.540766   -0.831397
     16          6           0       -1.292615   -0.186259   -0.032051
     17          6           0       -1.756258    1.251375   -0.205073
     18          8           0       -0.774957    2.281112   -0.017177
     19          1           0        0.115000    1.843052   -0.136094
     20          6           0       -3.095055    1.553508    0.447418
     21          8           0       -3.452436    2.931315    0.268557
     22          1           0       -2.840688    3.462532    0.855018
     23          6           0       -2.317647   -2.537052   -0.075753
     24          8           0       -3.232991   -3.620133   -0.295632
     25          1           0       -3.338892   -3.754706   -1.280183
     26          6           0       -2.441262   -1.076885   -0.478691
     27          8           0       -3.660455   -0.815021    0.231266
     28          6           0       -4.046355    0.518502   -0.132058
     29          8           0       -5.275704    0.634365    0.599361
     30          1           0       -5.949934    0.095224    0.179432
     31          1           0        5.769148   -0.254249    0.458331
     32          1           0        4.114440    2.537906    0.036020
     33          1           0        3.253399    2.097027   -1.396497
     34          1           0        2.528065    1.102105    1.332831
     35          1           0        4.157810    0.129337   -1.051095
     36          1           0        3.531573   -1.548913    1.327552
     37          1           0        1.885466   -2.055527   -1.061535
     38          1           0        0.666686   -0.323349    1.078227
     39          1           0       -1.419858   -2.794233    0.446484
     40          1           0       -3.215437   -2.279870   -0.597990
     41          1           0       -2.597346   -0.991493   -1.533796
     42          1           0       -1.076715   -0.371070    0.999516
     43          1           0       -1.973187    1.311408   -1.251131
     44          1           0       -3.003860    1.369501    1.497526
     45          1           0       -4.188921    0.631376   -1.186494
 ---------------------------------------------------------------------

 SCF Done:  E(RB3LYP) =  -1297.59890536     A.U. after   23 cycles

 The electronic state is 1-A.
 Alpha  occ. eigenvalues --  -19.22556 -19.20303 -19.19812 -19.19644 -19.19471
 Alpha  occ. eigenvalues --  -19.17751 -19.17438 -19.16685 -19.15824 -19.15651
 Alpha  occ. eigenvalues --  -19.15467 -10.32058 -10.29270 -10.28979 -10.27431
 Alpha  occ. eigenvalues --  -10.27132 -10.27074 -10.27062 -10.26388 -10.24565
 Alpha  occ. eigenvalues --  -10.24384 -10.24215 -10.16757  -1.11807  -1.10122
 Alpha  occ. eigenvalues --   -1.08043  -1.07723  -1.05233  -1.04965  -1.03252
 Alpha  occ. eigenvalues --   -1.02717  -1.02340  -1.01158  -1.00271  -0.83156
 Alpha  occ. eigenvalues --   -0.81760  -0.80480  -0.79504  -0.72378  -0.71097
 Alpha  occ. eigenvalues --   -0.68148  -0.65700  -0.63869  -0.63477  -0.61655
 Alpha  occ. eigenvalues --   -0.61013  -0.57774  -0.57087  -0.56246  -0.54992
 Alpha  occ. eigenvalues --   -0.54032  -0.53937  -0.53350  -0.53083  -0.52369
 Alpha  occ. eigenvalues --   -0.51124  -0.49742  -0.49394  -0.48858  -0.48400
 Alpha  occ. eigenvalues --   -0.46921  -0.46184  -0.44701  -0.44303  -0.44239
 Alpha  occ. eigenvalues --   -0.43276  -0.41869  -0.41636  -0.40923  -0.39703
 Alpha  occ. eigenvalues --   -0.39371  -0.38086  -0.37800  -0.37271  -0.36350
 Alpha  occ. eigenvalues --   -0.35923  -0.35463  -0.34948  -0.33821  -0.33044
 Alpha  occ. eigenvalues --   -0.32972  -0.32299  -0.31415  -0.30693  -0.30094
 Alpha  occ. eigenvalues --   -0.29086  -0.28563  -0.28360  -0.27924  -0.26283
 Alpha  occ. eigenvalues --   -0.13716
 Alpha virt. eigenvalues --   -0.04685  -0.04352  -0.01542  -0.00678  -0.00213
 Alpha virt. eigenvalues --    0.00226   0.01154   0.01574   0.02087   0.02609
 Alpha virt. eigenvalues --    0.03134   0.03432   0.04422   0.05138   0.05642

 Mulliken atomic charges:
              1
     1  O   -0.510494
     2  C   -0.049473
     3  C   -0.050007
     4  O   -0.485362
     5  H    0.315507
     6  C    0.232913
     7  O   -0.586259
     8  H    0.387023
     9  C   -0.296134
    10  O   -0.538983
    11  H    0.354869
    12  C    0.386715
    13  O   -0.404630
    14  C   -0.049121
    15  O   -0.240596
    16  C   -0.444427
    17  C    0.154856
    18  O   -0.557991
    19  H    0.430198
    20  C   -0.162819
    21  O   -0.453218
    22  H    0.365544
    23  C   -0.437736
    24  O   -0.354679
    25  H    0.321849
    26  C    0.137323
    27  O   -0.291422
    28  C    0.460344
    29  O   -0.508619
    30  H    0.344194
    31  H    0.336632
    32  H    0.142273
    33  H    0.134964
    34  H    0.149672
    35  H    0.152309
    36  H    0.174591
    37  H    0.169096
    38  H    0.134013
    39  H    0.158267
    40  H    0.293970
    41  H    0.148762
    42  H    0.137276
    43  H    0.127228
    44  H    0.143816
    45  H    0.127766
 Sum of Mulliken atomic charges =   0.00000

 Dipole moment (field-independent basis, Debye):
    X=              6.6951    Y=             -2.6644    Z=             -2.5741  Tot=              7.6517
 Quadrupole moment (field-independent basis, Debye-Ang):
   XX=           -115.5635   YY=           -144.2072   ZZ=           -138.4484
   XY=              8.9293   XZ=             12.8713   YZ=              3.9070

  Exact polarizability: 228.806   1.363 219.601   2.678   1.649 150.187
 Approx polarizability: 271.062   2.254 293.835   3.259  -0.365 248.112

 ******   12 imaginary frequencies (negative Signs) ******

                     1                      2                      3
                     A                      A                      A
 Frequencies -- -2491.4750             -1209.3914              -657.8554
 Red. masses --     1.0664                 1.2531                 1.8306
 Frc consts  --     3.9000                 1.0799                 0.4668
 IR Inten    --   106.5586              1150.0018               237.4067
 Raman Activ --   496.3153                74.6631               180.5911

                     4                      5                      6
                     A                      A                      A
 Frequencies --  -434.5296              -346.2327              -318.8974
 Red. masses --     1.9484                 1.1420                 1.6804
 Frc consts  --     0.2168                 0.0807                 0.1007
 IR Inten    --    61.4443               116.9047                 4.2874
 Raman Activ --    15.1581                 0.8377                 0.0298

                     7                      8                      9
                     A                      A                      A
 Frequencies --  -279.3836              -122.3610              -106.8124
 Red. masses --     1.0598                 6.3337                 5.9440
 Frc consts  --     0.0487                 0.0559                 0.0400
 IR Inten    --   129.0990                 1.4025                 0.1969
 Raman Activ --     4.0170                 1.0811                 0.2785

                    10                     11                     12
                     A                      A                      A
 Frequencies --   -93.9372               -77.7830               -34.3521
 Red. masses --     6.1725                 6.5596                 6.7637
 Frc consts  --     0.0321                 0.0234                 0.0047
 IR Inten    --     1.2403                 3.2960                 1.1397
 Raman Activ --     0.1037                 0.0845                 0.0709

                    13                     14                     15
                     A                      A                      A
 Frequencies --    42.7699                72.9934               101.6998
 Red. masses --     6.6568                 6.4601                 7.2122
 Frc consts  --     0.0072                 0.0203                 0.0439
 IR Inten    --     1.5348                 0.3907                 2.1847
 Raman Activ --     0.2768                 0.5779                 0.4212

                    16                     17                     18
                     A                      A                      A
 Frequencies --   114.1742               144.5839               171.4608
 Red. masses --     5.8706                 5.8544                 6.8876
 Frc consts  --     0.0451                 0.0721                 0.1193
 IR Inten    --     2.1709                 8.1374                 2.0865
 Raman Activ --     0.8196                 0.9886                 0.9245

                    19                     20                     21
                     A                      A                      A
 Frequencies --   202.6034               212.0330               256.9073
 Red. masses --     5.4554                 5.9423                 6.0097
 Frc consts  --     0.1319                 0.1574                 0.2337
 IR Inten    --     1.4160                 7.5182                 7.0699
 Raman Activ --     0.9425                 3.2444                 0.6432

                    22                     23                     24
                     A                      A                      A
 Frequencies --   270.4398               276.2527               284.6417
 Red. masses --     5.9701                 6.9736                 5.2151
 Frc consts  --     0.2573                 0.3136                 0.2489
 IR Inten    --     4.3298                 3.8765                 4.0379
 Raman Activ --     1.3187                 3.5389                 4.5907

                    25                     26                     27
                     A                      A                      A
 Frequencies --   300.7079               313.0325               338.0456
 Red. masses --     4.6702                 5.6882                 6.3297
 Frc consts  --     0.2488                 0.3284                 0.4262
 IR Inten    --    27.0045                 6.4594                 1.6855
 Raman Activ --     3.1167                 4.4465                 1.4418

                    28                     29                     30
                     A                      A                      A
 Frequencies --   355.1671               366.3627               384.6278
 Red. masses --     5.4455                 6.8468                 5.1631
 Frc consts  --     0.4047                 0.5415                 0.4500
 IR Inten    --    30.1225                 1.8783                 1.6089
 Raman Activ --     0.9569                 2.5590                 1.5270

                    31                     32                     33
                     A                      A                      A
 Frequencies --   412.8328               433.5622               447.3492
 Red. masses --     7.5020                 4.3354                 4.5795
 Frc consts  --     0.7533                 0.4802                 0.5400
 IR Inten    --     0.7834                16.4160                 5.4372
 Raman Activ --     5.6417                 3.2651                 5.6506

                    34                     35                     36
                     A                      A                      A
 Frequencies --   460.6570               496.9373               510.3438
 Red. masses --     4.8922                 5.5561                 2.9306
 Frc consts  --     0.6117                 0.8084                 0.4497
 IR Inten    --     0.1801                 6.3140                11.9483
 Raman Activ --     1.8920                 0.9251                 0.2424

                    37                     38                     39
                     A                      A                      A
 Frequencies --   529.9892               566.5948               577.5450
 Red. masses --     2.4985                 3.0443                 2.0017
 Frc consts  --     0.4135                 0.5758                 0.3934
 IR Inten    --    51.0144                74.9417                42.9178
 Raman Activ --     2.1212                 2.9877                 1.9720

                    40                     41                     42
                     A                      A                      A
 Frequencies --   587.8500               602.8857               624.9988
 Red. masses --     3.7857                 3.7133                 2.6567
 Frc consts  --     0.7708                 0.7952                 0.6114
 IR Inten    --    12.9021                31.3030                12.6710
 Raman Activ --     2.2976                 2.0544                 6.9840

                    43                     44                     45
                     A                      A                      A
 Frequencies --   635.7517               650.5713               651.1122
 Red. masses --     1.9696                 1.0698                 1.6746
 Frc consts  --     0.4690                 0.2668                 0.4183
 IR Inten    --    56.3781               121.1475                19.1583
 Raman Activ --    11.8008                 4.0488                56.9209

                    46                     47                     48
                     A                      A                      A
 Frequencies --   661.0749               673.2653               698.0968
 Red. masses --     1.2258                 2.5327                 3.6607
 Frc consts  --     0.3156                 0.6764                 1.0511
 IR Inten    --   131.4056                 8.1086                 1.2374
 Raman Activ --     4.6499                 2.8211                 6.8608

                    49                     50                     51
                     A                      A                      A
 Frequencies --   710.3797               768.7193               859.1359
 Red. masses --     1.2080                 1.0722                 5.9494
 Frc consts  --     0.3592                 0.3733                 2.5873
 IR Inten    --   137.0653                47.3984               103.5288
 Raman Activ --     2.5721                 0.4450                42.6476

                    52                     53                     54
                     A                      A                      A
 Frequencies --   871.7047               964.5745               971.4641
 Red. masses --     2.6583                 6.2203                 5.5790
 Frc consts  --     1.1901                 3.4098                 3.1021
 IR Inten    --     2.6610                19.2574               214.0540
 Raman Activ --     4.9970                 4.9640                32.9756

                    55                     56                     57
                     A                      A                      A
 Frequencies --   975.1537               982.0380               993.6628
 Red. masses --     4.8176                 5.3539                 5.5378
 Frc consts  --     2.6991                 3.0421                 3.2216
 IR Inten    --    32.7315               144.3676                22.7583
 Raman Activ --     2.2615                16.4843                45.9163

                    58                     59                     60
                     A                      A                      A
 Frequencies --  1008.2692              1011.6030              1026.4404
 Red. masses --     3.9924                 1.9650                 4.6206
 Frc consts  --     2.3913                 1.1848                 2.8682
 IR Inten    --    44.9692               108.8378               265.1797
 Raman Activ --     5.0696                 1.8788                 2.9703

                    61                     62                     63
                     A                      A                      A
 Frequencies --  1038.7254              1048.1345              1061.5608
 Red. masses --     3.2202                 4.0047                 4.7631
 Frc consts  --     2.0471                 2.5921                 3.1625
 IR Inten    --    75.5215               132.4455               163.5682
 Raman Activ --     3.9816                 1.6782                 1.5016

                    64                     65                     66
                     A                      A                      A
 Frequencies --  1067.0581              1074.7135              1080.5105
 Red. masses --     3.8657                 3.3601                 3.6142
 Frc consts  --     2.5933                 2.2866                 2.4861
 IR Inten    --    43.0665                35.3912                 9.2491
 Raman Activ --    41.3908                23.6630                 4.0441

                    67                     68                     69
                     A                      A                      A
 Frequencies --  1090.0846              1097.7111              1109.9408
 Red. masses --     3.5579                 3.1259                 2.7848
 Frc consts  --     2.4910                 2.2192                 2.0213
 IR Inten    --    92.0008                 8.4140                22.2757
 Raman Activ --     9.6038                41.3765                 6.2623

                    70                     71                     72
                     A                      A                      A
 Frequencies --  1120.0607              1130.6816              1141.3980
 Red. masses --     2.1724                 2.0795                 2.1906
 Frc consts  --     1.6058                 1.5663                 1.6815
 IR Inten    --    65.9088                56.0550                 3.1128
 Raman Activ --     6.0503                 3.9239                 3.0469

                    73                     74                     75
                     A                      A                      A
 Frequencies --  1145.5486              1148.6552              1166.9987
 Red. masses --     1.3723                 1.5344                 3.4791
 Frc consts  --     1.0610                 1.1928                 2.7917
 IR Inten    --    38.7222                18.1084                39.4180
 Raman Activ --    62.3399                61.8821                 5.9598

                    76                     77                     78
                     A                      A                      A
 Frequencies --  1177.8075              1183.6827              1206.6342
 Red. masses --     2.0538                 1.5523                 1.5137
 Frc consts  --     1.6786                 1.2815                 1.2985
 IR Inten    --     8.6610                14.6003                 5.7211
 Raman Activ --    25.0171                 3.4063                69.4471

                    79                     80                     81
                     A                      A                      A
 Frequencies --  1209.1554              1221.9049              1224.9419
 Red. masses --     1.4280                 1.4431                 1.3936
 Frc consts  --     1.2301                 1.2694                 1.2321
 IR Inten    --    45.9701                18.6505                20.4061
 Raman Activ --    32.6968                14.7343                 5.2092

                    82                     83                     84
                     A                      A                      A
 Frequencies --  1239.8814              1241.1230              1254.4598
 Red. masses --     1.3841                 1.3395                 1.2904
 Frc consts  --     1.2537                 1.2156                 1.1964
 IR Inten    --     7.3618                 3.6379                27.1518
 Raman Activ --     0.6915                 3.6391                10.3595

                    85                     86                     87
                     A                      A                      A
 Frequencies --  1272.3409              1273.1628              1284.9868
 Red. masses --     1.4819                 1.4687                 1.2348
 Frc consts  --     1.4135                 1.4027                 1.2013
 IR Inten    --     5.0298                 8.4866                47.2759
 Raman Activ --     1.5340                 3.6927                 5.7097

                    88                     89                     90
                     A                      A                      A
 Frequencies --  1290.0053              1308.1379              1312.3019
 Red. masses --     1.3049                 1.4393                 1.3345
 Frc consts  --     1.2794                 1.4511                 1.3540
 IR Inten    --    28.0270                44.3568                19.4664
 Raman Activ --     6.0671                 8.3093                 1.7207

                    91                     92                     93
                     A                      A                      A
 Frequencies --  1326.7348              1327.7975              1342.8133
 Red. masses --     1.3091                 1.1592                 1.2137
 Frc consts  --     1.3576                 1.2041                 1.2894
 IR Inten    --    24.6086                16.0693                30.2071
 Raman Activ --    21.4651               126.7553                 5.9416

                    94                     95                     96
                     A                      A                      A
 Frequencies --  1349.6839              1357.6580              1369.0993
 Red. masses --     1.3185                 1.2637                 1.4613
 Frc consts  --     1.4151                 1.3724                 1.6139
 IR Inten    --     4.1891                36.9985                14.5419
 Raman Activ --     1.6875                 3.1978                 9.5846

                    97                     98                     99
                     A                      A                      A
 Frequencies --  1377.2324              1384.2289              1400.8189
 Red. masses --     1.4152                 1.2597                 1.1769
 Frc consts  --     1.5816                 1.4221                 1.3607
 IR Inten    --    42.8013                 1.8521                 3.8520
 Raman Activ --     3.8631                 6.5687                 2.5542

                   100                    101                    102
                     A                      A                      A
 Frequencies --  1404.2783              1438.1756              1440.5669
 Red. masses --     1.4061                 1.4807                 1.6688
 Frc consts  --     1.6336                 1.8044                 2.0405
 IR Inten    --    22.9512                43.6620               121.5166
 Raman Activ --     4.9860                 3.3831                36.9832

                   103                    104                    105
                     A                      A                      A
 Frequencies --  1455.6015              1457.4827              1460.6715
 Red. masses --     1.2927                 1.1186                 1.3803
 Frc consts  --     1.6137                 1.4000                 1.7351
 IR Inten    --    15.7928                 3.2649                 1.8284
 Raman Activ --    11.9210                 5.9711                21.8630

                   106                    107                    108
                     A                      A                      A
 Frequencies --  1479.6115              1489.8156              3073.4828
 Red. masses --     1.2733                 1.3001                 1.0265
 Frc consts  --     1.6423                 1.7001                 5.7132
 IR Inten    --     9.3898                54.6623                32.0867
 Raman Activ --     5.2161                 5.6399              1406.2757

                   109                    110                    111
                     A                      A                      A
 Frequencies --  3195.1543              3244.7920              3258.8464
 Red. masses --     1.0636                 1.0776                 1.0783
 Frc consts  --     6.3978                 6.6848                 6.7471
 IR Inten    --   255.8092                37.0781                53.9194
 Raman Activ --  2544.5616                60.5489                53.9628

                   112                    113                    114
                     A                      A                      A
 Frequencies --  3259.6027              3291.1785              3296.2356
 Red. masses --     1.0602                 1.0878                 1.0853
 Frc consts  --     6.6370                 6.9423                 6.9476
 IR Inten    --    30.4740                 1.6993                 1.3466
 Raman Activ --   112.0422                 9.3508                73.0967

                   115                    116                    117
                     A                      A                      A
 Frequencies --  3302.3997              3307.9903              3308.7197
 Red. masses --     1.0868                 1.0953                 1.0893
 Frc consts  --     6.9833                 7.0617                 7.0259
 IR Inten    --     2.2414                 7.6348                42.3960
 Raman Activ --    86.5494                48.8720                42.7540

                   118                    119                    120
                     A                      A                      A
 Frequencies --  3309.1054              3316.1479              3321.4593
 Red. masses --     1.0869                 1.0854                 1.0882
 Frc consts  --     7.0122                 7.0326                 7.0729
 IR Inten    --    17.2269                13.7966                 4.3697
 Raman Activ --    15.8009                82.3295                18.4115

                   121                    122                    123
                     A                      A                      A
 Frequencies --  3325.8024              3352.8696              3379.7844
 Red. masses --     1.0888                 1.0683                 1.0657
 Frc consts  --     7.0959                 7.0761                 7.1725
 IR Inten    --    64.0723               457.7821                 9.2184
 Raman Activ --     5.0397               205.6176               137.3341

                   124                    125                    126
                     A                      A                      A
 Frequencies --  3384.7797              3399.0247              3402.0678
 Red. masses --     1.0675                 1.0664                 1.0689
 Frc consts  --     7.2059                 7.2593                 7.2893
 IR Inten    --    56.2128                52.8179                72.5150
 Raman Activ --   174.2356               123.9793               161.2603

                   127                    128                    129
                     A                      A                      A
 Frequencies --  3429.9243              3905.6855              3914.0802
 Red. masses --     1.1519                 1.0669                 1.0668
 Frc consts  --     7.9845                 9.5892                 9.6294
 IR Inten    --   101.9259                29.0768                40.5732
 Raman Activ --     4.9938               122.6705               131.3331

 - Thermochemistry -
 -------------------
 Temperature   298.150 Kelvin.  Pressure   1.00000 Atm.
 Atom     1 has atomic number  8 and mass  15.99491

 Molecular mass:   342.11621 amu.
 Principal axes and moments of inertia in atomic units:
                           1         2         3
     Eigenvalues --  4702.11767********************
           X            0.99998   0.00618   0.00234
           Y           -0.00618   0.99998   0.00016
           Z           -0.00234  -0.00018   1.00000
 This molecule is an asymmetric top.
 Rotational symmetry number  1.
 Warning -- assumption of classical behavior for rotation
           may cause significant error
 Rotational temperatures (Kelvin)      0.01842     0.00730     0.00543
 Rotational constants (GHZ):           0.38381     0.15216     0.11310
   12 imaginary frequencies ignored.
 Zero-point vibrational energy     948858.6 (Joules/Mol)
                                  226.78266 (Kcal/Mol)
 Warning -- explicit consideration of  29 degrees of freedom as
           vibrations may cause significant error
 Vibrational temperatures:     61.54   105.02   146.32   164.27   208.02
          (Kelvin)            246.69   291.50   305.07   369.63   389.10
                              397.47   409.54   432.65   450.38   486.37
                              511.01   527.11   553.39   593.97   623.80
                              643.63   662.78   714.98   734.27   762.54
                              815.20   830.96   845.78   867.42   899.23
                              914.70   936.03   936.80   951.14   968.68
                             1004.40  1022.08  1106.01  1236.10  1254.19
                             1387.81  1397.72  1403.03  1412.93  1429.66
                             1450.67  1455.47  1476.82  1494.49  1508.03
                             1527.35  1535.26  1546.27  1554.61  1568.39
                             1579.36  1596.96  1611.52  1626.80  1642.22
                             1648.19  1652.66  1679.05  1694.60  1703.05
                             1736.08  1739.70  1758.05  1762.42  1783.91
                             1785.70  1804.89  1830.61  1831.80  1848.81
                             1856.03  1882.12  1888.11  1908.87  1910.40
                             1932.01  1941.89  1953.36  1969.83  1981.53
                             1991.59  2015.46  2020.44  2069.21  2072.65
                             2094.28  2096.99  2101.58  2128.83  2143.51
                             4422.05  4597.11  4668.53  4688.75  4689.84
                             4735.27  4742.54  4751.41  4759.45  4760.50
                             4761.06  4771.19  4778.83  4785.08  4824.03
                             4862.75  4869.94  4890.43  4894.81  4934.89
                             5619.40  5631.48

 Zero-point correction=                           0.361401 (Hartree/Particle)
 Thermal correction to Energy=                    0.378398
 Thermal correction to Enthalpy=                  0.379342
 Thermal correction to Gibbs Free Energy=         0.317438
 Sum of electronic and zero-point Energies=          -1297.237504
 Sum of electronic and thermal Energies=             -1297.220508
 Sum of electronic and thermal Enthalpies=           -1297.219563
 Sum of electronic and thermal Free Energies=        -1297.281467

                     E (Thermal)             CV                S
                      KCal/Mol        Cal/Mol-Kelvin    Cal/Mol-Kelvin
 Total                  237.448             71.935            130.288
 Electronic               0.000              0.000              0.000
 Translational            0.889              2.981             43.384
 Rotational               0.889              2.981             35.141
 Vibrational            235.671             65.974             51.762
 Vibration     1          0.595              1.980              5.126
 Vibration     2          0.599              1.967              4.071
 Vibration     3          0.604              1.948              3.421
 Vibration     4          0.607              1.938              3.197
 Vibration     5          0.616              1.909              2.742
 Vibration     6          0.626              1.878              2.419
 Vibration     7          0.639              1.836              2.109
 Vibration     8          0.643              1.823              2.026
 Vibration     9          0.666              1.751              1.683
 Vibration    10          0.674              1.728              1.593
 Vibration    11          0.678              1.717              1.557
 Vibration    12          0.683              1.702              1.506
 Vibration    13          0.693              1.672              1.413
 Vibration    14          0.701              1.649              1.346
 Vibration    15          0.718              1.599              1.221
 Vibration    16          0.731              1.565              1.143
 Vibration    17          0.739              1.541              1.095
 Vibration    18          0.754              1.503              1.021
 Vibration    19          0.777              1.442              0.917
 Vibration    20          0.794              1.397              0.847
 Vibration    21          0.806              1.367              0.804
 Vibration    22          0.818              1.337              0.764
 Vibration    23          0.852              1.257              0.666
 Vibration    24          0.865              1.227              0.633
 Vibration    25          0.885              1.184              0.587
 Vibration    26          0.923              1.104              0.511
 Vibration    27          0.934              1.080              0.490
 Vibration    28          0.945              1.058              0.471
 Vibration    29          0.961              1.026              0.445

 Normal termination of Gaussian 09 at Tue Mar  1 17:36:03 2016.
