 Gaussian 09, Revision B.01,
 Gaussian 09:  EM64L-G09RevB.01 12-Aug-2010

 -------------------------------------------------
 # freq=raman b3lyp/6-31+g(2d,p) geom=connectivity
 -------------------------------------------------

 -----------------
 300 8372/8372.com
 -----------------
 Symbolic Z-matrix:
 Charge =  0 Multiplicity = 1

                         Standard orientation:
 ---------------------------------------------------------------------
 Center     Atomic      Atomic             Coordinates (Angstroms)
 Number     Number       Type             X           Y           Z
 ---------------------------------------------------------------------
      1          8           0       -4.985608   -0.586534    0.486195
      2          6           0       -3.740035   -0.149705   -0.077433
      3          6           0       -3.314898    1.251553    0.328518
      4          8           0       -4.179199    2.320161   -0.083397
      5          1           0       -5.135172    2.162476    0.166939
      6          6           0       -1.927551    1.425367   -0.268642
      7          8           0       -1.492886    2.745168    0.090619
      8          1           0       -0.639778    3.011892   -0.358371
      9          6           0       -2.836161   -2.524757   -0.256520
     10          8           0       -3.932786   -3.270458    0.293059
     11          1           0       -3.614010   -4.216990    0.325831
     12          6           0       -2.631146   -1.121834    0.291791
     13          8           0       -1.316039   -0.869028   -0.222137
     14          6           0       -0.848021    0.437927    0.144646
     15          8           0        0.369096    0.528170   -0.609242
     16          6           0        1.528965    0.161565    0.152326
     17          6           0        2.002979   -1.183433   -0.373926
     18          8           0        1.011896   -2.213366   -0.251110
     19          1           0        0.183209   -1.765908   -0.587305
     20          6           0        3.394766   -1.533709    0.129062
     21          8           0        3.826875   -2.741643   -0.511585
     22          1           0        4.616238   -3.077127    0.003004
     23          6           0        2.256683    2.722425    0.090761
     24          8           0        1.039383    3.332826   -0.363292
     25          1           0        1.212080    4.317265   -0.367850
     26          6           0        2.526081    1.254598   -0.194293
     27          8           0        3.781372    0.911813    0.412210
     28          6           0        4.323893   -0.340849   -0.029326
     29          8           0        5.386611   -0.421429    0.930519
     30          1           0        6.221007   -0.551519    0.473944
     31          1           0       -5.582283   -0.846907   -0.219344
     32          1           0       -1.938598   -3.081435   -0.085085
     33          1           0       -2.984581   -2.448501   -1.313429
     34          1           0       -2.573796   -1.178048    1.358774
     35          1           0       -3.843921   -0.161891   -1.142308
     36          1           0       -3.229898    1.281512    1.394716
     37          1           0       -2.020172    1.384271   -1.333833
     38          1           0       -0.655042    0.493393    1.195638
     39          1           0        3.066204    3.279881   -0.332109
     40          1           0        2.297194    2.850467    1.152300
     41          1           0        2.673962    1.187195   -1.251879
     42          1           0        1.320673    0.130308    1.201391
     43          1           0        2.120455   -1.042181   -1.428035
     44          1           0        3.315803   -1.738834    1.176243
     45          1           0        4.707359   -0.269648   -1.025712
 ---------------------------------------------------------------------

 SCF Done:  E(RB3LYP) =  -1297.98040539     A.U. after   13 cycles

 The electronic state is 1-A.
 Alpha  occ. eigenvalues --  -19.18628 -19.17892 -19.17811 -19.17434 -19.17315
 Alpha  occ. eigenvalues --  -19.16848 -19.16357 -19.15562 -19.15322 -19.13815
 Alpha  occ. eigenvalues --  -19.12428 -10.30579 -10.30082 -10.25635 -10.25485
 Alpha  occ. eigenvalues --  -10.25341 -10.24936 -10.24847 -10.24777 -10.24373
 Alpha  occ. eigenvalues --  -10.24008 -10.23984 -10.23319  -1.10135  -1.09062
 Alpha  occ. eigenvalues --   -1.05459  -1.04705  -1.03717  -1.03565  -1.02292
 Alpha  occ. eigenvalues --   -1.02036  -1.01788  -1.00634  -0.99307  -0.81738
 Alpha  occ. eigenvalues --   -0.80452  -0.79371  -0.77825  -0.71905  -0.69174
 Alpha  occ. eigenvalues --   -0.67138  -0.64913  -0.63213  -0.62235  -0.61234
 Alpha  occ. eigenvalues --   -0.59988  -0.56439  -0.55657  -0.54579  -0.54253
 Alpha  occ. eigenvalues --   -0.53804  -0.53102  -0.52926  -0.51523  -0.50922
 Alpha  occ. eigenvalues --   -0.50607  -0.49902  -0.48773  -0.48493  -0.46788
 Alpha  occ. eigenvalues --   -0.46245  -0.44833  -0.43755  -0.43258  -0.42729
 Alpha  occ. eigenvalues --   -0.42508  -0.41303  -0.40774  -0.39588  -0.39146
 Alpha  occ. eigenvalues --   -0.38433  -0.38159  -0.37669  -0.36331  -0.35399
 Alpha  occ. eigenvalues --   -0.35039  -0.34844  -0.34537  -0.34006  -0.32993
 Alpha  occ. eigenvalues --   -0.32505  -0.31097  -0.30493  -0.30182  -0.29488
 Alpha  occ. eigenvalues --   -0.29380  -0.28275  -0.28036  -0.27244  -0.26489
 Alpha  occ. eigenvalues --   -0.26035
 Alpha virt. eigenvalues --   -0.02072  -0.01697  -0.01378   0.00001   0.00315
 Alpha virt. eigenvalues --    0.00839   0.01912   0.02143   0.02715   0.03370
 Alpha virt. eigenvalues --    0.03762   0.04344   0.04959   0.05394   0.05688

 Mulliken atomic charges:
              1
     1  O   -0.529673
     2  C   -0.187423
     3  C    0.240869
     4  O   -0.550354
     5  H    0.341793
     6  C   -0.112069
     7  O   -0.557453
     8  H    0.392736
     9  C   -0.253598
    10  O   -0.531552
    11  H    0.334924
    12  C    0.285473
    13  O   -0.225565
    14  C    0.085123
    15  O   -0.204004
    16  C    0.522607
    17  C    0.030574
    18  O   -0.538679
    19  H    0.376226
    20  C    0.011286
    21  O   -0.525393
    22  H    0.330166
    23  C   -0.308869
    24  O   -0.546897
    25  H    0.357996
    26  C   -0.121116
    27  O   -0.231717
    28  C    0.176062
    29  O   -0.502552
    30  H    0.325783
    31  H    0.339364
    32  H    0.146184
    33  H    0.138001
    34  H    0.112187
    35  H    0.112839
    36  H    0.119186
    37  H    0.126561
    38  H    0.118747
    39  H    0.148242
    40  H    0.156411
    41  H    0.112698
    42  H    0.108587
    43  H    0.112639
    44  H    0.133846
    45  H    0.129799
 Sum of Mulliken atomic charges =   0.00000

 Dipole moment (field-independent basis, Debye):
    X=              2.9751    Y=              0.5023    Z=             -1.4366  Tot=              3.3418
 Quadrupole moment (field-independent basis, Debye-Ang):
   XX=           -118.0206   YY=           -133.9061   ZZ=           -140.0659
   XY=              9.7827   XZ=              1.2610   YZ=             -2.8189

  Exact polarizability: 232.737  -2.697 198.606   0.940   0.575 144.112
 Approx polarizability: 273.000  -2.512 258.848   1.153   0.763 240.749

 ******    8 imaginary frequencies (negative Signs) ******

                     1                      2                      3
                     A                      A                      A
 Frequencies --  -289.4200              -283.6996              -281.2236
 Red. masses --     1.1926                 1.7727                 1.1877
 Frc consts  --     0.0589                 0.0841                 0.0553
 IR Inten    --    88.9544                 3.2625               101.2981
 Raman Activ --     0.7032                 0.0661                 0.8725

                     4                      5                      6
                     A                      A                      A
 Frequencies --  -224.9280               -92.1221               -64.6489
 Red. masses --     1.6643                 6.6342                 6.2997
 Frc consts  --     0.0496                 0.0332                 0.0155
 IR Inten    --     9.9613                 1.2006                 0.2347
 Raman Activ --     0.1786                 0.0279                 0.0429

                     7                      8                      9
                     A                      A                      A
 Frequencies --   -59.6115               -37.0387                55.4503
 Red. masses --     5.8028                 6.6794                 6.2892
 Frc consts  --     0.0121                 0.0054                 0.0114
 IR Inten    --     0.9622                 0.5807                 0.2863
 Raman Activ --     0.0975                 0.0342                 0.0788

                    10                     11                     12
                     A                      A                      A
 Frequencies --    70.7383                87.1541                91.2150
 Red. masses --     6.0321                 6.2973                 6.6292
 Frc consts  --     0.0178                 0.0282                 0.0325
 IR Inten    --     1.3251                 0.3296                 1.9022
 Raman Activ --     0.0795                 0.2353                 0.0097

                    13                     14                     15
                     A                      A                      A
 Frequencies --   151.6840               178.3297               188.0605
 Red. masses --     5.8265                 7.5479                 6.1109
 Frc consts  --     0.0790                 0.1414                 0.1273
 IR Inten    --     3.5219                 1.1139                 0.4769
 Raman Activ --     0.2215                 1.5511                 0.1740

                    16                     17                     18
                     A                      A                      A
 Frequencies --   217.8074               237.8034               260.2371
 Red. masses --     7.1563                 5.6029                 4.9800
 Frc consts  --     0.2000                 0.1867                 0.1987
 IR Inten    --     0.1611                 2.0070                12.4972
 Raman Activ --     1.9994                 0.1680                 0.3342

                    19                     20                     21
                     A                      A                      A
 Frequencies --   265.3435               278.2472               300.6374
 Red. masses --     5.1265                 4.2869                 4.7301
 Frc consts  --     0.2127                 0.1956                 0.2519
 IR Inten    --     2.8577                 9.3454                 2.0469
 Raman Activ --     0.3029                 0.1719                 0.1851

                    22                     23                     24
                     A                      A                      A
 Frequencies --   312.0441               317.1515               331.5594
 Red. masses --     5.8169                 5.4220                 6.4226
 Frc consts  --     0.3337                 0.3213                 0.4160
 IR Inten    --     2.6986                 1.2529                 0.5494
 Raman Activ --     3.5528                 1.7082                 2.6297

                    25                     26                     27
                     A                      A                      A
 Frequencies --   350.6115               360.8324               384.8936
 Red. masses --     6.8981                 5.0406                 6.0529
 Frc consts  --     0.4996                 0.3867                 0.5283
 IR Inten    --     7.5601                 2.4864                 1.6774
 Raman Activ --     1.0277                 0.7467                 2.5194

                    28                     29                     30
                     A                      A                      A
 Frequencies --   413.5541               419.8448               430.8201
 Red. masses --     5.0997                 4.6669                 4.9859
 Frc consts  --     0.5139                 0.4847                 0.5452
 IR Inten    --    11.5383                 2.7649                 2.4176
 Raman Activ --     1.4331                10.6289                 0.6786

                    31                     32                     33
                     A                      A                      A
 Frequencies --   444.4902               475.3410               485.0081
 Red. masses --     6.3388                 4.5939                 3.7673
 Frc consts  --     0.7379                 0.6116                 0.5221
 IR Inten    --     4.2298                 5.2997                15.3977
 Raman Activ --     2.1882                 4.1297                 0.8115

                    34                     35                     36
                     A                      A                      A
 Frequencies --   500.3170               520.2804               566.3332
 Red. masses --     4.5678                 2.8998                 4.7433
 Frc consts  --     0.6737                 0.4625                 0.8963
 IR Inten    --     8.6667                 9.4436                21.3947
 Raman Activ --     1.2865                 2.9086                 3.2139

                    37                     38                     39
                     A                      A                      A
 Frequencies --   590.3349               608.2255               636.5759
 Red. masses --     2.7326                 5.6999                 4.6418
 Frc consts  --     0.5611                 1.2424                 1.1083
 IR Inten    --    55.3333                 6.8973                 4.9993
 Raman Activ --     0.1431                 0.5614                 0.2453

                    40                     41                     42
                     A                      A                      A
 Frequencies --   647.7022               693.3551               700.2188
 Red. masses --     4.7274                 1.0621                 1.0832
 Frc consts  --     1.1685                 0.3008                 0.3129
 IR Inten    --    39.0044                80.8074               101.8466
 Raman Activ --     1.4150                 2.0133                 2.0631

                    43                     44                     45
                     A                      A                      A
 Frequencies --   703.7197               709.4279               747.0121
 Red. masses --     1.7714                 1.8168                 1.0814
 Frc consts  --     0.5169                 0.5387                 0.3556
 IR Inten    --    81.2695                49.7015                99.5618
 Raman Activ --     0.4010                 1.5377                 1.0491

                    46                     47                     48
                     A                      A                      A
 Frequencies --   751.3445               777.6675               851.7437
 Red. masses --     1.0684                 1.1077                 1.7512
 Frc consts  --     0.3554                 0.3947                 0.7485
 IR Inten    --   156.3902               150.1846                 3.1283
 Raman Activ --     2.9619                 5.1589                 0.3829

                    49                     50                     51
                     A                      A                      A
 Frequencies --   857.8716               924.1770               942.8621
 Red. masses --     1.7662                 5.7318                 5.9295
 Frc consts  --     0.7658                 2.8844                 3.1057
 IR Inten    --     1.1330               243.7129                17.9068
 Raman Activ --     1.0379                 2.7690                 0.3484

                    52                     53                     54
                     A                      A                      A
 Frequencies --   977.0050               979.5106               987.6574
 Red. masses --     6.3040                 6.3578                 4.8323
 Frc consts  --     3.5454                 3.5940                 2.7773
 IR Inten    --   133.5442                66.9702                48.8694
 Raman Activ --     3.6532                 1.6980                 0.6180

                    55                     56                     57
                     A                      A                      A
 Frequencies --  1000.9518              1005.7314              1017.0603
 Red. masses --     5.4723                 6.4183                 6.7057
 Frc consts  --     3.2303                 3.8250                 4.0869
 IR Inten    --    66.7269               154.8197               180.9305
 Raman Activ --     2.0957                 1.9620                 2.0105

                    58                     59                     60
                     A                      A                      A
 Frequencies --  1041.7945              1054.1492              1059.9456
 Red. masses --     4.2517                 6.9568                 3.3831
 Frc consts  --     2.7188                 4.5547                 2.2394
 IR Inten    --   191.9375               174.5104                29.0678
 Raman Activ --     4.0178                 0.7949                19.3146

                    61                     62                     63
                     A                      A                      A
 Frequencies --  1069.7924              1078.2667              1088.7088
 Red. masses --     4.4227                 5.9035                 4.6572
 Frc consts  --     2.9822                 4.0440                 3.2524
 IR Inten    --    62.9598               150.1225                73.9394
 Raman Activ --     9.1531                 0.4654                17.3291

                    64                     65                     66
                     A                      A                      A
 Frequencies --  1098.9889              1105.4130              1108.9473
 Red. masses --     2.6822                 2.7013                 2.6997
 Frc consts  --     1.9087                 1.9448                 1.9561
 IR Inten    --    33.6586                 3.0630                32.7012
 Raman Activ --     3.5989                 2.0402                13.1727

                    67                     68                     69
                     A                      A                      A
 Frequencies --  1115.8612              1131.5586              1132.1753
 Red. masses --     3.1557                 2.1864                 2.7124
 Frc consts  --     2.3151                 1.6495                 2.0485
 IR Inten    --    13.9714               102.2868                 8.8762
 Raman Activ --     3.8177                 6.3504                 2.0457

                    70                     71                     72
                     A                      A                      A
 Frequencies --  1141.4232              1148.6538              1153.4861
 Red. masses --     2.6751                 1.7545                 1.8391
 Frc consts  --     2.0534                 1.3639                 1.4417
 IR Inten    --    22.4223                 6.1800                23.2580
 Raman Activ --     5.6179                 4.6525                 4.0843

                    73                     74                     75
                     A                      A                      A
 Frequencies --  1161.3251              1179.4822              1198.3060
 Red. masses --     1.8104                 1.8307                 1.8674
 Frc consts  --     1.4386                 1.5005                 1.5798
 IR Inten    --     3.4901                20.7332                29.5448
 Raman Activ --     0.9586                 1.5967                 2.4699

                    76                     77                     78
                     A                      A                      A
 Frequencies --  1208.2721              1209.2349              1219.1649
 Red. masses --     1.3303                 1.4147                 1.3168
 Frc consts  --     1.1443                 1.2188                 1.1532
 IR Inten    --     6.1993                14.0899                 7.1464
 Raman Activ --     1.1349                 4.1061                 1.1592

                    79                     80                     81
                     A                      A                      A
 Frequencies --  1241.0277              1244.1243              1260.5188
 Red. masses --     1.2487                 1.3045                 1.3272
 Frc consts  --     1.1331                 1.1897                 1.2425
 IR Inten    --    10.1001                 2.7817                18.5918
 Raman Activ --     0.7341                 1.2922                 2.2174

                    82                     83                     84
                     A                      A                      A
 Frequencies --  1265.3321              1283.6522              1290.0265
 Red. masses --     1.1990                 1.3710                 1.3112
 Frc consts  --     1.1310                 1.3310                 1.2856
 IR Inten    --    12.7481                 3.3348                11.2255
 Raman Activ --     0.6056                 1.5141                 1.8235

                    85                     86                     87
                     A                      A                      A
 Frequencies --  1291.0355              1294.8294              1301.2551
 Red. masses --     1.3103                 1.2730                 1.2309
 Frc consts  --     1.2868                 1.2575                 1.2280
 IR Inten    --    18.7769                19.2754                17.3665
 Raman Activ --     2.6607                 4.9832                 3.1007

                    88                     89                     90
                     A                      A                      A
 Frequencies --  1306.8620              1316.2446              1333.9532
 Red. masses --     1.2714                 1.3007                 1.3514
 Frc consts  --     1.2793                 1.3277                 1.4169
 IR Inten    --    16.9240                 4.1994                11.3661
 Raman Activ --     7.6907                 5.9851                 4.6680

                    91                     92                     93
                     A                      A                      A
 Frequencies --  1339.9655              1352.3462              1361.9328
 Red. masses --     1.3764                 1.2200                 1.1797
 Frc consts  --     1.4561                 1.3146                 1.2892
 IR Inten    --    44.6344                31.4693                47.7228
 Raman Activ --     4.3473                 3.8439                 0.7747

                    94                     95                     96
                     A                      A                      A
 Frequencies --  1367.3265              1370.4857              1376.0423
 Red. masses --     1.3335                 1.2841                 1.3548
 Frc consts  --     1.4689                 1.4210                 1.5114
 IR Inten    --    21.2710                 8.8420                13.6499
 Raman Activ --     6.6800                 3.2175                 6.6073

                    97                     98                     99
                     A                      A                      A
 Frequencies --  1382.8839              1390.6157              1401.8011
 Red. masses --     1.4694                 1.3057                 1.5008
 Frc consts  --     1.6556                 1.4877                 1.7375
 IR Inten    --    20.3398                 7.5301                 9.7161
 Raman Activ --     8.0421                 2.6890                 4.3702

                   100                    101                    102
                     A                      A                      A
 Frequencies --  1406.6534              1448.0369              1463.4624
 Red. masses --     1.4826                 1.3252                 1.3770
 Frc consts  --     1.7284                 1.6371                 1.7376
 IR Inten    --     8.9029                29.9399                37.9945
 Raman Activ --     4.1928                 2.8281                 0.7715

                   103                    104                    105
                     A                      A                      A
 Frequencies --  1471.6148              1475.5893              1481.2332
 Red. masses --     1.0900                 1.0779                 1.3052
 Frc consts  --     1.3908                 1.3828                 1.6872
 IR Inten    --     5.2425                 1.6947                25.2313
 Raman Activ --     4.9982                 5.0500                 0.6683

                   106                    107                    108
                     A                      A                      A
 Frequencies --  1509.3497              1534.6187              3254.6543
 Red. masses --     1.2707                 1.2662                 1.0805
 Frc consts  --     1.7056                 1.7570                 6.7436
 IR Inten    --    28.4770                46.3158                 3.5986
 Raman Activ --     1.1758                 1.7772                 8.2922

                   109                    110                    111
                     A                      A                      A
 Frequencies --  3256.6501              3260.5554              3264.6465
 Red. masses --     1.0577                 1.0619                 1.0784
 Frc consts  --     6.6091                 6.6517                 6.7718
 IR Inten    --    24.2092                92.4795                24.3336
 Raman Activ --    74.5520               139.0690                63.7037

                   112                    113                    114
                     A                      A                      A
 Frequencies --  3270.7053              3273.0222              3279.2047
 Red. masses --     1.0822                 1.0814                 1.0831
 Frc consts  --     6.8210                 6.8252                 6.8618
 IR Inten    --     0.8327                 8.6448                43.0710
 Raman Activ --    37.9618               132.4291               126.2044

                   115                    116                    117
                     A                      A                      A
 Frequencies --  3281.5910              3286.1534              3293.6709
 Red. masses --     1.0837                 1.0865                 1.0861
 Frc consts  --     6.8759                 6.9129                 6.9417
 IR Inten    --     7.6162                14.6167                46.4249
 Raman Activ --    48.4306                18.5714                76.7065

                   118                    119                    120
                     A                      A                      A
 Frequencies --  3294.3725              3298.6691              3302.8322
 Red. masses --     1.0728                 1.0845                 1.0837
 Frc consts  --     6.8596                 6.9527                 6.9654
 IR Inten    --   224.2472                44.8676               226.3419
 Raman Activ --   170.2543                44.5622                48.1650

                   121                    122                    123
                     A                      A                      A
 Frequencies --  3310.9591              3314.8089              3316.0594
 Red. masses --     1.0705                 1.1056                 1.1044
 Frc consts  --     6.9145                 7.1574                 7.1551
 IR Inten    --   657.5135                50.6145               108.7055
 Raman Activ --    73.4194                45.0407                40.0882

                   124                    125                    126
                     A                      A                      A
 Frequencies --  3363.9151              3366.6976              3377.2056
 Red. masses --     1.0668                 1.0662                 1.0667
 Frc consts  --     7.1122                 7.1205                 7.1679
 IR Inten    --    43.4858                31.1953                56.7283
 Raman Activ --   146.6687               157.0131               147.8950

                   127                    128                    129
                     A                      A                      A
 Frequencies --  3378.0726              3889.6829              3890.5958
 Red. masses --     1.0683                 1.0677                 1.0673
 Frc consts  --     7.1825                 9.5173                 9.5187
 IR Inten    --    30.7544                83.0682                54.1188
 Raman Activ --   137.6404                77.8616               140.9104

 - Thermochemistry -
 -------------------
 Temperature   298.150 Kelvin.  Pressure   1.00000 Atm.
 Atom     1 has atomic number  8 and mass  15.99491

 Molecular mass:   342.11621 amu.
 Principal axes and moments of inertia in atomic units:
                           1         2         3
     Eigenvalues --  4488.59988********************
           X            0.99998   0.00685   0.00004
           Y           -0.00685   0.99998   0.00039
           Z           -0.00004  -0.00039   1.00000
 This molecule is an asymmetric top.
 Rotational symmetry number  1.
 Warning -- assumption of classical behavior for rotation
           may cause significant error
 Rotational temperatures (Kelvin)      0.01930     0.00720     0.00539
 Rotational constants (GHZ):           0.40207     0.15007     0.11235
    8 imaginary frequencies ignored.
 Zero-point vibrational energy     974349.0 (Joules/Mol)
                                  232.87501 (Kcal/Mol)
 Warning -- explicit consideration of  30 degrees of freedom as
           vibrations may cause significant error
 Vibrational temperatures:     79.78   101.78   125.40   131.24   218.24
          (Kelvin)            256.58   270.58   313.38   342.15   374.42
                              381.77   400.34   432.55   448.96   456.31
                              477.04   504.45   519.16   553.78   595.01
                              604.06   619.85   639.52   683.91   697.82
                              719.84   748.57   814.83   849.36   875.10
                              915.89   931.90   997.58  1007.46  1012.49
                             1020.71  1074.78  1081.02  1118.89  1225.47
                             1234.28  1329.68  1356.57  1405.69  1409.30
                             1421.02  1440.14  1447.02  1463.32  1498.91
                             1516.68  1525.02  1539.19  1551.38  1566.41
                             1581.20  1590.44  1595.53  1605.47  1628.06
                             1628.95  1642.25  1652.65  1659.61  1670.89
                             1697.01  1724.09  1738.43  1739.82  1754.10
                             1785.56  1790.02  1813.60  1820.53  1846.89
                             1856.06  1857.51  1862.97  1872.21  1880.28
                             1893.78  1919.26  1927.91  1945.72  1959.52
                             1967.28  1971.82  1979.82  1989.66  2000.78
                             2016.88  2023.86  2083.40  2105.59  2117.32
                             2123.04  2131.16  2171.61  2207.97  4682.72
                             4685.59  4691.21  4697.09  4705.81  4709.14
                             4718.04  4721.47  4728.04  4738.85  4739.86
                             4746.04  4752.03  4763.73  4769.26  4771.06
                             4839.92  4843.92  4859.04  4860.29  5596.38
                             5597.69

 Zero-point correction=                           0.371110 (Hartree/Particle)
 Thermal correction to Energy=                    0.388684
 Thermal correction to Enthalpy=                  0.389628
 Thermal correction to Gibbs Free Energy=         0.326726
 Sum of electronic and zero-point Energies=          -1297.609295
 Sum of electronic and thermal Energies=             -1297.591722
 Sum of electronic and thermal Enthalpies=           -1297.590778
 Sum of electronic and thermal Free Energies=        -1297.653680

                     E (Thermal)             CV                S
                      KCal/Mol        Cal/Mol-Kelvin    Cal/Mol-Kelvin
 Total                  243.903             74.023            132.388
 Electronic               0.000              0.000              0.000
 Translational            0.889              2.981             43.384
 Rotational               0.889              2.981             35.115
 Vibrational            242.125             68.061             53.889
 Vibration     1          0.596              1.975              4.613
 Vibration     2          0.598              1.968              4.133
 Vibration     3          0.601              1.958              3.723
 Vibration     4          0.602              1.955              3.634
 Vibration     5          0.619              1.901              2.651
 Vibration     6          0.629              1.869              2.346
 Vibration     7          0.633              1.856              2.247
 Vibration     8          0.646              1.814              1.977
 Vibration     9          0.656              1.783              1.819
 Vibration    10          0.668              1.745              1.660
 Vibration    11          0.671              1.737              1.626
 Vibration    12          0.679              1.714              1.544
 Vibration    13          0.693              1.672              1.413
 Vibration    14          0.700              1.651              1.351
 Vibration    15          0.704              1.641              1.325
 Vibration    16          0.714              1.612              1.252
 Vibration    17          0.728              1.574              1.163
 Vibration    18          0.735              1.553              1.119
 Vibration    19          0.754              1.502              1.020
 Vibration    20          0.777              1.441              0.914
 Vibration    21          0.783              1.427              0.892
 Vibration    22          0.792              1.403              0.856
 Vibration    23          0.804              1.373              0.813
 Vibration    24          0.832              1.305              0.723
 Vibration    25          0.841              1.283              0.697
 Vibration    26          0.856              1.249              0.657
 Vibration    27          0.875              1.205              0.609
 Vibration    28          0.922              1.104              0.511
 Vibration    29          0.948              1.052              0.467
 Vibration    30          0.967              1.014              0.436

 Normal termination of Gaussian 09 at Wed Mar 23 05:30:19 2016.
