 Gaussian 09, Revision B.01,
 Gaussian 09:  EM64L-G09RevB.01 12-Aug-2010

 -------------------------------------------------
 # freq=raman b3lyp/6-31+g(2d,p) geom=connectivity
 -------------------------------------------------

 -----------------
 500 8883/8883.com
 -----------------
 Symbolic Z-matrix:
 Charge =  0 Multiplicity = 1

                         Standard orientation:
 ---------------------------------------------------------------------
 Center     Atomic      Atomic             Coordinates (Angstroms)
 Number     Number       Type             X           Y           Z
 ---------------------------------------------------------------------
      1          8           0       -5.001628   -0.482298    0.798996
      2          6           0       -3.849056   -0.132467    0.018110
      3          6           0       -3.471960    1.282764    0.423585
      4          8           0       -4.369827    2.267839   -0.107363
      5          1           0       -5.256184    1.805604   -0.128185
      6          6           0       -2.057520    1.643775    0.000204
      7          8           0       -1.471642    2.860291    0.486249
      8          1           0       -1.825081    3.627381   -0.049421
      9          6           0       -3.091299   -2.526836   -0.397852
     10          8           0       -2.042248   -3.500976   -0.493021
     11          1           0       -2.328044   -4.362672   -0.911880
     12          6           0       -2.714564   -1.140769    0.100102
     13          8           0       -1.585609   -0.548688   -0.558265
     14          6           0       -1.019805    0.546294    0.178025
     15          8           0        0.133612    0.578685   -0.675250
     16          6           0        1.338806    0.279530    0.042358
     17          6           0        1.758687   -1.130266   -0.340039
     18          8           0        0.761132   -2.055537    0.117106
     19          1           0       -0.034676   -1.744829   -0.403973
     20          6           0        2.987168   -1.487024    0.480863
     21          8           0        3.185521   -2.893603    0.281479
     22          1           0        2.314260   -3.285271    0.573836
     23          6           0        2.136188    2.673386   -0.167093
     24          8           0        3.354853    3.372964   -0.458485
     25          1           0        3.167830    4.346446   -0.327070
     26          6           0        2.468645    1.205632   -0.379244
     27          8           0        3.675195    0.767752    0.263522
     28          6           0        4.118601   -0.577204    0.029878
     29          8           0        5.428122   -0.792871    0.573300
     30          1           0        6.061156   -0.881692   -0.142925
     31          1           0        4.205086   -0.697135   -1.029857
     32          1           0        2.782932   -1.305288    1.515348
     33          1           0        1.939730   -1.224534   -1.390390
     34          1           0        1.173208    0.346931    1.097315
     35          1           0        2.608768    1.069085   -1.431204
     36          1           0        1.361279    2.980260   -0.838095
     37          1           0        1.841582    2.845479    0.847052
     38          1           0       -5.737744   -0.675954    0.213992
     39          1           0       -3.525809   -2.418245   -1.369608
     40          1           0       -3.841424   -2.917120    0.257808
     41          1           0       -2.457586   -1.241565    1.133882
     42          1           0       -4.160053   -0.095337   -1.005023
     43          1           0       -3.518555    1.339214    1.491079
     44          1           0       -2.128928    1.783449   -1.058235
     45          1           0       -0.804949    0.296428    1.196016
 ---------------------------------------------------------------------

 SCF Done:  E(RB3LYP) =  -1297.96802699     A.U. after   14 cycles

 The electronic state is 1-A.
 Alpha  occ. eigenvalues --  -19.19180 -19.18224 -19.18115 -19.17510 -19.17286
 Alpha  occ. eigenvalues --  -19.16880 -19.15612 -19.14914 -19.14764 -19.14530
 Alpha  occ. eigenvalues --  -19.13422 -10.31204 -10.28706 -10.27297 -10.26529
 Alpha  occ. eigenvalues --  -10.26273 -10.25882 -10.25627 -10.24038 -10.23951
 Alpha  occ. eigenvalues --  -10.22951 -10.22899 -10.22786  -1.10973  -1.07524
 Alpha  occ. eigenvalues --   -1.06171  -1.05028  -1.03908  -1.03391  -1.03127
 Alpha  occ. eigenvalues --   -1.02429  -1.01690  -1.00305  -0.99312  -0.82341
 Alpha  occ. eigenvalues --   -0.81103  -0.78481  -0.77383  -0.72457  -0.69417
 Alpha  occ. eigenvalues --   -0.67437  -0.64884  -0.63276  -0.62098  -0.60773
 Alpha  occ. eigenvalues --   -0.59919  -0.57192  -0.56485  -0.54637  -0.54172
 Alpha  occ. eigenvalues --   -0.53484  -0.53450  -0.52314  -0.52172  -0.51282
 Alpha  occ. eigenvalues --   -0.50144  -0.49411  -0.47990  -0.47631  -0.46703
 Alpha  occ. eigenvalues --   -0.46311  -0.45420  -0.44251  -0.43813  -0.43215
 Alpha  occ. eigenvalues --   -0.42710  -0.42555  -0.40560  -0.40415  -0.39121
 Alpha  occ. eigenvalues --   -0.38538  -0.37296  -0.36818  -0.36376  -0.35935
 Alpha  occ. eigenvalues --   -0.35830  -0.35013  -0.34193  -0.33846  -0.33627
 Alpha  occ. eigenvalues --   -0.32794  -0.31242  -0.30568  -0.30176  -0.29628
 Alpha  occ. eigenvalues --   -0.29591  -0.28599  -0.27863  -0.27511  -0.26157
 Alpha  occ. eigenvalues --   -0.25371
 Alpha virt. eigenvalues --   -0.03800  -0.02089  -0.01387   0.00027   0.00300
 Alpha virt. eigenvalues --    0.00822   0.01528   0.02030   0.02423   0.03195
 Alpha virt. eigenvalues --    0.03399   0.04436   0.05023   0.05505   0.05886

 Mulliken atomic charges:
              1
     1  O   -0.526084
     2  C   -0.212687
     3  C    0.445451
     4  O   -0.551716
     5  H    0.331422
     6  C   -0.301702
     7  O   -0.555205
     8  H    0.340623
     9  C   -0.368936
    10  O   -0.521516
    11  H    0.347413
    12  C    0.214830
    13  O   -0.231986
    14  C    0.345525
    15  O   -0.206546
    16  C    0.287811
    17  C    0.108004
    18  O   -0.563843
    19  H    0.386004
    20  C   -0.012139
    21  O   -0.530350
    22  H    0.357417
    23  C   -0.194094
    24  O   -0.489123
    25  H    0.323992
    26  C   -0.108909
    27  O   -0.267235
    28  C    0.207827
    29  O   -0.518003
    30  H    0.329126
    31  H    0.097592
    32  H    0.121110
    33  H    0.127871
    34  H    0.106008
    35  H    0.113857
    36  H    0.157943
    37  H    0.142707
    38  H    0.333937
    39  H    0.131070
    40  H    0.161153
    41  H    0.114081
    42  H    0.126536
    43  H    0.132211
    44  H    0.132054
    45  H    0.136499
 Sum of Mulliken atomic charges =   0.00000

 Dipole moment (field-independent basis, Debye):
    X=             -8.5234    Y=              0.3769    Z=             -2.9346  Tot=              9.0223
 Quadrupole moment (field-independent basis, Debye-Ang):
   XX=           -129.2515   YY=           -131.0819   ZZ=           -138.9723
   XY=             14.0474   XZ=             -0.9117   YZ=              3.1436

  Exact polarizability: 226.442  -1.605 201.689  -0.231   0.194 143.456
 Approx polarizability: 269.959  -1.190 260.462   0.617  -0.170 240.797

 ******    8 imaginary frequencies (negative Signs) ******

                     1                      2                      3
                     A                      A                      A
 Frequencies --  -281.1511              -274.5877              -183.1928
 Red. masses --     1.1394                 1.7846                 2.0447
 Frc consts  --     0.0531                 0.0793                 0.0404
 IR Inten    --    89.6275                 5.6774                 3.8679
 Raman Activ --     0.7096                 0.1434                 0.1125

                     4                      5                      6
                     A                      A                      A
 Frequencies --  -106.7009               -67.8563               -62.4813
 Red. masses --     2.1050                 4.1771                 5.9913
 Frc consts  --     0.0141                 0.0113                 0.0138
 IR Inten    --    58.3951                14.2104                 2.1594
 Raman Activ --     0.3810                 0.1269                 0.0950

                     7                      8                      9
                     A                      A                      A
 Frequencies --   -37.4010                -8.9996                48.8242
 Red. masses --     5.2424                 4.1731                 5.3391
 Frc consts  --     0.0043                 0.0002                 0.0075
 IR Inten    --     4.3466                10.4162                 5.6997
 Raman Activ --     0.0455                 0.1074                 0.0810

                    10                     11                     12
                     A                      A                      A
 Frequencies --    55.1515                92.5013               114.4650
 Red. masses --     7.0963                 6.7129                 5.7391
 Frc consts  --     0.0127                 0.0338                 0.0443
 IR Inten    --     0.9887                 0.8536                 2.5238
 Raman Activ --     0.0308                 0.1370                 0.4091

                    13                     14                     15
                     A                      A                      A
 Frequencies --   136.2832               143.4418               168.4897
 Red. masses --     6.0225                 6.1404                 6.2028
 Frc consts  --     0.0659                 0.0744                 0.1037
 IR Inten    --     0.9641                 2.7201                 1.5857
 Raman Activ --     0.1279                 0.5070                 0.5519

                    16                     17                     18
                     A                      A                      A
 Frequencies --   188.9687               211.7778               249.7915
 Red. masses --     5.2791                 6.7948                 5.2450
 Frc consts  --     0.1111                 0.1796                 0.1928
 IR Inten    --     1.7711                 0.6136                 6.7732
 Raman Activ --     0.3972                 1.8806                 0.3803

                    19                     20                     21
                     A                      A                      A
 Frequencies --   269.3623               277.3548               285.6476
 Red. masses --     3.4518                 5.1455                 5.7612
 Frc consts  --     0.1476                 0.2332                 0.2770
 IR Inten    --     7.7972                 3.2609                 4.6829
 Raman Activ --     0.4394                 0.1602                 0.4503

                    22                     23                     24
                     A                      A                      A
 Frequencies --   309.1129               334.7200               341.9497
 Red. masses --     4.7216                 5.1704                 5.8904
 Frc consts  --     0.2658                 0.3413                 0.4058
 IR Inten    --     1.9616                 3.8725                 3.3648
 Raman Activ --     2.7739                 6.2334                 0.9691

                    25                     26                     27
                     A                      A                      A
 Frequencies --   358.5328               362.4204               391.2266
 Red. masses --     6.5341                 4.0063                 5.1535
 Frc consts  --     0.4949                 0.3100                 0.4647
 IR Inten    --     2.5354                 5.6095                 1.6896
 Raman Activ --     0.3515                 1.5297                 0.9811

                    28                     29                     30
                     A                      A                      A
 Frequencies --   418.4014               433.1043               435.2908
 Red. masses --     6.0691                 6.2115                 4.9961
 Frc consts  --     0.6260                 0.6865                 0.5578
 IR Inten    --     1.8597                 2.4189                 6.6325
 Raman Activ --     5.2202                 0.7026                 1.8549

                    31                     32                     33
                     A                      A                      A
 Frequencies --   441.4012               477.7047               492.4673
 Red. masses --     3.9393                 4.6276                 3.6748
 Frc consts  --     0.4522                 0.6222                 0.5251
 IR Inten    --     9.1790                 3.9657                 8.4368
 Raman Activ --     3.9176                 1.1872                 1.7349

                    34                     35                     36
                     A                      A                      A
 Frequencies --   532.2154               553.3133               558.0630
 Red. masses --     3.9360                 4.2568                 5.4884
 Frc consts  --     0.6569                 0.7679                 1.0071
 IR Inten    --    14.1839                16.9550                19.8255
 Raman Activ --     4.9909                 1.6408                 5.0321

                    37                     38                     39
                     A                      A                      A
 Frequencies --   584.6254               605.5735               625.9293
 Red. masses --     3.3376                 3.0555                 3.2089
 Frc consts  --     0.6721                 0.6602                 0.7407
 IR Inten    --    33.9066                22.0576                 3.0484
 Raman Activ --     0.4243                 0.2078                 0.8988

                    40                     41                     42
                     A                      A                      A
 Frequencies --   644.9048               651.4983               669.3640
 Red. masses --     1.0675                 3.4593                 3.9784
 Frc consts  --     0.2616                 0.8651                 1.0502
 IR Inten    --   115.1887                41.3940                 5.7844
 Raman Activ --     2.1398                 0.5748                 0.2882

                    43                     44                     45
                     A                      A                      A
 Frequencies --   698.2429               719.4818               731.4887
 Red. masses --     1.1049                 1.0861                 1.0956
 Frc consts  --     0.3174                 0.3313                 0.3454
 IR Inten    --    82.4857                80.4917                86.3189
 Raman Activ --     1.5717                 1.0091                 3.0351

                    46                     47                     48
                     A                      A                      A
 Frequencies --   736.3641               836.5470               837.1232
 Red. masses --     1.1124                 2.0565                 1.5410
 Frc consts  --     0.3554                 0.8479                 0.6363
 IR Inten    --   160.8686                 2.3554               106.6257
 Raman Activ --     0.8642                 3.2711                 4.8603

                    49                     50                     51
                     A                      A                      A
 Frequencies --   857.0962               922.7870               955.8698
 Red. masses --     1.8054                 5.7438                 7.6212
 Frc consts  --     0.7814                 2.8817                 4.1027
 IR Inten    --    28.5063               176.6681               262.5212
 Raman Activ --     5.6718                 2.9960                 1.2518

                    52                     53                     54
                     A                      A                      A
 Frequencies --   967.4864               982.1987               993.7881
 Red. masses --     4.8316                 3.8575                 4.6782
 Frc consts  --     2.6646                 2.1926                 2.7222
 IR Inten    --    42.9323                86.4619               173.0105
 Raman Activ --     1.5096                 2.0425                 2.3078

                    55                     56                     57
                     A                      A                      A
 Frequencies --   995.2788              1004.6944              1033.7770
 Red. masses --     4.7925                 6.9091                 5.7933
 Frc consts  --     2.7970                 4.1090                 3.6478
 IR Inten    --    64.5215               130.9268               117.5701
 Raman Activ --     1.7479                 1.7794                 2.6006

                    58                     59                     60
                     A                      A                      A
 Frequencies --  1044.2608              1055.3894              1056.9148
 Red. masses --     3.9822                 4.8349                 4.5811
 Frc consts  --     2.5585                 3.1729                 3.0151
 IR Inten    --    47.6597                23.4693                48.1081
 Raman Activ --     1.6519                24.0543                 4.8252

                    61                     62                     63
                     A                      A                      A
 Frequencies --  1060.9807              1064.9711              1079.0435
 Red. masses --     5.3485                 2.3578                 3.3973
 Frc consts  --     3.5473                 1.5755                 2.3306
 IR Inten    --   259.7522                53.0435                46.9164
 Raman Activ --     1.7280                 6.1213                 0.8019

                    64                     65                     66
                     A                      A                      A
 Frequencies --  1084.9759              1100.4695              1112.3498
 Red. masses --     2.9306                 3.7394                 2.4563
 Frc consts  --     2.0326                 2.6682                 1.7907
 IR Inten    --    43.7255                61.6256               126.6839
 Raman Activ --    10.1440                11.6191                 2.1334

                    67                     68                     69
                     A                      A                      A
 Frequencies --  1119.4432              1128.2518              1137.2208
 Red. masses --     2.7629                 2.4187                 2.0084
 Frc consts  --     2.0400                 1.8140                 1.5303
 IR Inten    --    11.3685                49.8352                25.0141
 Raman Activ --     3.3130                 4.1234                 1.1705

                    70                     71                     72
                     A                      A                      A
 Frequencies --  1141.1582              1148.8650              1159.1167
 Red. masses --     2.3201                 2.9896                 2.3243
 Frc consts  --     1.7801                 2.3249                 1.8399
 IR Inten    --    23.3009                40.9341                 2.3155
 Raman Activ --     1.3647                 4.0278                 4.1371

                    73                     74                     75
                     A                      A                      A
 Frequencies --  1166.6168              1171.3072              1183.9987
 Red. masses --     1.9840                 1.9696                 1.4518
 Frc consts  --     1.5909                 1.5921                 1.1991
 IR Inten    --    13.5263                 2.5732                12.7553
 Raman Activ --     1.7801                 3.5424                 1.3862

                    76                     77                     78
                     A                      A                      A
 Frequencies --  1197.3075              1214.2478              1222.9853
 Red. masses --     1.6993                 1.3108                 1.3243
 Frc consts  --     1.4353                 1.1387                 1.1671
 IR Inten    --     9.1616                 4.0612                14.7276
 Raman Activ --     4.8320                 2.3767                 4.9943

                    79                     80                     81
                     A                      A                      A
 Frequencies --  1227.1172              1235.7439              1243.6552
 Red. masses --     1.3795                 1.2268                 1.2540
 Frc consts  --     1.2239                 1.1038                 1.1428
 IR Inten    --     6.4098                 5.2018                 4.5899
 Raman Activ --     1.5528                 1.7067                 1.3769

                    82                     83                     84
                     A                      A                      A
 Frequencies --  1264.5847              1270.2311              1275.6217
 Red. masses --     1.1718                 1.1689                 1.2198
 Frc consts  --     1.1040                 1.1112                 1.1695
 IR Inten    --     0.6408                19.8271                 7.6152
 Raman Activ --     4.3255                 3.7776                 1.3235

                    85                     86                     87
                     A                      A                      A
 Frequencies --  1289.0717              1301.7350              1304.4246
 Red. masses --     1.3028                 1.3451                 1.3087
 Frc consts  --     1.2755                 1.3429                 1.3120
 IR Inten    --     0.7289                10.1126                22.5352
 Raman Activ --     2.2645                 2.3639                 1.5484

                    88                     89                     90
                     A                      A                      A
 Frequencies --  1306.9190              1320.5127              1324.3030
 Red. masses --     1.2997                 1.2445                 1.2622
 Frc consts  --     1.3080                 1.2786                 1.3042
 IR Inten    --    34.2572                15.1593                 7.7398
 Raman Activ --     1.6657                 2.4592                 5.6165

                    91                     92                     93
                     A                      A                      A
 Frequencies --  1334.1771              1337.6209              1347.1035
 Red. masses --     1.4379                 1.4037                 1.4147
 Frc consts  --     1.5080                 1.4798                 1.5126
 IR Inten    --    62.2925                16.1815                23.8421
 Raman Activ --     4.2712                 2.9328                 4.7606

                    94                     95                     96
                     A                      A                      A
 Frequencies --  1365.3945              1366.2216              1374.7916
 Red. masses --     1.4182                 1.2415                 1.3121
 Frc consts  --     1.5577                 1.3653                 1.4611
 IR Inten    --    13.4154                44.1731                18.1931
 Raman Activ --     1.2019                 8.6942                 2.1366

                    97                     98                     99
                     A                      A                      A
 Frequencies --  1385.7814              1398.8091              1413.3316
 Red. masses --     1.3145                 1.2937                 1.2367
 Frc consts  --     1.4873                 1.4915                 1.4555
 IR Inten    --     5.2084                 5.7546                12.1713
 Raman Activ --     8.5798                 9.1343                 2.8019

                   100                    101                    102
                     A                      A                      A
 Frequencies --  1431.7227              1448.5625              1456.5158
 Red. masses --     1.4365                 1.3604                 1.0762
 Frc consts  --     1.7349                 1.6818                 1.3451
 IR Inten    --     2.5414                24.7659                 3.0003
 Raman Activ --     0.6346                 3.9583                 5.9332

                   103                    104                    105
                     A                      A                      A
 Frequencies --  1464.5385              1466.2811              1471.2481
 Red. masses --     1.0836                 1.3770                 1.3799
 Frc consts  --     1.3694                 1.7442                 1.7598
 IR Inten    --     2.3312                21.1088                58.3858
 Raman Activ --     4.4280                 2.4271                 2.1931

                   106                    107                    108
                     A                      A                      A
 Frequencies --  1484.2111              1514.3697              3254.7096
 Red. masses --     1.3557                 1.2869                 1.0593
 Frc consts  --     1.7596                 1.7388                 6.6116
 IR Inten    --    37.4480                86.9148                45.7473
 Raman Activ --     1.4913                 2.2945               106.7979

                   109                    110                    111
                     A                      A                      A
 Frequencies --  3257.1127              3260.9045              3264.6720
 Red. masses --     1.0838                 1.0566                 1.0806
 Frc consts  --     6.7746                 6.6196                 6.7856
 IR Inten    --    25.6037                27.8023                 1.4503
 Raman Activ --    40.5386               122.7621                66.5996

                   112                    113                    114
                     A                      A                      A
 Frequencies --  3267.9018              3271.0813              3278.0999
 Red. masses --     1.0803                 1.0813                 1.0844
 Frc consts  --     6.7972                 6.8169                 6.8659
 IR Inten    --    23.4471                 2.3101                 2.1119
 Raman Activ --    18.8310               124.6807                 5.3583

                   115                    116                    117
                     A                      A                      A
 Frequencies --  3283.8267              3287.4733              3291.5135
 Red. masses --     1.0848                 1.0854                 1.0861
 Frc consts  --     6.8920                 6.9113                 6.9331
 IR Inten    --     9.3610                17.7244                36.1511
 Raman Activ --    57.6559                61.0205                22.7064

                   118                    119                    120
                     A                      A                      A
 Frequencies --  3301.0239              3305.4464              3310.3707
 Red. masses --     1.0872                 1.0802                 1.0997
 Frc consts  --     6.9803                 6.9539                 7.1001
 IR Inten    --    10.2515               142.9319                50.5496
 Raman Activ --    31.5028                20.0756                60.5611

                   121                    122                    123
                     A                      A                      A
 Frequencies --  3314.4901              3330.9035              3365.6744
 Red. masses --     1.0771                 1.1102                 1.0664
 Frc consts  --     6.9718                 7.2573                 7.1170
 IR Inten    --   289.6708                32.3579                19.3765
 Raman Activ --   156.5849                33.7066               175.5440

                   124                    125                    126
                     A                      A                      A
 Frequencies --  3369.8362              3370.5356              3373.4121
 Red. masses --     1.0657                 1.0667                 1.0678
 Frc consts  --     7.1299                 7.1398                 7.1597
 IR Inten    --    42.4092                43.5613                59.6457
 Raman Activ --    56.5024               150.7293               184.9122

                   127                    128                    129
                     A                      A                      A
 Frequencies --  3376.1959              3882.7734              3890.4410
 Red. masses --     1.0644                 1.0678                 1.0677
 Frc consts  --     7.1487                 9.4843                 9.5211
 IR Inten    --    57.2202                62.8756                86.7615
 Raman Activ --    47.9906                97.3851               109.4402

 - Thermochemistry -
 -------------------
 Temperature   298.150 Kelvin.  Pressure   1.00000 Atm.
 Atom     1 has atomic number  8 and mass  15.99491

 Molecular mass:   342.11621 amu.
 Principal axes and moments of inertia in atomic units:
                           1         2         3
     Eigenvalues --  4679.13974********************
           X            0.99996   0.00846  -0.00076
           Y           -0.00846   0.99996   0.00158
           Z            0.00077  -0.00157   1.00000
 This molecule is an asymmetric top.
 Rotational symmetry number  1.
 Warning -- assumption of classical behavior for rotation
           may cause significant error
 Rotational temperatures (Kelvin)      0.01851     0.00740     0.00546
 Rotational constants (GHZ):           0.38570     0.15412     0.11373
    8 imaginary frequencies ignored.
 Zero-point vibrational energy     973275.6 (Joules/Mol)
                                  232.61845 (Kcal/Mol)
 Warning -- explicit consideration of  30 degrees of freedom as
           vibrations may cause significant error
 Vibrational temperatures:     70.25    79.35   133.09   164.69   196.08
          (Kelvin)            206.38   242.42   271.88   304.70   359.39
                              387.55   399.05   410.98   444.74   481.59
                              491.99   515.85   521.44   562.89   601.99
                              623.14   626.29   635.08   687.31   708.55
                              765.74   796.09   802.93   841.14   871.28
                              900.57   927.87   937.36   963.06  1004.61
                             1035.17  1052.45  1059.46  1203.60  1204.43
                             1233.17  1327.68  1375.28  1392.00  1413.16
                             1429.84  1431.98  1445.53  1487.37  1502.46
                             1518.47  1520.66  1526.51  1532.25  1552.50
                             1561.04  1583.33  1600.42  1610.63  1623.30
                             1636.20  1641.87  1652.96  1667.71  1678.50
                             1685.25  1703.51  1722.66  1747.03  1759.60
                             1765.55  1777.96  1789.34  1819.45  1827.58
                             1835.33  1854.68  1872.90  1876.77  1880.36
                             1899.92  1905.37  1919.58  1924.54  1938.18
                             1964.50  1965.69  1978.02  1993.83  2012.57
                             2033.47  2059.93  2084.16  2095.60  2107.14
                             2109.65  2116.80  2135.45  2178.84  4682.80
                             4686.25  4691.71  4697.13  4701.78  4706.35
                             4716.45  4724.69  4729.93  4735.75  4749.43
                             4755.79  4762.88  4768.81  4792.42  4842.45
                             4848.44  4849.44  4853.58  4857.59  5586.44
                             5597.47

 Zero-point correction=                           0.370701 (Hartree/Particle)
 Thermal correction to Energy=                    0.388433
 Thermal correction to Enthalpy=                  0.389378
 Thermal correction to Gibbs Free Energy=         0.325837
 Sum of electronic and zero-point Energies=          -1297.597326
 Sum of electronic and thermal Energies=             -1297.579594
 Sum of electronic and thermal Enthalpies=           -1297.578649
 Sum of electronic and thermal Free Energies=        -1297.642190

                     E (Thermal)             CV                S
                      KCal/Mol        Cal/Mol-Kelvin    Cal/Mol-Kelvin
 Total                  243.746             74.187            133.732
 Electronic               0.000              0.000              0.000
 Translational            0.889              2.981             43.384
 Rotational               0.889              2.981             35.118
 Vibrational            241.968             68.225             55.230
 Vibration     1          0.595              1.978              4.864
 Vibration     2          0.596              1.976              4.624
 Vibration     3          0.602              1.955              3.606
 Vibration     4          0.607              1.937              3.192
 Vibration     5          0.614              1.917              2.855
 Vibration     6          0.616              1.910              2.757
 Vibration     7          0.625              1.881              2.452
 Vibration     8          0.633              1.855              2.238
 Vibration     9          0.643              1.823              2.028
 Vibration    10          0.663              1.763              1.732
 Vibration    11          0.674              1.730              1.600
 Vibration    12          0.678              1.715              1.550
 Vibration    13          0.683              1.700              1.500
 Vibration    14          0.698              1.656              1.367
 Vibration    15          0.716              1.606              1.237
 Vibration    16          0.721              1.592              1.203
 Vibration    17          0.733              1.558              1.128
 Vibration    18          0.736              1.550              1.112
 Vibration    19          0.759              1.489              0.995
 Vibration    20          0.781              1.430              0.897
 Vibration    21          0.794              1.398              0.849
 Vibration    22          0.796              1.393              0.842
 Vibration    23          0.801              1.380              0.822
 Vibration    24          0.834              1.300              0.716
 Vibration    25          0.848              1.267              0.677
 Vibration    26          0.887              1.179              0.582
 Vibration    27          0.909              1.132              0.537
 Vibration    28          0.914              1.122              0.528
 Vibration    29          0.942              1.065              0.477
 Vibration    30          0.964              1.020              0.440

 Normal termination of Gaussian 09 at Sat Apr  2 16:59:36 2016.
