 Gaussian 09, Revision B.01,
 Gaussian 09:  EM64L-G09RevB.01 12-Aug-2010

 -------------------------------------------------
 # freq=raman b3lyp/6-31+g(2d,p) geom=connectivity
 -------------------------------------------------

 -----------------
 280 6354/6354.com
 -----------------
 Symbolic Z-matrix:
 Charge =  0 Multiplicity = 1

                         Standard orientation:
 ---------------------------------------------------------------------
 Center     Atomic      Atomic             Coordinates (Angstroms)
 Number     Number       Type             X           Y           Z
 ---------------------------------------------------------------------
      1          8           0        5.020914   -0.294009   -0.371261
      2          6           0        3.737053   -0.093089    0.238208
      3          6           0        3.165994    1.229251   -0.246819
      4          8           0        4.093214    2.281536    0.057380
      5          1           0        5.017983    1.911216   -0.029232
      6          6           0        1.769977    1.598580    0.227630
      7          8           0        1.260336    2.847461   -0.261096
      8          1           0        0.282506    2.931156   -0.065487
      9          6           0        3.120939   -2.527732    0.109027
     10          8           0        4.352305   -3.117020   -0.333184
     11          1           0        4.335306   -4.108642   -0.200156
     12          6           0        2.703342   -1.105190   -0.227477
     13          8           0        1.429549   -0.781523    0.348363
     14          6           0        0.856415    0.439559   -0.139426
     15          8           0       -0.334048    0.495529    0.660630
     16          6           0       -1.572387    0.140276    0.028736
     17          6           0       -1.923478   -1.282928    0.427520
     18          8           0       -0.968761   -2.288158    0.055695
     19          1           0       -0.053744   -1.894128    0.142868
     20          6           0       -3.284939   -1.555582   -0.190722
     21          8           0       -3.824959   -2.776822    0.334682
     22          1           0       -4.596656   -3.031872   -0.248209
     23          6           0       -2.366948    2.596948   -0.160443
     24          8           0       -1.248692    3.404483    0.234066
     25          1           0       -1.302697    4.360126   -0.057343
     26          6           0       -2.638945    1.182065    0.324983
     27          8           0       -3.871923    0.876212   -0.343557
     28          6           0       -4.292197   -0.441407    0.039755
     29          8           0       -5.498392   -0.648361   -0.707998
     30          1           0       -6.227785   -0.801282   -0.102852
     31          1           0       -3.240378    3.164667    0.083926
     32          1           0       -2.325466    2.538664   -1.228049
     33          1           0       -2.813562    1.206124    1.380365
     34          1           0       -1.407274    0.144615   -1.028439
     35          1           0       -2.031238   -1.310284    1.491728
     36          1           0       -3.154123   -1.674127   -1.246058
     37          1           0       -4.539717   -0.425232    1.080607
     38          1           0        5.682411   -0.425455    0.311925
     39          1           0        2.337601   -3.163867   -0.246802
     40          1           0        3.119883   -2.597479    1.176751
     41          1           0        2.617097   -1.027247   -1.291143
     42          1           0        3.818442   -0.099630    1.305088
     43          1           0        3.114917    1.163818   -1.313594
     44          1           0        1.799484    1.661278    1.295384
     45          1           0        0.641721    0.398458   -1.186860
 ---------------------------------------------------------------------

 SCF Done:  E(RB3LYP) =  -1297.98661484     A.U. after   13 cycles

 The electronic state is 1-A.
 Alpha  occ. eigenvalues --  -19.19017 -19.19013 -19.18452 -19.18034 -19.17873
 Alpha  occ. eigenvalues --  -19.17332 -19.16387 -19.16314 -19.14635 -19.14138
 Alpha  occ. eigenvalues --  -19.12785 -10.30760 -10.30602 -10.26854 -10.25859
 Alpha  occ. eigenvalues --  -10.25780 -10.25740 -10.25151 -10.24920 -10.24620
 Alpha  occ. eigenvalues --  -10.24232 -10.23943 -10.23628  -1.10486  -1.09482
 Alpha  occ. eigenvalues --   -1.05732  -1.05484  -1.04161  -1.03861  -1.02869
 Alpha  occ. eigenvalues --   -1.02570  -1.01242  -1.00921  -0.99371  -0.82570
 Alpha  occ. eigenvalues --   -0.80464  -0.79794  -0.78442  -0.72131  -0.70109
 Alpha  occ. eigenvalues --   -0.67464  -0.65329  -0.63702  -0.62427  -0.61477
 Alpha  occ. eigenvalues --   -0.60449  -0.56575  -0.56087  -0.55738  -0.54556
 Alpha  occ. eigenvalues --   -0.53928  -0.53768  -0.53063  -0.52061  -0.51191
 Alpha  occ. eigenvalues --   -0.50926  -0.49972  -0.49719  -0.49174  -0.46807
 Alpha  occ. eigenvalues --   -0.45810  -0.45461  -0.44752  -0.43774  -0.43573
 Alpha  occ. eigenvalues --   -0.42682  -0.41585  -0.41256  -0.40255  -0.39695
 Alpha  occ. eigenvalues --   -0.38811  -0.37970  -0.37298  -0.36460  -0.35710
 Alpha  occ. eigenvalues --   -0.35414  -0.35061  -0.34743  -0.33939  -0.33391
 Alpha  occ. eigenvalues --   -0.33021  -0.31489  -0.31272  -0.30523  -0.29746
 Alpha  occ. eigenvalues --   -0.29263  -0.28902  -0.28531  -0.27268  -0.26561
 Alpha  occ. eigenvalues --   -0.26298
 Alpha virt. eigenvalues --   -0.02143  -0.02006  -0.01690  -0.00357   0.00197
 Alpha virt. eigenvalues --    0.01048   0.01827   0.02409   0.02708   0.03389
 Alpha virt. eigenvalues --    0.04005   0.04485   0.04620   0.05114   0.05698

 Mulliken atomic charges:
              1
     1  O   -0.539857
     2  C   -0.116698
     3  C    0.320761
     4  O   -0.576554
     5  H    0.342204
     6  C   -0.081617
     7  O   -0.609385
     8  H    0.441756
     9  C   -0.228464
    10  O   -0.528081
    11  H    0.343757
    12  C    0.139089
    13  O   -0.248442
    14  C    0.176235
    15  O   -0.219045
    16  C    0.374012
    17  C    0.059479
    18  O   -0.561875
    19  H    0.386344
    20  C    0.044065
    21  O   -0.529207
    22  H    0.336686
    23  C   -0.232227
    24  O   -0.588503
    25  H    0.364514
    26  C   -0.131299
    27  O   -0.232632
    28  C    0.141743
    29  O   -0.546744
    30  H    0.337063
    31  H    0.153438
    32  H    0.156354
    33  H    0.125439
    34  H    0.108254
    35  H    0.124077
    36  H    0.133707
    37  H    0.123078
    38  H    0.344272
    39  H    0.141225
    40  H    0.139629
    41  H    0.114248
    42  H    0.126711
    43  H    0.112614
    44  H    0.126558
    45  H    0.133316
 Sum of Mulliken atomic charges =   0.00000

 Dipole moment (field-independent basis, Debye):
    X=             -2.4062    Y=             -0.6939    Z=              1.2898  Tot=              2.8169
 Quadrupole moment (field-independent basis, Debye-Ang):
   XX=           -119.1722   YY=           -137.1943   ZZ=           -139.7324
   XY=            -17.9212   XZ=              3.5235   YZ=             -0.1385

  Exact polarizability: 234.300   0.242 198.589   1.298  -0.576 143.204
 Approx polarizability: 275.011  -0.836 258.734   2.118  -0.971 239.552

 ******    6 imaginary frequencies (negative Signs) ******

                     1                      2                      3
                     A                      A                      A
 Frequencies --  -322.8674              -302.5698              -206.3666
 Red. masses --     1.7098                 1.7309                 1.1978
 Frc consts  --     0.1050                 0.0934                 0.0301
 IR Inten    --     5.4521                 4.4321                83.6930
 Raman Activ --     0.0426                 0.0217                 0.7562

                     4                      5                      6
                     A                      A                      A
 Frequencies --  -202.0176               -66.2698               -10.4115
 Red. masses --     1.2216                 6.7389                 6.3591
 Frc consts  --     0.0294                 0.0174                 0.0004
 IR Inten    --   121.8571                 0.8974                 0.6188
 Raman Activ --     0.6764                 0.0278                 0.0322

                     7                      8                      9
                     A                      A                      A
 Frequencies --    38.7612                56.0297                81.8153
 Red. masses --     6.9955                 6.2744                 6.0630
 Frc consts  --     0.0062                 0.0116                 0.0239
 IR Inten    --     1.8211                 1.3324                 6.4582
 Raman Activ --     0.0185                 0.0409                 0.0698

                    10                     11                     12
                     A                      A                      A
 Frequencies --    83.6859               103.3671               127.0333
 Red. masses --     6.4810                 6.8322                 5.6878
 Frc consts  --     0.0267                 0.0430                 0.0541
 IR Inten    --     1.0536                 1.7400                 2.8896
 Raman Activ --     0.2869                 0.0590                 0.0772

                    13                     14                     15
                     A                      A                      A
 Frequencies --   163.1081               178.3936               187.7799
 Red. masses --     6.3802                 5.8725                 7.7149
 Frc consts  --     0.1000                 0.1101                 0.1603
 IR Inten    --     3.7901                 3.4417                 0.2253
 Raman Activ --     0.4791                 0.5075                 0.6091

                    16                     17                     18
                     A                      A                      A
 Frequencies --   214.9885               238.7604               277.4508
 Red. masses --     7.1202                 6.2916                 4.2601
 Frc consts  --     0.1939                 0.2113                 0.1932
 IR Inten    --     0.2408                 2.5254                15.3372
 Raman Activ --     2.6403                 0.4219                 0.5477

                    19                     20                     21
                     A                      A                      A
 Frequencies --   284.8708               298.4076               301.3227
 Red. masses --     5.1875                 5.0327                 4.6509
 Frc consts  --     0.2480                 0.2640                 0.2488
 IR Inten    --     1.3075                 1.1455                 0.8268
 Raman Activ --     0.2375                 0.5996                 0.1304

                    22                     23                     24
                     A                      A                      A
 Frequencies --   308.6147               313.0525               323.3378
 Red. masses --     6.5597                 6.2691                 4.5955
 Frc consts  --     0.3681                 0.3620                 0.2831
 IR Inten    --    12.1754                 3.1330                 0.9683
 Raman Activ --     2.9514                 2.4388                 2.3777

                    25                     26                     27
                     A                      A                      A
 Frequencies --   347.1511               361.7903               378.6705
 Red. masses --     6.1345                 4.9147                 7.4907
 Frc consts  --     0.4356                 0.3790                 0.6328
 IR Inten    --    11.0984                 3.9507                 1.6854
 Raman Activ --     0.6325                 1.1560                 2.4542

                    28                     29                     30
                     A                      A                      A
 Frequencies --   410.1784               416.9173               428.0058
 Red. masses --     3.9808                 5.6021                 4.9675
 Frc consts  --     0.3946                 0.5737                 0.5362
 IR Inten    --    21.9833                 1.2236                 2.6376
 Raman Activ --     1.1605                 8.9131                 2.3302

                    31                     32                     33
                     A                      A                      A
 Frequencies --   429.2513               485.0932               488.8260
 Red. masses --     5.9452                 4.6519                 4.4678
 Frc consts  --     0.6454                 0.6450                 0.6290
 IR Inten    --     2.7781                12.9634                 5.0688
 Raman Activ --     1.3353                 0.2994                 4.3203

                    34                     35                     36
                     A                      A                      A
 Frequencies --   501.6044               528.4263               564.4213
 Red. masses --     3.7728                 3.1929                 3.5741
 Frc consts  --     0.5593                 0.5253                 0.6708
 IR Inten    --    12.8030                 6.9802                 7.5682
 Raman Activ --     1.7129                 4.0777                 1.1505

                    37                     38                     39
                     A                      A                      A
 Frequencies --   579.8703               592.7426               613.9844
 Red. masses --     2.8770                 6.3935                 5.2188
 Frc consts  --     0.5700                 1.3235                 1.1591
 IR Inten    --    47.1599                 1.5610                 6.9933
 Raman Activ --     0.3637                 0.5414                 0.4784

                    40                     41                     42
                     A                      A                      A
 Frequencies --   625.2986               677.8226               679.8794
 Red. masses --     4.1544                 1.0872                 1.0930
 Frc consts  --     0.9571                 0.2943                 0.2977
 IR Inten    --    34.8952                99.5301               108.0440
 Raman Activ --     1.6217                 1.9836                 1.4789

                    43                     44                     45
                     A                      A                      A
 Frequencies --   689.0657               757.6822               761.6225
 Red. masses --     4.8226                 1.0909                 1.0600
 Frc consts  --     1.3491                 0.3690                 0.3623
 IR Inten    --    16.8229                81.0096                83.3274
 Raman Activ --     1.2277                 1.7866                 1.3514

                    46                     47                     48
                     A                      A                      A
 Frequencies --   803.7657               831.8929               849.4868
 Red. masses --     1.0610                 1.1860                 1.7790
 Frc consts  --     0.4039                 0.4836                 0.7564
 IR Inten    --    54.1827                63.1606                 1.2103
 Raman Activ --     0.5095                 0.5347                 0.8813

                    49                     50                     51
                     A                      A                      A
 Frequencies --   862.2983               915.7760               959.2901
 Red. masses --     1.4901                 6.7901                 4.8935
 Frc consts  --     0.6528                 3.3551                 2.6532
 IR Inten    --    19.0878               111.7771                50.1422
 Raman Activ --     0.2741                 2.1240                 0.4226

                    52                     53                     54
                     A                      A                      A
 Frequencies --   972.2848               978.2493               982.6384
 Red. masses --     6.5363                 6.3666                 4.7525
 Frc consts  --     3.6406                 3.5897                 2.7037
 IR Inten    --    65.7366                33.2027               164.7122
 Raman Activ --     3.4562                 1.4076                 0.6087

                    55                     56                     57
                     A                      A                      A
 Frequencies --  1001.6822              1009.2622              1015.5271
 Red. masses --     6.6821                 5.8180                 5.7937
 Frc consts  --     3.9502                 3.4917                 3.5204
 IR Inten    --   436.5119                38.7259               195.4232
 Raman Activ --     1.8220                 1.4282                 4.2398

                    58                     59                     60
                     A                      A                      A
 Frequencies --  1034.3551              1055.7201              1058.9154
 Red. masses --     6.8425                 5.0887                 6.4852
 Frc consts  --     4.3133                 3.3416                 4.2844
 IR Inten    --   252.8152                58.8510                89.5889
 Raman Activ --     1.7081                 2.6693                 0.6867

                    61                     62                     63
                     A                      A                      A
 Frequencies --  1068.7838              1073.6382              1075.5957
 Red. masses --     3.6413                 5.2470                 3.2366
 Frc consts  --     2.4507                 3.5635                 2.2061
 IR Inten    --    31.2328                16.4707                 5.5756
 Raman Activ --     3.4114                 7.6176                28.7694

                    64                     65                     66
                     A                      A                      A
 Frequencies --  1100.2123              1102.6123              1110.7631
 Red. masses --     2.6661                 3.0165                 2.4483
 Frc consts  --     1.9014                 2.1607                 1.7797
 IR Inten    --    50.0234                30.6546                 8.5323
 Raman Activ --     5.5348                10.9543                 3.3532

                    67                     68                     69
                     A                      A                      A
 Frequencies --  1124.6766              1130.2028              1133.7195
 Red. masses --     2.1656                 2.4828                 3.3167
 Frc consts  --     1.6139                 1.8685                 2.5117
 IR Inten    --    34.7927                56.7785                13.6651
 Raman Activ --     1.9322                11.6545                 2.5912

                    70                     71                     72
                     A                      A                      A
 Frequencies --  1141.8398              1148.6745              1160.3600
 Red. masses --     2.8905                 2.4663                 2.1037
 Frc consts  --     2.2204                 1.9173                 1.6689
 IR Inten    --    52.8315                17.2362                10.9912
 Raman Activ --     3.1266                 2.0703                 6.1493

                    73                     74                     75
                     A                      A                      A
 Frequencies --  1167.5086              1176.4087              1180.2416
 Red. masses --     1.8031                 1.7979                 1.8174
 Frc consts  --     1.4481                 1.4660                 1.4916
 IR Inten    --    22.7503                 0.9572                23.0208
 Raman Activ --     0.7682                 1.6777                 3.0675

                    76                     77                     78
                     A                      A                      A
 Frequencies --  1203.8017              1222.7698              1228.2001
 Red. masses --     1.3268                 1.3527                 1.3342
 Frc consts  --     1.1329                 1.1916                 1.1858
 IR Inten    --    21.9171                 9.4263                 5.7018
 Raman Activ --     0.7692                 1.8496                 0.6418

                    79                     80                     81
                     A                      A                      A
 Frequencies --  1231.3253              1251.0015              1254.1879
 Red. masses --     1.1684                 1.2572                 1.2515
 Frc consts  --     1.0437                 1.1592                 1.1599
 IR Inten    --     6.2581                 3.6737                 9.4174
 Raman Activ --     1.6114                 1.5494                 1.0426

                    82                     83                     84
                     A                      A                      A
 Frequencies --  1277.3121              1289.5735              1292.5299
 Red. masses --     1.1842                 1.3558                 1.1763
 Frc consts  --     1.1383                 1.3285                 1.1578
 IR Inten    --     6.9799                47.2449                16.9282
 Raman Activ --     2.8625                 3.0543                 1.5191

                    85                     86                     87
                     A                      A                      A
 Frequencies --  1298.1414              1300.1610              1308.8144
 Red. masses --     1.2438                 1.2891                 1.3513
 Frc consts  --     1.2349                 1.2839                 1.3639
 IR Inten    --     6.2665                14.5551                40.2716
 Raman Activ --     2.9151                 3.7478                 3.3425

                    88                     89                     90
                     A                      A                      A
 Frequencies --  1313.3783              1326.1898              1328.2169
 Red. masses --     1.2635                 1.2528                 1.2254
 Frc consts  --     1.2841                 1.2983                 1.2737
 IR Inten    --    18.3605                30.7006                21.8427
 Raman Activ --     5.2901                 7.1872                12.6644

                    91                     92                     93
                     A                      A                      A
 Frequencies --  1339.9801              1345.5431              1346.2756
 Red. masses --     1.2514                 1.2476                 1.1839
 Frc consts  --     1.3239                 1.3308                 1.2642
 IR Inten    --    17.4978                15.9403                34.4644
 Raman Activ --     0.8690                 4.5973                 1.4742

                    94                     95                     96
                     A                      A                      A
 Frequencies --  1348.7538              1365.9496              1369.0737
 Red. masses --     1.2182                 1.3958                 1.4373
 Frc consts  --     1.3057                 1.5344                 1.5873
 IR Inten    --    39.0518                 1.5781                 5.1717
 Raman Activ --     3.0092                13.7218                 3.3917

                    97                     98                     99
                     A                      A                      A
 Frequencies --  1385.6503              1392.5010              1396.9556
 Red. masses --     1.3931                 1.5711                 1.6296
 Frc consts  --     1.5760                 1.7949                 1.8737
 IR Inten    --     2.6048                 7.7205                 7.4298
 Raman Activ --     0.4948                10.5947                 3.8553

                   100                    101                    102
                     A                      A                      A
 Frequencies --  1439.4286              1449.4820              1452.8913
 Red. masses --     1.4287                 1.3351                 1.3687
 Frc consts  --     1.7441                 1.6526                 1.7023
 IR Inten    --    59.4670                20.3843                19.5809
 Raman Activ --     0.9597                 0.9721                 1.7887

                   103                    104                    105
                     A                      A                      A
 Frequencies --  1459.2198              1473.6124              1475.2965
 Red. masses --     1.3119                 1.0870                 1.1282
 Frc consts  --     1.6459                 1.3907                 1.4467
 IR Inten    --    11.3538                 2.7572                 3.2533
 Raman Activ --     3.2149                 3.9345                 2.6088

                   106                    107                    108
                     A                      A                      A
 Frequencies --  1501.1586              1506.7863              3198.8899
 Red. masses --     1.2804                 1.2268                 1.0709
 Frc consts  --     1.7001                 1.6411                 6.4566
 IR Inten    --    44.3197                53.7131              1137.4327
 Raman Activ --     1.4763                 2.0848               193.3470

                   109                    110                    111
                     A                      A                      A
 Frequencies --  3251.6360              3261.4386              3263.1588
 Red. masses --     1.0582                 1.0806                 1.0607
 Frc consts  --     6.5920                 6.7722                 6.6544
 IR Inten    --    34.9962                41.3058                 7.1416
 Raman Activ --    79.5322                73.6862               109.5559

                   112                    113                    114
                     A                      A                      A
 Frequencies --  3266.5756              3271.8246              3273.4925
 Red. masses --     1.0815                 1.0806                 1.0831
 Frc consts  --     6.7992                 6.8152                 6.8379
 IR Inten    --     8.3062                97.3720                 2.5010
 Raman Activ --    37.8438                34.6226               242.0395

                   115                    116                    117
                     A                      A                      A
 Frequencies --  3274.4324              3281.6916              3282.6305
 Red. masses --     1.0839                 1.0845                 1.0833
 Frc consts  --     6.8473                 6.8815                 6.8777
 IR Inten    --    16.2379                21.4710                11.2950
 Raman Activ --    37.8473                91.1554                 9.8829

                   118                    119                    120
                     A                      A                      A
 Frequencies --  3291.1472              3295.1187              3298.1694
 Red. masses --     1.0755                 1.0879                 1.0909
 Frc consts  --     6.8634                 6.9597                 6.9915
 IR Inten    --   439.2661                77.3499                21.7544
 Raman Activ --    61.7685                72.1062                19.4466

                   121                    122                    123
                     A                      A                      A
 Frequencies --  3301.2683              3306.0761              3314.2547
 Red. masses --     1.0883                 1.0924                 1.1042
 Frc consts  --     6.9882                 7.0347                 7.1460
 IR Inten    --    85.2732               157.7470                44.9505
 Raman Activ --    38.7155                38.2048                48.1017

                   124                    125                    126
                     A                      A                      A
 Frequencies --  3359.2858              3360.9633              3368.1345
 Red. masses --     1.0677                 1.0651                 1.0674
 Frc consts  --     7.0993                 7.0888                 7.1341
 IR Inten    --    47.1530                46.8194               101.7667
 Raman Activ --   148.0473               124.7403               133.4814

                   127                    128                    129
                     A                      A                      A
 Frequencies --  3369.8545              3889.9452              3891.9673
 Red. masses --     1.0659                 1.0676                 1.0675
 Frc consts  --     7.1315                 9.5182                 9.5270
 IR Inten    --    29.7244                83.0994                80.0991
 Raman Activ --   148.6741                90.5127               110.7013

 - Thermochemistry -
 -------------------
 Temperature   298.150 Kelvin.  Pressure   1.00000 Atm.
 Atom     1 has atomic number  8 and mass  15.99491

 Molecular mass:   342.11621 amu.
 Principal axes and moments of inertia in atomic units:
                           1         2         3
     Eigenvalues --  4453.26496********************
           X            0.99997  -0.00812   0.00028
           Y            0.00812   0.99997  -0.00160
           Z           -0.00027   0.00160   1.00000
 This molecule is an asymmetric top.
 Rotational symmetry number  1.
 Warning -- assumption of classical behavior for rotation
           may cause significant error
 Rotational temperatures (Kelvin)      0.01945     0.00703     0.00528
 Rotational constants (GHZ):           0.40526     0.14651     0.11011
    6 imaginary frequencies ignored.
 Zero-point vibrational energy     974786.5 (Joules/Mol)
                                  232.97957 (Kcal/Mol)
 Warning -- explicit consideration of  33 degrees of freedom as
           vibrations may cause significant error
 Vibrational temperatures:     55.77    80.61   117.71   120.41   148.72
          (Kelvin)            182.77   234.68   256.67   270.17   309.32
                              343.52   399.19   409.87   429.34   433.54
                              444.03   450.41   465.21   499.47   520.53
                              544.82   590.15   599.85   615.80   617.60
                              697.94   703.31   721.70   760.29   812.08
                              834.30   852.82   883.39   899.66   975.23
                              978.19   991.41  1090.13  1095.80  1156.44
                             1196.91  1222.22  1240.65  1317.60  1380.20
                             1398.90  1407.48  1413.80  1441.20  1452.10
                             1461.12  1488.20  1518.94  1523.54  1537.74
                             1544.72  1547.54  1582.96  1586.41  1598.14
                             1618.16  1626.11  1631.17  1642.85  1652.68
                             1669.50  1679.78  1692.59  1698.10  1732.00
                             1759.29  1767.10  1771.60  1799.91  1804.49
                             1837.76  1855.41  1859.66  1867.73  1870.64
                             1883.09  1889.66  1908.09  1911.01  1927.93
                             1935.93  1936.99  1940.55  1965.29  1969.79
                             1993.64  2003.50  2009.90  2071.01  2085.48
                             2090.38  2099.49  2120.20  2122.62  2159.83
                             2167.93  4602.48  4678.37  4692.48  4694.95
                             4699.87  4707.42  4709.82  4711.17  4721.62
                             4722.97  4735.22  4740.93  4745.32  4749.78
                             4756.70  4768.47  4833.26  4835.67  4845.99
                             4848.46  5596.76  5599.67

 Zero-point correction=                           0.371277 (Hartree/Particle)
 Thermal correction to Energy=                    0.390300
 Thermal correction to Enthalpy=                  0.391244
 Thermal correction to Gibbs Free Energy=         0.324745
 Sum of electronic and zero-point Energies=          -1297.615338
 Sum of electronic and thermal Energies=             -1297.596315
 Sum of electronic and thermal Enthalpies=           -1297.595370
 Sum of electronic and thermal Free Energies=        -1297.661869

                     E (Thermal)             CV                S
                      KCal/Mol        Cal/Mol-Kelvin    Cal/Mol-Kelvin
 Total                  244.917             77.827            139.959
 Electronic               0.000              0.000              0.000
 Translational            0.889              2.981             43.384
 Rotational               0.889              2.981             35.152
 Vibrational            243.140             71.866             61.423
 Vibration     1          0.594              1.981              5.321
 Vibration     2          0.596              1.975              4.592
 Vibration     3          0.600              1.962              3.847
 Vibration     4          0.601              1.960              3.803
 Vibration     5          0.605              1.947              3.390
 Vibration     6          0.611              1.926              2.990
 Vibration     7          0.623              1.888              2.513
 Vibration     8          0.629              1.869              2.345
 Vibration     9          0.632              1.857              2.250
 Vibration    10          0.645              1.818              2.001
 Vibration    11          0.657              1.781              1.812
 Vibration    12          0.678              1.715              1.549
 Vibration    13          0.683              1.702              1.504
 Vibration    14          0.691              1.677              1.426
 Vibration    15          0.693              1.671              1.410
 Vibration    16          0.698              1.657              1.370
 Vibration    17          0.701              1.649              1.346
 Vibration    18          0.708              1.629              1.293
 Vibration    19          0.725              1.581              1.179
 Vibration    20          0.736              1.551              1.114
 Vibration    21          0.749              1.516              1.044
 Vibration    22          0.774              1.448              0.926
 Vibration    23          0.780              1.433              0.903
 Vibration    24          0.790              1.409              0.865
 Vibration    25          0.791              1.407              0.861
 Vibration    26          0.841              1.283              0.696
 Vibration    27          0.845              1.275              0.687
 Vibration    28          0.857              1.246              0.654
 Vibration    29          0.883              1.187              0.591
 Vibration    30          0.920              1.108              0.515
 Vibration    31          0.937              1.075              0.486
 Vibration    32          0.950              1.047              0.462
 Vibration    33          0.973              1.002              0.426

 Normal termination of Gaussian 09 at Mon Mar 21 23:05:30 2016.
