 Gaussian 09, Revision B.01,
 Gaussian 09:  EM64L-G09RevB.01 12-Aug-2010

 -------------------------------------------------
 # freq=raman b3lyp/6-31+g(2d,p) geom=connectivity
 -------------------------------------------------

 -----------------
 423 8000/8000.com
 -----------------
 Symbolic Z-matrix:
 Charge =  0 Multiplicity = 1

                         Standard orientation:
 ---------------------------------------------------------------------
 Center     Atomic      Atomic             Coordinates (Angstroms)
 Number     Number       Type             X           Y           Z
 ---------------------------------------------------------------------
      1          8           0        5.056480   -0.388289   -0.360502
      2          6           0        3.719523   -0.096564    0.071676
      3          6           0        3.159061    1.227137   -0.422713
      4          8           0        4.119822    2.277189   -0.238112
      5          1           0        5.017135    1.886696   -0.443113
      6          6           0        1.814677    1.481073    0.239504
      7          8           0        1.369725    2.788014   -0.152852
      8          1           0        0.506295    3.048957    0.280358
      9          6           0        3.002018   -2.471854    0.474566
     10          8           0        4.225407   -3.169854    0.204717
     11          1           0        4.109022   -4.148528    0.373445
     12          6           0        2.708989   -1.179670   -0.270440
     13          8           0        1.371697   -0.863480    0.144349
     14          6           0        0.874615    0.410497   -0.290503
     15          8           0       -0.327568    0.624432    0.463478
     16          6           0       -1.571078    0.198918   -0.110854
     17          6           0       -1.971090   -1.222629    0.248193
     18          8           0       -1.008726   -2.141017   -0.290578
     19          1           0       -0.123813   -1.682112   -0.212998
     20          6           0       -3.344258   -1.483067   -0.349539
     21          8           0       -3.718675   -2.758690    0.191610
     22          1           0       -4.678275   -2.922179   -0.037429
     23          6           0       -2.388834    2.630479    0.074067
     24          8           0       -1.235149    3.427841    0.375652
     25          1           0       -1.383168    4.415928    0.420002
     26          6           0       -2.633163    1.164095    0.391869
     27          8           0       -3.873272    0.867706   -0.265168
     28          6           0       -4.315716   -0.429631    0.157545
     29          8           0       -5.521722   -0.622107   -0.596467
     30          1           0       -6.256124   -0.764060    0.005283
     31          1           0       -2.384601    2.626958    1.144053
     32          1           0       -1.623224    2.145020   -0.494326
     33          1           0       -2.752232    1.043749    1.448391
     34          1           0       -1.505527    0.280402   -1.175731
     35          1           0       -2.014492   -1.327738    1.312134
     36          1           0       -3.309048   -1.505507   -1.418724
     37          1           0       -4.477834   -0.487795    1.213592
     38          1           0        5.615238   -0.536968    0.405842
     39          1           0        2.197024   -3.147234    0.272707
     40          1           0        2.984893   -2.248902    1.520940
     41          1           0        2.723164   -1.362901   -1.324540
     42          1           0        3.753480   -0.034925    1.139359
     43          1           0        2.986137    1.131935   -1.474347
     44          1           0        1.900531    1.414768    1.303991
     45          1           0        0.722802    0.467775   -1.348129
 ---------------------------------------------------------------------

 SCF Done:  E(RB3LYP) =  -1297.70239133     A.U. after   16 cycles

 The electronic state is 1-A.
 Alpha  occ. eigenvalues --  -19.19988 -19.19708 -19.19281 -19.19096 -19.18665
 Alpha  occ. eigenvalues --  -19.17757 -19.16617 -19.16441 -19.15068 -19.14282
 Alpha  occ. eigenvalues --  -19.13976 -10.31751 -10.31387 -10.30586 -10.26409
 Alpha  occ. eigenvalues --  -10.26241 -10.25688 -10.25049 -10.25004 -10.24656
 Alpha  occ. eigenvalues --  -10.24485 -10.24482 -10.19820  -1.11612  -1.10404
 Alpha  occ. eigenvalues --   -1.07347  -1.06121  -1.05236  -1.04383  -1.03382
 Alpha  occ. eigenvalues --   -1.02985  -1.02176  -1.01112  -1.00247  -0.85077
 Alpha  occ. eigenvalues --   -0.81644  -0.81103  -0.79417  -0.73637  -0.70757
 Alpha  occ. eigenvalues --   -0.68109  -0.65513  -0.64699  -0.63269  -0.62853
 Alpha  occ. eigenvalues --   -0.61605  -0.58173  -0.56517  -0.56290  -0.55700
 Alpha  occ. eigenvalues --   -0.55055  -0.54892  -0.53438  -0.52861  -0.52134
 Alpha  occ. eigenvalues --   -0.50676  -0.50452  -0.49491  -0.49031  -0.48079
 Alpha  occ. eigenvalues --   -0.46642  -0.45547  -0.44461  -0.44303  -0.43745
 Alpha  occ. eigenvalues --   -0.43232  -0.42377  -0.41754  -0.41305  -0.40344
 Alpha  occ. eigenvalues --   -0.39912  -0.38879  -0.37568  -0.36451  -0.36201
 Alpha  occ. eigenvalues --   -0.35757  -0.35453  -0.34695  -0.34329  -0.33867
 Alpha  occ. eigenvalues --   -0.31632  -0.31533  -0.31430  -0.30106  -0.29346
 Alpha  occ. eigenvalues --   -0.29271  -0.29021  -0.27973  -0.27442  -0.26956
 Alpha  occ. eigenvalues --   -0.20392
 Alpha virt. eigenvalues --   -0.09039  -0.02325  -0.02196  -0.00597  -0.00272
 Alpha virt. eigenvalues --    0.00736   0.01422   0.01604   0.02253   0.02930
 Alpha virt. eigenvalues --    0.03426   0.03856   0.04166   0.04441   0.05047

 Mulliken atomic charges:
              1
     1  O   -0.548032
     2  C   -0.240243
     3  C    0.201212
     4  O   -0.562384
     5  H    0.350111
     6  C    0.141734
     7  O   -0.557587
     8  H    0.386253
     9  C   -0.256437
    10  O   -0.551652
    11  H    0.343822
    12  C    0.298843
    13  O   -0.245721
    14  C    0.092136
    15  O   -0.217329
    16  C   -0.004013
    17  C    0.146176
    18  O   -0.586106
    19  H    0.399139
    20  C    0.123448
    21  O   -0.541087
    22  H    0.331311
    23  C   -1.117565
    24  O   -0.577348
    25  H    0.390572
    26  C    0.422538
    27  O   -0.131461
    28  C    0.201203
    29  O   -0.534800
    30  H    0.334696
    31  H    0.314744
    32  H    0.278308
    33  H    0.117533
    34  H    0.134167
    35  H    0.129333
    36  H    0.143506
    37  H    0.143054
    38  H    0.349750
    39  H    0.145832
    40  H    0.139612
    41  H    0.118436
    42  H    0.108480
    43  H    0.109002
    44  H    0.127948
    45  H    0.148867
 Sum of Mulliken atomic charges =   0.00000

 Dipole moment (field-independent basis, Debye):
    X=             -1.0377    Y=             -2.1227    Z=              4.0654  Tot=              4.7022
 Quadrupole moment (field-independent basis, Debye-Ang):
   XX=           -126.0677   YY=           -145.4777   ZZ=           -135.6425
   XY=             -4.7411   XZ=             -5.4457   YZ=              4.3132

  Exact polarizability: 243.795   4.868 212.634   0.274   0.291 147.011
 Approx polarizability: 290.535   9.625 284.680  -0.151   0.953 248.667

 ******   10 imaginary frequencies (negative Signs) ******

                     1                      2                      3
                     A                      A                      A
 Frequencies -- -1916.6143              -812.7548              -619.6544
 Red. masses --     1.0478                 1.0871                 3.2887
 Frc consts  --     2.2677                 0.4231                 0.7440
 IR Inten    --   656.5198                42.0189                64.0011
 Raman Activ --    60.3781                 9.1623                11.9911

                     4                      5                      6
                     A                      A                      A
 Frequencies --  -500.9688              -261.9255              -210.0291
 Red. masses --     1.7163                 1.7096                 1.2119
 Frc consts  --     0.2538                 0.0691                 0.0315
 IR Inten    --   232.5473                20.5958                79.9953
 Raman Activ --    60.3028                 0.0957                 0.5627

                     7                      8                      9
                     A                      A                      A
 Frequencies --  -202.5692              -196.2130               -57.0729
 Red. masses --     1.1974                 6.5982                 6.6847
 Frc consts  --     0.0289                 0.1497                 0.0128
 IR Inten    --   106.7479                11.1432                 1.3403
 Raman Activ --     1.4085                 0.9527                 0.0516

                    10                     11                     12
                     A                      A                      A
 Frequencies --   -40.0060                41.5624                67.9962
 Red. masses --     6.3398                 6.3556                 7.0498
 Frc consts  --     0.0060                 0.0065                 0.0192
 IR Inten    --     0.3573                 2.8485                 1.1494
 Raman Activ --     0.1029                 0.0363                 0.5520

                    13                     14                     15
                     A                      A                      A
 Frequencies --    85.9961               102.4114               113.9954
 Red. masses --     7.0652                 5.5154                 6.7113
 Frc consts  --     0.0308                 0.0341                 0.0514
 IR Inten    --     1.3298                 3.5047                 1.8157
 Raman Activ --     0.0304                 0.2689                 0.1233

                    16                     17                     18
                     A                      A                      A
 Frequencies --   148.3671               182.5311               188.6080
 Red. masses --     5.8545                 7.1530                 5.6715
 Frc consts  --     0.0759                 0.1404                 0.1189
 IR Inten    --     4.1127                12.5228                 0.2256
 Raman Activ --     0.7376                 1.2518                 0.7141

                    19                     20                     21
                     A                      A                      A
 Frequencies --   204.2311               220.6346               268.0547
 Red. masses --     7.0339                 6.0956                 4.2620
 Frc consts  --     0.1729                 0.1748                 0.1804
 IR Inten    --     0.3965                 8.7518                20.5606
 Raman Activ --     1.9236                 4.8199                 0.4547

                    22                     23                     24
                     A                      A                      A
 Frequencies --   282.0205               291.9816               302.8834
 Red. masses --     4.8634                 4.7740                 5.4189
 Frc consts  --     0.2279                 0.2398                 0.2929
 IR Inten    --     3.4146                 2.4938                15.4090
 Raman Activ --     4.5937                 0.8628                 3.9386

                    25                     26                     27
                     A                      A                      A
 Frequencies --   313.7983               315.3853               325.3567
 Red. masses --     5.2507                 5.6352                 6.1277
 Frc consts  --     0.3046                 0.3303                 0.3822
 IR Inten    --     1.1292                 6.0728                 1.7694
 Raman Activ --     6.9237                 3.1396                 1.8585

                    28                     29                     30
                     A                      A                      A
 Frequencies --   328.9340               367.0065               380.1671
 Red. masses --     6.5794                 5.5235                 4.6039
 Frc consts  --     0.4194                 0.4383                 0.3920
 IR Inten    --     7.2233                 1.9541                 8.1286
 Raman Activ --     2.4300                 0.7379                 4.2444

                    31                     32                     33
                     A                      A                      A
 Frequencies --   405.0458               422.4997               429.7672
 Red. masses --     6.2879                 5.7414                 4.5724
 Frc consts  --     0.6078                 0.6038                 0.4976
 IR Inten    --     6.0588                13.9368                 5.8389
 Raman Activ --     1.3539                 2.9712                 6.6108

                    34                     35                     36
                     A                      A                      A
 Frequencies --   442.4739               479.1316               487.4222
 Red. masses --     6.0449                 3.9264                 3.9264
 Frc consts  --     0.6973                 0.5311                 0.5496
 IR Inten    --     5.4952                15.9335                14.3296
 Raman Activ --     6.0827                 4.4984                 1.0523

                    37                     38                     39
                     A                      A                      A
 Frequencies --   505.2196               528.6774               547.2420
 Red. masses --     1.6838                 3.1485                 2.2280
 Frc consts  --     0.2532                 0.5185                 0.3931
 IR Inten    --    64.9679                 4.9184                35.9175
 Raman Activ --     4.1169                 4.2533                 1.0179

                    40                     41                     42
                     A                      A                      A
 Frequencies --   572.0618               591.9272               609.2682
 Red. masses --     4.4572                 4.6990                 5.4598
 Frc consts  --     0.8594                 0.9700                 1.1941
 IR Inten    --    19.7055                 4.7751                 1.2982
 Raman Activ --     1.4545                 1.2307                 0.8152

                    43                     44                     45
                     A                      A                      A
 Frequencies --   626.9047               633.8931               676.9849
 Red. masses --     3.4566                 3.3364                 2.0247
 Frc consts  --     0.8004                 0.7899                 0.5467
 IR Inten    --    52.8432                 7.9510                46.9913
 Raman Activ --     0.3065                 0.3549                 2.0955

                    46                     47                     48
                     A                      A                      A
 Frequencies --   685.4379               757.0617               766.1158
 Red. masses --     1.6155                 1.0603                 1.0782
 Frc consts  --     0.4472                 0.3580                 0.3729
 IR Inten    --    74.2022                90.1043               122.6860
 Raman Activ --     2.8339                 1.4412                 2.6766

                    49                     50                     51
                     A                      A                      A
 Frequencies --   794.1484               814.8658               851.8340
 Red. masses --     1.1384                 1.0748                 2.5211
 Frc consts  --     0.4230                 0.4205                 1.0778
 IR Inten    --   149.0517                51.0019                67.0396
 Raman Activ --     0.9874                 0.1638                 1.4891

                    52                     53                     54
                     A                      A                      A
 Frequencies --   852.8358               921.8132               928.7382
 Red. masses --     2.8126                 4.5663                 1.6704
 Frc consts  --     1.2053                 2.2861                 0.8489
 IR Inten    --    85.6076                73.3378                37.2372
 Raman Activ --     3.8696                 2.7276                17.5627

                    55                     56                     57
                     A                      A                      A
 Frequencies --   957.2983               972.1442               977.5966
 Red. masses --     5.0229                 6.9707                 4.4220
 Frc consts  --     2.7120                 3.8814                 2.4900
 IR Inten    --   237.7535                44.7692                71.5340
 Raman Activ --     7.1346                 2.8123                 1.9351

                    58                     59                     60
                     A                      A                      A
 Frequencies --   987.0178               994.4822              1010.7146
 Red. masses --     5.2247                 5.3141                 6.4854
 Frc consts  --     2.9989                 3.0965                 3.9034
 IR Inten    --    37.7809                32.8610               206.2711
 Raman Activ --     6.1379                 8.8487                 3.1574

                    61                     62                     63
                     A                      A                      A
 Frequencies --  1016.0505              1046.0169              1061.5118
 Red. masses --     7.5444                 4.4506                 2.9881
 Frc consts  --     4.5888                 2.8691                 1.9838
 IR Inten    --   451.8554               126.3436                16.9516
 Raman Activ --     3.5843                 4.2782                32.2646

                    64                     65                     66
                     A                      A                      A
 Frequencies --  1066.3874              1071.0302              1074.8627
 Red. masses --     3.9888                 4.9421                 3.2512
 Frc consts  --     2.6725                 3.3402                 2.2131
 IR Inten    --    19.6120               151.0344                 3.7275
 Raman Activ --     3.4347                 1.3040                 8.3273

                    67                     68                     69
                     A                      A                      A
 Frequencies --  1081.1174              1085.7687              1105.7036
 Red. masses --     2.1220                 2.8942                 2.6597
 Frc consts  --     1.4613                 2.0102                 1.9159
 IR Inten    --     1.6893                73.3227                23.4472
 Raman Activ --     5.3910                 4.4385                 4.8514

                    70                     71                     72
                     A                      A                      A
 Frequencies --  1107.0291              1124.5583              1133.8960
 Red. masses --     2.6059                 2.6699                 2.4100
 Frc consts  --     1.8816                 1.9893                 1.8256
 IR Inten    --    19.6238                17.0602                12.4615
 Raman Activ --     3.3069                 5.7996                 5.8557

                    73                     74                     75
                     A                      A                      A
 Frequencies --  1138.2491              1142.7914              1148.9491
 Red. masses --     1.7711                 1.9896                 2.6511
 Frc consts  --     1.3520                 1.5309                 2.0619
 IR Inten    --     9.1292                20.7247                14.6410
 Raman Activ --     2.9032                10.3583                 2.9672

                    76                     77                     78
                     A                      A                      A
 Frequencies --  1157.8496              1168.6385              1194.7793
 Red. masses --     2.0876                 1.8302                 1.3196
 Frc consts  --     1.6489                 1.4727                 1.1099
 IR Inten    --    14.9046                15.6785                14.1055
 Raman Activ --     4.4450                 4.1080                 1.8202

                    79                     80                     81
                     A                      A                      A
 Frequencies --  1212.7218              1219.2806              1220.9437
 Red. masses --     1.3210                 1.1950                 1.3060
 Frc consts  --     1.1446                 1.0467                 1.1471
 IR Inten    --    11.9849                13.6163                23.1939
 Raman Activ --     0.7166                 1.9578                 0.4527

                    82                     83                     84
                     A                      A                      A
 Frequencies --  1236.5479              1248.3330              1271.7159
 Red. masses --     1.1835                 1.3296                 1.3898
 Frc consts  --     1.0662                 1.2207                 1.3242
 IR Inten    --     4.0520                37.8051                 7.0324
 Raman Activ --     1.9979                 2.7869                 4.4702

                    85                     86                     87
                     A                      A                      A
 Frequencies --  1274.0900              1284.5256              1287.1127
 Red. masses --     1.2407                 1.3730                 1.2923
 Frc consts  --     1.1866                 1.3347                 1.2614
 IR Inten    --     3.8147                24.7298                 5.7674
 Raman Activ --     5.4979                 3.6697                 1.7256

                    88                     89                     90
                     A                      A                      A
 Frequencies --  1301.6730              1307.1016              1310.1636
 Red. masses --     1.2897                 1.3263                 1.3122
 Frc consts  --     1.2875                 1.3351                 1.3271
 IR Inten    --    22.8505                11.7261                39.2747
 Raman Activ --     2.2891                 8.4944                14.9651

                    91                     92                     93
                     A                      A                      A
 Frequencies --  1316.3962              1324.5103              1330.1293
 Red. masses --     1.2490                 1.3589                 1.5185
 Frc consts  --     1.2752                 1.4046                 1.5829
 IR Inten    --    17.5870                79.0769                27.5020
 Raman Activ --     4.3268                13.4450                 6.9925

                    94                     95                     96
                     A                      A                      A
 Frequencies --  1338.8180              1352.3590              1363.7687
 Red. masses --     1.1419                 1.1946                 1.4742
 Frc consts  --     1.2059                 1.2873                 1.6154
 IR Inten    --    56.6195                39.5449                 2.4328
 Raman Activ --     4.0420                 2.9174                 9.0182

                    97                     98                     99
                     A                      A                      A
 Frequencies --  1366.6720              1374.7822              1408.4831
 Red. masses --     1.4202                 1.6318                 1.4473
 Frc consts  --     1.5629                 1.8171                 1.6916
 IR Inten    --     5.7051                11.4248                17.3756
 Raman Activ --     2.9521                 5.9518                 9.8356

                   100                    101                    102
                     A                      A                      A
 Frequencies --  1411.5638              1433.2789              1441.2428
 Red. masses --     1.2888                 1.4534                 1.3066
 Frc consts  --     1.5130                 1.7592                 1.5990
 IR Inten    --     2.0678                47.6779                25.5422
 Raman Activ --     4.2831                 2.5519                 1.3216

                   103                    104                    105
                     A                      A                      A
 Frequencies --  1457.7530              1467.8013              1474.0195
 Red. masses --     1.3318                 1.3768                 1.1154
 Frc consts  --     1.6675                 1.7477                 1.4279
 IR Inten    --    14.3099                34.7029                 6.9949
 Raman Activ --     2.6862                 5.7395                 2.9789

                   106                    107                    108
                     A                      A                      A
 Frequencies --  1474.7163              1540.9025              3200.3629
 Red. masses --     1.3762                 1.1977                 1.0480
 Frc consts  --     1.7634                 1.6755                 6.3241
 IR Inten    --   103.4901                53.6392                 2.1514
 Raman Activ --     7.7140                 1.6020               174.7114

                   109                    110                    111
                     A                      A                      A
 Frequencies --  3228.4456              3256.5512              3262.7347
 Red. masses --     1.0761                 1.0590                 1.0792
 Frc consts  --     6.6085                 6.6171                 6.7690
 IR Inten    --    58.3080                20.1027                16.0205
 Raman Activ --    35.5950                40.9255               189.7579

                   112                    113                    114
                     A                      A                      A
 Frequencies --  3264.5275              3271.9676              3275.9097
 Red. masses --     1.0711                 1.0809                 1.0755
 Frc consts  --     6.7253                 6.8177                 6.8003
 IR Inten    --    93.0682               166.5007               742.4267
 Raman Activ --   268.8179                62.7047                32.9783

                   115                    116                    117
                     A                      A                      A
 Frequencies --  3284.5661              3288.7109              3292.7520
 Red. masses --     1.0812                 1.0842                 1.0837
 Frc consts  --     6.8726                 6.9089                 6.9225
 IR Inten    --   174.4639                82.8477               128.5052
 Raman Activ --    61.7578                44.4220                12.1406

                   118                    119                    120
                     A                      A                      A
 Frequencies --  3296.1468              3296.7034              3308.3014
 Red. masses --     1.0855                 1.0859                 1.0883
 Frc consts  --     6.9487                 6.9537                 7.0182
 IR Inten    --    71.0135                26.8274                24.4369
 Raman Activ --   105.9611                56.6081                20.6767

                   121                    122                    123
                     A                      A                      A
 Frequencies --  3312.0194              3313.9060              3348.6062
 Red. masses --     1.0874                 1.1024                 1.0691
 Frc consts  --     7.0277                 7.1327                 7.0629
 IR Inten    --    31.9760                83.4585               187.1918
 Raman Activ --    14.8687                29.9028               200.1962

                   124                    125                    126
                     A                      A                      A
 Frequencies --  3362.2604              3365.2804              3370.8353
 Red. masses --     1.0655                 1.0654                 1.0685
 Frc consts  --     7.0966                 7.1090                 7.1532
 IR Inten    --    48.0078                22.5654                51.4963
 Raman Activ --    94.9101               153.9440               163.1091

                   127                    128                    129
                     A                      A                      A
 Frequencies --  3406.9956              3891.5237              3891.6462
 Red. masses --     1.1017                 1.0676                 1.0676
 Frc consts  --     7.5346                 9.5254                 9.5263
 IR Inten    --   219.8057               137.5712                32.7582
 Raman Activ --    23.9860                45.7296               180.9829

 - Thermochemistry -
 -------------------
 Temperature   298.150 Kelvin.  Pressure   1.00000 Atm.
 Atom     1 has atomic number  8 and mass  15.99491

 Molecular mass:   342.11621 amu.
 Principal axes and moments of inertia in atomic units:
                           1         2         3
     Eigenvalues --  4376.72072********************
           X            0.99999  -0.00484  -0.00098
           Y            0.00484   0.99999   0.00047
           Z            0.00098  -0.00047   1.00000
 This molecule is an asymmetric top.
 Rotational symmetry number  1.
 Warning -- assumption of classical behavior for rotation
           may cause significant error
 Rotational temperatures (Kelvin)      0.01979     0.00708     0.00533
 Rotational constants (GHZ):           0.41235     0.14747     0.11116
   10 imaginary frequencies ignored.
 Zero-point vibrational energy     948219.3 (Joules/Mol)
                                  226.62986 (Kcal/Mol)
 Warning -- explicit consideration of  32 degrees of freedom as
           vibrations may cause significant error
 Vibrational temperatures:     59.80    97.83   123.73   147.35   164.01
          (Kelvin)            213.47   262.62   271.36   293.84   317.44
                              385.67   405.76   420.10   435.78   451.49
                              453.77   468.12   473.26   528.04   546.98
                              582.77   607.88   618.34   636.62   689.36
                              701.29   726.90   760.65   787.36   823.07
                              851.65   876.60   901.97   912.03   974.03
                              986.19  1089.24  1102.27  1142.60  1172.41
                             1225.60  1227.04  1326.28  1336.25  1377.34
                             1398.70  1406.54  1420.10  1430.84  1454.19
                             1461.87  1504.98  1527.28  1534.29  1540.97
                             1546.49  1555.48  1562.18  1590.86  1592.77
                             1617.99  1631.42  1637.68  1644.22  1653.08
                             1665.89  1681.41  1719.02  1744.83  1754.27
                             1756.66  1779.11  1796.07  1829.71  1833.13
                             1848.14  1851.87  1872.81  1880.63  1885.03
                             1894.00  1905.67  1913.76  1926.26  1945.74
                             1962.16  1966.33  1978.00  2026.49  2030.92
                             2062.17  2073.62  2097.38  2111.84  2120.78
                             2121.79  2217.01  4604.60  4645.01  4685.45
                             4694.34  4696.92  4707.63  4713.30  4725.75
                             4731.72  4737.53  4742.41  4743.21  4759.90
                             4765.25  4767.97  4817.89  4837.54  4841.88
                             4849.87  4901.90  5599.03  5599.20

 Zero-point correction=                           0.361158 (Hartree/Particle)
 Thermal correction to Energy=                    0.379525
 Thermal correction to Enthalpy=                  0.380469
 Thermal correction to Gibbs Free Energy=         0.315697
 Sum of electronic and zero-point Energies=          -1297.341234
 Sum of electronic and thermal Energies=             -1297.322867
 Sum of electronic and thermal Enthalpies=           -1297.321923
 Sum of electronic and thermal Free Energies=        -1297.386694

                     E (Thermal)             CV                S
                      KCal/Mol        Cal/Mol-Kelvin    Cal/Mol-Kelvin
 Total                  238.155             75.993            136.323
 Electronic               0.000              0.000              0.000
 Translational            0.889              2.981             43.384
 Rotational               0.889              2.981             35.118
 Vibrational            236.378             70.032             57.820
 Vibration     1          0.594              1.981              5.183
 Vibration     2          0.598              1.969              4.211
 Vibration     3          0.601              1.959              3.749
 Vibration     4          0.604              1.947              3.408
 Vibration     5          0.607              1.938              3.200
 Vibration     6          0.618              1.904              2.693
 Vibration     7          0.630              1.864              2.302
 Vibration     8          0.633              1.856              2.241
 Vibration     9          0.640              1.834              2.095
 Vibration    10          0.647              1.810              1.954
 Vibration    11          0.673              1.732              1.609
 Vibration    12          0.681              1.707              1.521
 Vibration    13          0.687              1.689              1.462
 Vibration    14          0.694              1.668              1.401
 Vibration    15          0.702              1.647              1.342
 Vibration    16          0.703              1.644              1.334
 Vibration    17          0.709              1.625              1.283
 Vibration    18          0.712              1.618              1.265
 Vibration    19          0.740              1.540              1.092
 Vibration    20          0.750              1.512              1.039
 Vibration    21          0.770              1.459              0.944
 Vibration    22          0.785              1.421              0.884
 Vibration    23          0.791              1.405              0.859
 Vibration    24          0.802              1.377              0.819
 Vibration    25          0.836              1.296              0.712
 Vibration    26          0.843              1.278              0.690
 Vibration    27          0.860              1.238              0.645
 Vibration    28          0.884              1.187              0.590
 Vibration    29          0.902              1.146              0.550
 Vibration    30          0.928              1.092              0.500
 Vibration    31          0.949              1.049              0.464
 Vibration    32          0.968              1.012              0.434

 Normal termination of Gaussian 09 at Sun Mar 27 11:52:22 2016.
