 Gaussian 09, Revision B.01,
 Gaussian 09:  EM64L-G09RevB.01 12-Aug-2010

 -------------------------------------------------
 # freq=raman b3lyp/6-31+g(2d,p) geom=connectivity
 -------------------------------------------------

 -----------------
 550 6233/6233.com
 -----------------
 Symbolic Z-matrix:
 Charge =  0 Multiplicity = 1

                         Standard orientation:
 ---------------------------------------------------------------------
 Center     Atomic      Atomic             Coordinates (Angstroms)
 Number     Number       Type             X           Y           Z
 ---------------------------------------------------------------------
      1          8           0       -5.041088    0.547548   -0.604212
      2          6           0       -3.869113    0.231374    0.160731
      3          6           0       -3.412488   -1.104501   -0.405400
      4          8           0       -4.358793   -2.087022    0.038532
      5          1           0       -5.307559   -1.768819    0.014664
      6          6           0       -2.005698   -1.541412   -0.031572
      7          8           0       -1.425011   -2.755631   -0.530026
      8          1           0       -2.093977   -3.493440   -0.447824
      9          6           0       -2.905434    2.618675    0.270486
     10          8           0       -2.059946    3.775845    0.218308
     11          1           0       -2.435957    4.689744    0.372615
     12          6           0       -2.724817    1.174837   -0.171398
     13          8           0       -1.521322    0.645065    0.402715
     14          6           0       -0.928180   -0.491224   -0.244565
     15          8           0        0.160801   -0.625692    0.679677
     16          6           0        1.499126   -0.299200    0.279772
     17          6           0        2.020278    1.126503    0.369788
     18          8           0        0.917495    2.043173    0.409371
     19          1           0        0.092267    1.479377    0.368761
     20          6           0        3.233444    1.314976   -0.526001
     21          8           0        3.640196    2.684334   -0.658318
     22          1           0        3.008698    3.113122   -1.305071
     23          6           0        2.158759   -2.695056    0.677232
     24          8           0        1.641132   -3.204945   -0.560105
     25          1           0        0.723453   -2.861509   -0.761797
     26          6           0        2.506095   -1.236560    0.925069
     27          8           0        3.705120   -0.966605    0.183830
     28          6           0        4.240097    0.361901    0.098061
     29          8           0        5.351160    0.342871   -0.809885
     30          1           0        6.056911   -0.193103   -0.440769
     31          1           0        4.545540    0.711320    1.062172
     32          1           0        2.988496    0.948317   -1.500918
     33          1           0        2.431110    1.193464    1.355502
     34          1           0        1.530286   -0.531529   -0.764236
     35          1           0        2.631612   -1.027943    1.967002
     36          1           0        1.447855   -2.963771    1.430430
     37          1           0        3.050134   -3.251602    0.878743
     38          1           0       -5.819728    0.224204   -0.145118
     39          1           0       -3.797229    2.930433   -0.231916
     40          1           0       -3.166555    2.538935    1.305067
     41          1           0       -2.605291    1.175616   -1.234701
     42          1           0       -4.066398    0.179721    1.211116
     43          1           0       -3.467632   -1.047653   -1.472465
     44          1           0       -2.050557   -1.680779    1.028364
     45          1           0       -0.645846   -0.317518   -1.261921
 ---------------------------------------------------------------------

 SCF Done:  E(RB3LYP) =  -1297.92528347     A.U. after   14 cycles

 The electronic state is 1-A.
 Alpha  occ. eigenvalues --  -19.19880 -19.18864 -19.18677 -19.18527 -19.18249
 Alpha  occ. eigenvalues --  -19.15849 -19.15530 -19.15489 -19.15021 -19.14046
 Alpha  occ. eigenvalues --  -19.13118 -10.32227 -10.29108 -10.28137 -10.27385
 Alpha  occ. eigenvalues --  -10.27304 -10.26760 -10.24810 -10.24642 -10.24429
 Alpha  occ. eigenvalues --  -10.23666 -10.22658 -10.22357  -1.11214  -1.08481
 Alpha  occ. eigenvalues --   -1.07036  -1.05714  -1.04338  -1.03989  -1.01865
 Alpha  occ. eigenvalues --   -1.01770  -1.01000  -1.00015  -0.99545  -0.83274
 Alpha  occ. eigenvalues --   -0.81869  -0.79154  -0.78409  -0.72785  -0.70063
 Alpha  occ. eigenvalues --   -0.68412  -0.65049  -0.63556  -0.62919  -0.61473
 Alpha  occ. eigenvalues --   -0.60364  -0.57967  -0.56850  -0.56154  -0.54290
 Alpha  occ. eigenvalues --   -0.53468  -0.53251  -0.53105  -0.52290  -0.51039
 Alpha  occ. eigenvalues --   -0.50179  -0.49396  -0.49066  -0.48534  -0.47534
 Alpha  occ. eigenvalues --   -0.46670  -0.45174  -0.44117  -0.43493  -0.43362
 Alpha  occ. eigenvalues --   -0.43117  -0.42235  -0.40631  -0.40356  -0.39932
 Alpha  occ. eigenvalues --   -0.39400  -0.38014  -0.37147  -0.36793  -0.35985
 Alpha  occ. eigenvalues --   -0.34738  -0.34316  -0.33857  -0.33115  -0.32396
 Alpha  occ. eigenvalues --   -0.32092  -0.31787  -0.30528  -0.30457  -0.30250
 Alpha  occ. eigenvalues --   -0.29731  -0.28271  -0.28032  -0.27569  -0.26558
 Alpha  occ. eigenvalues --   -0.25077
 Alpha virt. eigenvalues --   -0.04721  -0.01826  -0.01045  -0.00342   0.00603
 Alpha virt. eigenvalues --    0.00810   0.01544   0.02043   0.02470   0.03108
 Alpha virt. eigenvalues --    0.03602   0.04367   0.04839   0.05275   0.05759

 Mulliken atomic charges:
              1
     1  O   -0.519775
     2  C   -0.170951
     3  C    0.278076
     4  O   -0.577128
     5  H    0.315203
     6  C    0.053379
     7  O   -0.591902
     8  H    0.359783
     9  C   -0.519271
    10  O   -0.539909
    11  H    0.355744
    12  C    0.456469
    13  O   -0.224238
    14  C    0.127392
    15  O   -0.300231
    16  C    0.026057
    17  C    0.239948
    18  O   -0.606457
    19  H    0.406117
    20  C   -0.114947
    21  O   -0.516591
    22  H    0.340972
    23  C   -0.317006
    24  O   -0.486114
    25  H    0.358076
    26  C    0.138591
    27  O   -0.287414
    28  C    0.347431
    29  O   -0.501607
    30  H    0.321368
    31  H    0.126601
    32  H    0.116704
    33  H    0.083500
    34  H    0.112453
    35  H    0.124426
    36  H    0.142182
    37  H    0.148179
    38  H    0.320456
    39  H    0.151849
    40  H    0.131437
    41  H    0.115321
    42  H    0.144857
    43  H    0.135079
    44  H    0.142447
    45  H    0.153444
 Sum of Mulliken atomic charges =   0.00000

 Dipole moment (field-independent basis, Debye):
    X=             -8.2143    Y=             -0.4030    Z=              1.5925  Tot=              8.3769
 Quadrupole moment (field-independent basis, Debye-Ang):
   XX=           -112.1044   YY=           -146.5684   ZZ=           -136.8345
   XY=             -7.3156   XZ=              5.3304   YZ=             -5.6978

  Exact polarizability: 230.140   3.139 200.033  -0.217  -1.790 147.586
 Approx polarizability: 275.630   2.694 261.633  -0.211  -1.435 243.050

 ******    7 imaginary frequencies (negative Signs) ******

                     1                      2                      3
                     A                      A                      A
 Frequencies --  -400.5532              -254.4833              -205.7667
 Red. masses --     1.5920                 1.2244                 1.5496
 Frc consts  --     0.1505                 0.0467                 0.0387
 IR Inten    --     8.2902                98.9495                 2.0085
 Raman Activ --     0.0891                 0.7700                 0.0882

                     4                      5                      6
                     A                      A                      A
 Frequencies --  -104.8535               -69.4188               -64.5354
 Red. masses --     1.3035                 5.8016                 4.7551
 Frc consts  --     0.0084                 0.0165                 0.0117
 IR Inten    --    87.2600                 4.0816                19.6804
 Raman Activ --     1.2091                 0.1165                 0.0915

                     7                      8                      9
                     A                      A                      A
 Frequencies --   -42.3838                46.1075                49.8200
 Red. masses --     6.6822                 6.3061                 7.0180
 Frc consts  --     0.0071                 0.0079                 0.0103
 IR Inten    --     1.9448                 2.0453                 1.6077
 Raman Activ --     0.0749                 0.0793                 0.1109

                    10                     11                     12
                     A                      A                      A
 Frequencies --    61.2075                90.9937               122.1630
 Red. masses --     7.2375                 4.7066                 6.5588
 Frc consts  --     0.0160                 0.0230                 0.0577
 IR Inten    --     1.3002                17.3800                 1.5876
 Raman Activ --     0.0846                 0.4706                 0.6879

                    13                     14                     15
                     A                      A                      A
 Frequencies --   128.3898               145.1448               163.6709
 Red. masses --     6.0424                 5.8527                 6.3628
 Frc consts  --     0.0587                 0.0726                 0.1004
 IR Inten    --     0.0528                 3.4404                 2.0207
 Raman Activ --     0.1613                 0.4401                 0.2933

                    16                     17                     18
                     A                      A                      A
 Frequencies --   180.4087               241.2843               244.2892
 Red. masses --     6.5416                 6.1197                 6.2773
 Frc consts  --     0.1254                 0.2099                 0.2207
 IR Inten    --     1.8758                 1.7399                 2.6040
 Raman Activ --     1.0892                 0.4259                 1.2862

                    19                     20                     21
                     A                      A                      A
 Frequencies --   257.7183               268.6615               272.7466
 Red. masses --     5.8052                 5.7638                 4.8200
 Frc consts  --     0.2272                 0.2451                 0.2113
 IR Inten    --     3.7093                13.3630                12.8574
 Raman Activ --     0.8147                 2.3827                 1.4086

                    22                     23                     24
                     A                      A                      A
 Frequencies --   296.0470               309.8163               339.9399
 Red. masses --     5.4199                 5.2536                 4.9451
 Frc consts  --     0.2799                 0.2971                 0.3367
 IR Inten    --     4.4993                 2.2432                 7.4087
 Raman Activ --     0.8295                 1.2504                 5.6024

                    25                     26                     27
                     A                      A                      A
 Frequencies --   352.9244               366.4201               369.0290
 Red. masses --     4.4539                 7.3028                 3.3056
 Frc consts  --     0.3269                 0.5777                 0.2652
 IR Inten    --    23.6969                 3.9119                 1.2234
 Raman Activ --     1.0841                 6.0865                 0.7278

                    28                     29                     30
                     A                      A                      A
 Frequencies --   396.4576               405.8663               427.7490
 Red. masses --     3.7599                 6.2877                 6.1206
 Frc consts  --     0.3482                 0.6103                 0.6598
 IR Inten    --     4.7072                 8.7990                 1.8738
 Raman Activ --     2.0024                 2.7481                 2.5768

                    31                     32                     33
                     A                      A                      A
 Frequencies --   457.2436               474.2972               489.0427
 Red. masses --     2.9162                 3.6366                 1.9455
 Frc consts  --     0.3592                 0.4820                 0.2741
 IR Inten    --    35.9972                 8.8291                62.6955
 Raman Activ --     0.5194                 1.0148                 3.8820

                    34                     35                     36
                     A                      A                      A
 Frequencies --   503.5689               532.0686               545.5545
 Red. masses --     4.5319                 3.5483                 3.8009
 Frc consts  --     0.6771                 0.5918                 0.6665
 IR Inten    --    16.2080                10.6703                41.9229
 Raman Activ --     6.7176                 1.2630                 3.0576

                    37                     38                     39
                     A                      A                      A
 Frequencies --   560.8132               584.9216               597.5915
 Red. masses --     3.9194                 4.1898                 3.2641
 Frc consts  --     0.7263                 0.8446                 0.6868
 IR Inten    --    26.8847                23.2169                 5.0793
 Raman Activ --     2.3491                 1.1890                 0.3963

                    40                     41                     42
                     A                      A                      A
 Frequencies --   630.7042               655.3500               667.7516
 Red. masses --     3.3695                 1.1548                 3.0158
 Frc consts  --     0.7897                 0.2922                 0.7923
 IR Inten    --    34.1747                88.3365                12.3819
 Raman Activ --     1.4081                 1.8833                 0.9989

                    43                     44                     45
                     A                      A                      A
 Frequencies --   675.5651               698.3744               723.6227
 Red. masses --     1.2144                 3.1956                 1.0748
 Frc consts  --     0.3265                 0.9183                 0.3316
 IR Inten    --    73.8943                20.0344                91.2965
 Raman Activ --     0.7515                 0.7563                 1.6443

                    46                     47                     48
                     A                      A                      A
 Frequencies --   746.0722               766.3743               822.6872
 Red. masses --     1.0941                 1.0615                 2.8088
 Frc consts  --     0.3588                 0.3673                 1.1201
 IR Inten    --    39.8866               102.4004                13.1998
 Raman Activ --     0.1320                 1.3505                 2.0534

                    49                     50                     51
                     A                      A                      A
 Frequencies --   830.4685               873.5033               905.1479
 Red. masses --     3.0284                 2.7595                 5.4494
 Frc consts  --     1.2306                 1.2406                 2.6305
 IR Inten    --     4.8862                10.4073               159.4057
 Raman Activ --     3.7714                 2.8462                 2.3862

                    52                     53                     54
                     A                      A                      A
 Frequencies --   949.4719               953.8124               980.2892
 Red. masses --     6.6263                 4.7289                 5.6776
 Frc consts  --     3.5195                 2.5348                 3.2146
 IR Inten    --   261.5870                43.5154                71.8945
 Raman Activ --     0.5126                 2.1809                 0.9599

                    55                     56                     57
                     A                      A                      A
 Frequencies --   990.5058               997.6730              1016.1411
 Red. masses --     4.7271                 4.8947                 3.5261
 Frc consts  --     2.7325                 2.8704                 2.1451
 IR Inten    --    44.8364               253.4285                30.9973
 Raman Activ --     2.3270                 1.3647                 5.7175

                    58                     59                     60
                     A                      A                      A
 Frequencies --  1030.1168              1037.9491              1048.7249
 Red. masses --     2.9315                 3.1254                 3.4680
 Frc consts  --     1.8328                 1.9839                 2.2472
 IR Inten    --   149.0238               151.1516                97.8074
 Raman Activ --     2.2056                 2.1713                 3.4080

                    61                     62                     63
                     A                      A                      A
 Frequencies --  1049.8366              1052.6865              1061.3412
 Red. masses --     3.9348                 4.3112                 4.2915
 Frc consts  --     2.5552                 2.8148                 2.8482
 IR Inten    --    20.1497               123.7787                75.9155
 Raman Activ --    14.1456                 6.0755                 8.4094

                    64                     65                     66
                     A                      A                      A
 Frequencies --  1080.7560              1088.5082              1098.4201
 Red. masses --     3.2881                 3.5361                 3.5686
 Frc consts  --     2.2628                 2.4685                 2.5368
 IR Inten    --    13.8506                59.0029                 9.1435
 Raman Activ --     2.4813                 8.1256                10.0949

                    67                     68                     69
                     A                      A                      A
 Frequencies --  1115.4524              1120.7932              1129.0242
 Red. masses --     2.7147                 2.3673                 1.7263
 Frc consts  --     1.9901                 1.7520                 1.2965
 IR Inten    --    38.2687                45.2792                13.3474
 Raman Activ --     3.0572                 4.1421                 5.2184

                    70                     71                     72
                     A                      A                      A
 Frequencies --  1141.0091              1148.2247              1160.8926
 Red. masses --     2.7261                 2.6944                 2.1721
 Frc consts  --     2.0911                 2.0930                 1.7247
 IR Inten    --    36.8463               201.1138                 9.8017
 Raman Activ --     1.1593                 1.6498                 4.0970

                    73                     74                     75
                     A                      A                      A
 Frequencies --  1167.0620              1176.0769              1190.7914
 Red. masses --     2.2392                 1.7930                 2.2875
 Frc consts  --     1.7970                 1.4612                 1.9111
 IR Inten    --    32.9380                 5.9705                20.1101
 Raman Activ --     2.7149                 0.8322                 3.1162

                    76                     77                     78
                     A                      A                      A
 Frequencies --  1196.8673              1201.4102              1208.8219
 Red. masses --     1.3619                 1.4399                 1.6326
 Frc consts  --     1.1494                 1.2245                 1.4056
 IR Inten    --     3.8777                16.9583                 3.4316
 Raman Activ --     3.6686                 1.5434                 1.4615

                    79                     80                     81
                     A                      A                      A
 Frequencies --  1230.0513              1240.9371              1242.9668
 Red. masses --     1.3871                 1.2084                 1.2644
 Frc consts  --     1.2365                 1.0964                 1.1510
 IR Inten    --    11.1964                 1.4217                19.6127
 Raman Activ --     0.6282                 5.5937                 4.6888

                    82                     83                     84
                     A                      A                      A
 Frequencies --  1256.5079              1271.7096              1274.2824
 Red. masses --     1.3607                 1.2812                 1.1726
 Frc consts  --     1.2658                 1.2208                 1.1218
 IR Inten    --    27.9191                17.5785                25.2064
 Raman Activ --     1.0016                 4.9326                 3.9685

                    85                     86                     87
                     A                      A                      A
 Frequencies --  1295.9701              1298.5830              1309.1585
 Red. masses --     1.3822                 1.2575                 1.4009
 Frc consts  --     1.3678                 1.2494                 1.4146
 IR Inten    --     4.6428                14.5819                25.5005
 Raman Activ --     0.9596                 1.4541                 4.4949

                    88                     89                     90
                     A                      A                      A
 Frequencies --  1312.6985              1324.9646              1333.4012
 Red. masses --     1.3214                 1.3059                 1.4590
 Frc consts  --     1.3416                 1.3507                 1.5283
 IR Inten    --    19.6368                18.9719                 7.8519
 Raman Activ --     7.9363                 2.9728                 2.5583

                    91                     92                     93
                     A                      A                      A
 Frequencies --  1340.8444              1356.9488              1375.2767
 Red. masses --     1.1898                 1.7364                 1.2184
 Frc consts  --     1.2603                 1.8838                 1.3578
 IR Inten    --    28.5427                 0.8486                57.0443
 Raman Activ --     3.2974                 3.4782                 2.5236

                    94                     95                     96
                     A                      A                      A
 Frequencies --  1377.8451              1379.7529              1380.3391
 Red. masses --     1.3062                 1.3578                 1.3036
 Frc consts  --     1.4611                 1.5229                 1.4634
 IR Inten    --     3.6309                 4.7945                21.2552
 Raman Activ --     1.9921                 3.2649                 5.5414

                    97                     98                     99
                     A                      A                      A
 Frequencies --  1386.4729              1407.6937              1431.4352
 Red. masses --     1.4373                 1.5208                 1.0963
 Frc consts  --     1.6279                 1.7756                 1.3235
 IR Inten    --     6.7299                19.2245                 3.3927
 Raman Activ --     8.6142                 2.7360                 2.0491

                   100                    101                    102
                     A                      A                      A
 Frequencies --  1433.1524              1439.0935              1444.2089
 Red. masses --     1.0991                 1.1875                 1.0725
 Frc consts  --     1.3300                 1.4490                 1.3180
 IR Inten    --     5.9370                 2.3467                 3.9708
 Raman Activ --     6.6025                 3.8306                 4.4998

                   103                    104                    105
                     A                      A                      A
 Frequencies --  1447.3331              1450.8657              1451.6006
 Red. masses --     1.2117                 1.1658                 1.3631
 Frc consts  --     1.4955                 1.4459                 1.6923
 IR Inten    --     1.6216                27.4049                75.2080
 Raman Activ --     0.4994                 2.0050                 2.6022

                   106                    107                    108
                     A                      A                      A
 Frequencies --  1473.9908              1516.4425              3235.4856
 Red. masses --     1.3991                 1.1999                 1.0798
 Frc consts  --     1.7910                 1.6257                 6.6597
 IR Inten    --    25.8747                91.1763                75.9875
 Raman Activ --     2.6368                 3.1574                72.9408

                   109                    110                    111
                     A                      A                      A
 Frequencies --  3248.7720              3261.4053              3265.1015
 Red. masses --     1.0618                 1.0795                 1.0656
 Frc consts  --     6.6031                 6.7652                 6.6934
 IR Inten    --    43.7634                16.3142                16.5752
 Raman Activ --   112.1930                 9.5151                91.9502

                   112                    113                    114
                     A                      A                      A
 Frequencies --  3267.3302              3273.6363              3276.7102
 Red. masses --     1.0816                 1.0816                 1.0833
 Frc consts  --     6.8032                 6.8295                 6.8531
 IR Inten    --     8.2407                 2.5588                 0.5597
 Raman Activ --    18.0779               137.1694               141.8254

                   115                    116                    117
                     A                      A                      A
 Frequencies --  3286.6008              3289.2319              3294.7792
 Red. masses --     1.0850                 1.0863                 1.0946
 Frc consts  --     6.9051                 6.9243                 7.0007
 IR Inten    --    11.1397                43.1757               127.6821
 Raman Activ --     6.4096                12.5407                18.8116

                   118                    119                    120
                     A                      A                      A
 Frequencies --  3295.3700              3299.9808              3307.0135
 Red. masses --     1.0858                 1.0746                 1.0841
 Frc consts  --     6.9471                 6.8950                 6.9853
 IR Inten    --    61.3194               314.2590               101.3751
 Raman Activ --   154.9487                75.8872                99.0071

                   121                    122                    123
                     A                      A                      A
 Frequencies --  3311.0819              3319.5426              3352.9330
 Red. masses --     1.0869                 1.1013                 1.0661
 Frc consts  --     7.0209                 7.1499                 7.0618
 IR Inten    --    91.7689                78.7619                38.7194
 Raman Activ --    15.4485               121.5499               149.3230

                   124                    125                    126
                     A                      A                      A
 Frequencies --  3355.2527              3366.1472              3371.3436
 Red. masses --     1.0687                 1.0695                 1.0667
 Frc consts  --     7.0887                 7.1397                 7.1434
 IR Inten    --   147.2988               104.8839                50.5908
 Raman Activ --    74.2007               200.2205                84.0618

                   127                    128                    129
                     A                      A                      A
 Frequencies --  3386.1727              3879.8842              3887.2609
 Red. masses --     1.0662                 1.0674                 1.0665
 Frc consts  --     7.2028                 9.4671                 9.4949
 IR Inten    --    49.8683                46.7018                45.8321
 Raman Activ --   117.7477               119.5891               154.5447

 - Thermochemistry -
 -------------------
 Temperature   298.150 Kelvin.  Pressure   1.00000 Atm.
 Atom     1 has atomic number  8 and mass  15.99491

 Molecular mass:   342.11621 amu.
 Principal axes and moments of inertia in atomic units:
                           1         2         3
     Eigenvalues --  4606.23658********************
           X            0.99997  -0.00716   0.00160
           Y            0.00717   0.99997  -0.00377
           Z           -0.00158   0.00378   0.99999
 This molecule is an asymmetric top.
 Rotational symmetry number  1.
 Warning -- assumption of classical behavior for rotation
           may cause significant error
 Rotational temperatures (Kelvin)      0.01880     0.00746     0.00558
 Rotational constants (GHZ):           0.39180     0.15550     0.11634
    7 imaginary frequencies ignored.
 Zero-point vibrational energy     968890.2 (Joules/Mol)
                                  231.57033 (Kcal/Mol)
 Warning -- explicit consideration of  32 degrees of freedom as
           vibrations may cause significant error
 Vibrational temperatures:     66.34    71.68    88.06   130.92   175.77
          (Kelvin)            184.72   208.83   235.49   259.57   347.15
                              351.48   370.80   386.54   392.42   425.95
                              445.76   489.10   507.78   527.20   530.95
                              570.41   583.95   615.43   657.87   682.41
                              703.62   724.52   765.53   784.93   806.88
                              841.57   859.80   907.44   942.90   960.74
                              971.99  1004.80  1041.13  1073.43  1102.64
                             1183.66  1194.86  1256.77  1302.30  1366.08
                             1372.32  1410.42  1425.12  1435.43  1462.00
                             1482.11  1493.38  1508.88  1510.48  1514.58
                             1527.03  1554.96  1566.12  1580.38  1604.89
                             1612.57  1624.41  1641.66  1652.04  1670.26
                             1679.14  1692.11  1713.28  1722.02  1728.56
                             1739.22  1769.77  1785.43  1788.35  1807.83
                             1829.70  1833.41  1864.61  1868.37  1883.58
                             1888.68  1906.33  1918.46  1929.17  1952.34
                             1978.71  1982.41  1985.15  1986.00  1994.82
                             2025.35  2059.51  2061.98  2070.53  2077.89
                             2082.39  2087.47  2088.53  2120.74  2181.82
                             4655.14  4674.25  4692.43  4697.75  4700.95
                             4710.03  4714.45  4728.68  4732.47  4740.45
                             4741.30  4747.93  4758.05  4763.90  4776.08
                             4824.12  4827.45  4843.13  4850.61  4871.94
                             5582.28  5592.89

 Zero-point correction=                           0.369031 (Hartree/Particle)
 Thermal correction to Energy=                    0.387921
 Thermal correction to Enthalpy=                  0.388865
 Thermal correction to Gibbs Free Energy=         0.322545
 Sum of electronic and zero-point Energies=          -1297.556253
 Sum of electronic and thermal Energies=             -1297.537363
 Sum of electronic and thermal Enthalpies=           -1297.536419
 Sum of electronic and thermal Free Energies=        -1297.602739

                     E (Thermal)             CV                S
                      KCal/Mol        Cal/Mol-Kelvin    Cal/Mol-Kelvin
 Total                  243.424             77.339            139.582
 Electronic               0.000              0.000              0.000
 Translational            0.889              2.981             43.384
 Rotational               0.889              2.981             35.071
 Vibrational            241.646             71.377             61.126
 Vibration     1          0.595              1.979              4.978
 Vibration     2          0.595              1.978              4.825
 Vibration     3          0.597              1.973              4.418
 Vibration     4          0.602              1.956              3.639
 Vibration     5          0.610              1.931              3.066
 Vibration     6          0.611              1.925              2.970
 Vibration     7          0.617              1.908              2.735
 Vibration     8          0.623              1.887              2.507
 Vibration     9          0.629              1.866              2.324
 Vibration    10          0.658              1.777              1.793
 Vibration    11          0.660              1.772              1.771
 Vibration    12          0.667              1.750              1.677
 Vibration    13          0.673              1.731              1.605
 Vibration    14          0.676              1.724              1.579
 Vibration    15          0.690              1.681              1.439
 Vibration    16          0.699              1.655              1.363
 Vibration    17          0.720              1.596              1.212
 Vibration    18          0.729              1.569              1.153
 Vibration    19          0.739              1.541              1.095
 Vibration    20          0.741              1.536              1.084
 Vibration    21          0.763              1.478              0.976
 Vibration    22          0.771              1.457              0.941
 Vibration    23          0.789              1.410              0.866
 Vibration    24          0.815              1.345              0.774
 Vibration    25          0.831              1.307              0.726
 Vibration    26          0.845              1.274              0.686
 Vibration    27          0.859              1.242              0.649
 Vibration    28          0.887              1.179              0.583
 Vibration    29          0.901              1.149              0.553
 Vibration    30          0.916              1.116              0.522
 Vibration    31          0.942              1.064              0.476
 Vibration    32          0.956              1.037              0.454

 Normal termination of Gaussian 09 at Sun Apr  3 00:35:02 2016.
