 Gaussian 09, Revision B.01,
 Gaussian 09:  EM64L-G09RevB.01 12-Aug-2010

 -------------------------------------------------
 # freq=raman b3lyp/6-31+g(2d,p) geom=connectivity
 -------------------------------------------------

 -----------------
 320 5683/5683.com
 -----------------
 Symbolic Z-matrix:
 Charge =  0 Multiplicity = 1

                         Standard orientation:
 ---------------------------------------------------------------------
 Center     Atomic      Atomic             Coordinates (Angstroms)
 Number     Number       Type             X           Y           Z
 ---------------------------------------------------------------------
      1          8           0       -4.948769   -0.253872    0.633108
      2          6           0       -3.701687   -0.091387   -0.057177
      3          6           0       -3.152929    1.271624    0.334127
      4          8           0       -4.035637    2.385529    0.136606
      5          1           0       -4.983044    2.093009    0.266207
      6          6           0       -1.820111    1.485645   -0.364365
      7          8           0       -1.365681    2.817222   -0.086181
      8          1           0       -0.389402    2.993992   -0.214660
      9          6           0       -3.183374   -2.519724   -0.301761
     10          8           0       -4.272383   -3.233691    0.301101
     11          1           0       -4.072777   -4.212614    0.256001
     12          6           0       -2.715792   -1.197032    0.283705
     13          8           0       -1.495192   -0.882278   -0.401484
     14          6           0       -0.890505    0.348220    0.024304
     15          8           0        0.350537    0.471345   -0.685147
     16          6           0        1.518959    0.129682    0.075098
     17          6           0        1.988708   -1.249535   -0.356691
     18          8           0        1.017828   -2.280335   -0.128197
     19          1           0        0.132840   -1.991829   -0.495221
     20          6           0        3.424143   -1.532381    0.056640
     21          8           0        3.974191   -2.753238   -0.459258
     22          1           0        4.716022   -2.973079    0.174495
     23          6           0        2.220581    2.593763    0.204618
     24          8           0        1.136222    3.328574   -0.381200
     25          1           0        1.314120    4.301941   -0.526621
     26          6           0        2.556323    1.187847   -0.264725
     27          8           0        3.812416    0.873123    0.352825
     28          6           0        4.423278   -0.387143    0.038839
     29          8           0        5.470837   -0.400754    1.018903
     30          1           0        6.318203   -0.505883    0.580133
     31          1           0        3.103315    3.184739    0.076447
     32          1           0        2.025592    2.533931    1.254999
     33          1           0        2.690961    1.204864   -1.326084
     34          1           0        1.300706    0.141261    1.122538
     35          1           0        2.040281   -1.182836   -1.423364
     36          1           0        3.325707   -1.739077    1.101861
     37          1           0        4.861561   -0.327140   -0.935434
     38          1           0       -5.645653   -0.431812   -0.002729
     39          1           0       -2.339666   -3.177776   -0.306637
     40          1           0       -3.453325   -2.335282   -1.320588
     41          1           0       -2.560878   -1.270576    1.339874
     42          1           0       -3.884360   -0.102619   -1.111409
     43          1           0       -2.947724    1.228587    1.383383
     44          1           0       -1.990135    1.416957   -1.418535
     45          1           0       -0.722867    0.340778    1.081064
 ---------------------------------------------------------------------

 SCF Done:  E(RB3LYP) =  -1297.98175297     A.U. after   13 cycles

 The electronic state is 1-A.
 Alpha  occ. eigenvalues --  -19.19111 -19.18472 -19.18378 -19.18192 -19.17578
 Alpha  occ. eigenvalues --  -19.16956 -19.16492 -19.16441 -19.14839 -19.14392
 Alpha  occ. eigenvalues --  -19.11445 -10.31248 -10.30323 -10.26178 -10.25749
 Alpha  occ. eigenvalues --  -10.25704 -10.25702 -10.25405 -10.24975 -10.24655
 Alpha  occ. eigenvalues --  -10.24290 -10.23189 -10.23151  -1.09929  -1.09196
 Alpha  occ. eigenvalues --   -1.05845  -1.05134  -1.04132  -1.03859  -1.02893
 Alpha  occ. eigenvalues --   -1.02711  -1.01300  -1.00902  -0.98177  -0.82339
 Alpha  occ. eigenvalues --   -0.80046  -0.79853  -0.78453  -0.72262  -0.69880
 Alpha  occ. eigenvalues --   -0.67379  -0.64800  -0.64057  -0.62477  -0.61178
 Alpha  occ. eigenvalues --   -0.60008  -0.56904  -0.56252  -0.55517  -0.54545
 Alpha  occ. eigenvalues --   -0.53926  -0.53437  -0.53211  -0.52262  -0.51055
 Alpha  occ. eigenvalues --   -0.50794  -0.49649  -0.49546  -0.48350  -0.46662
 Alpha  occ. eigenvalues --   -0.46022  -0.45345  -0.44903  -0.43610  -0.43490
 Alpha  occ. eigenvalues --   -0.43004  -0.41492  -0.40719  -0.39759  -0.38594
 Alpha  occ. eigenvalues --   -0.38343  -0.38131  -0.37490  -0.36437  -0.35523
 Alpha  occ. eigenvalues --   -0.35453  -0.34756  -0.34371  -0.33985  -0.33532
 Alpha  occ. eigenvalues --   -0.32874  -0.31606  -0.30777  -0.30288  -0.29410
 Alpha  occ. eigenvalues --   -0.28991  -0.28822  -0.27977  -0.27200  -0.26625
 Alpha  occ. eigenvalues --   -0.25544
 Alpha virt. eigenvalues --   -0.02083  -0.01919  -0.01767  -0.00279   0.00178
 Alpha virt. eigenvalues --    0.00680   0.01768   0.01977   0.02468   0.03521
 Alpha virt. eigenvalues --    0.03725   0.04486   0.05191   0.05398   0.05453

 Mulliken atomic charges:
              1
     1  O   -0.541401
     2  C   -0.174497
     3  C    0.311437
     4  O   -0.561185
     5  H    0.343704
     6  C   -0.019230
     7  O   -0.636095
     8  H    0.456241
     9  C   -0.297257
    10  O   -0.531893
    11  H    0.338163
    12  C    0.256622
    13  O   -0.274825
    14  C    0.169887
    15  O   -0.218482
    16  C    0.409467
    17  C   -0.010324
    18  O   -0.551509
    19  H    0.374575
    20  C    0.109432
    21  O   -0.521263
    22  H    0.332152
    23  C   -0.271864
    24  O   -0.586966
    25  H    0.367256
    26  C   -0.071921
    27  O   -0.209509
    28  C    0.085230
    29  O   -0.500633
    30  H    0.331850
    31  H    0.147691
    32  H    0.159697
    33  H    0.120818
    34  H    0.111057
    35  H    0.113549
    36  H    0.128688
    37  H    0.121760
    38  H    0.338428
    39  H    0.137418
    40  H    0.139963
    41  H    0.120818
    42  H    0.117227
    43  H    0.104338
    44  H    0.115098
    45  H    0.116288
 Sum of Mulliken atomic charges =   0.00000

 Dipole moment (field-independent basis, Debye):
    X=              3.2803    Y=             -0.5226    Z=             -1.4648  Tot=              3.6303
 Quadrupole moment (field-independent basis, Debye-Ang):
   XX=           -116.1619   YY=           -135.9329   ZZ=           -141.4635
   XY=             17.0624   XZ=              3.9027   YZ=             -2.9394

  Exact polarizability: 234.676  -0.948 198.656   1.271   0.039 144.895
 Approx polarizability: 274.968  -0.486 259.007   2.355  -0.827 240.945

 ******    8 imaginary frequencies (negative Signs) ******

                     1                      2                      3
                     A                      A                      A
 Frequencies --  -271.4241              -263.7740              -225.4981
 Red. masses --     1.7080                 1.7297                 1.2168
 Frc consts  --     0.0741                 0.0709                 0.0365
 IR Inten    --    13.0717                 2.2147                93.4554
 Raman Activ --     0.1115                 0.0230                 0.7290

                     4                      5                      6
                     A                      A                      A
 Frequencies --  -196.4506               -78.6583               -67.4469
 Red. masses --     1.2106                 7.6952                 6.5489
 Frc consts  --     0.0275                 0.0281                 0.0176
 IR Inten    --    92.2753                 1.7947                 0.6901
 Raman Activ --     0.6426                 0.0376                 0.0294

                     7                      8                      9
                     A                      A                      A
 Frequencies --   -43.7180               -16.3512                58.2305
 Red. masses --     6.0624                 5.9050                 6.1570
 Frc consts  --     0.0068                 0.0009                 0.0123
 IR Inten    --     1.0956                 1.3503                 3.0749
 Raman Activ --     0.0324                 0.1765                 0.0751

                    10                     11                     12
                     A                      A                      A
 Frequencies --    73.6580                85.0894                90.9195
 Red. masses --     7.1441                 6.7264                 6.5155
 Frc consts  --     0.0228                 0.0287                 0.0317
 IR Inten    --     1.3464                 3.2969                 0.7146
 Raman Activ --     0.1946                 0.0521                 0.1401

                    13                     14                     15
                     A                      A                      A
 Frequencies --   159.4973               173.7377               180.8490
 Red. masses --     6.4257                 6.1169                 6.9154
 Frc consts  --     0.0963                 0.1088                 0.1333
 IR Inten    --     3.4518                 1.8944                 0.1358
 Raman Activ --     0.2307                 0.4108                 0.6347

                    16                     17                     18
                     A                      A                      A
 Frequencies --   218.6090               246.3504               259.2990
 Red. masses --     6.9724                 5.8830                 4.8072
 Frc consts  --     0.1963                 0.2104                 0.1904
 IR Inten    --     0.4313                 2.0076                 7.1190
 Raman Activ --     2.8169                 0.6012                 0.2978

                    19                     20                     21
                     A                      A                      A
 Frequencies --   269.0756               285.8568               289.0431
 Red. masses --     4.9092                 4.8431                 4.6215
 Frc consts  --     0.2094                 0.2332                 0.2275
 IR Inten    --    13.5578                 4.8743                 3.2561
 Raman Activ --     0.2625                 0.6455                 0.1296

                    22                     23                     24
                     A                      A                      A
 Frequencies --   303.9418               313.1660               321.2879
 Red. masses --     5.4079                 4.7839                 6.5685
 Frc consts  --     0.2943                 0.2764                 0.3995
 IR Inten    --     5.9357                 0.4233                 0.9502
 Raman Activ --     1.1038                 2.9142                 4.9644

                    25                     26                     27
                     A                      A                      A
 Frequencies --   346.1177               367.3274               378.8399
 Red. masses --     5.4652                 6.6828                 6.3497
 Frc consts  --     0.3857                 0.5313                 0.5369
 IR Inten    --     6.0042                 8.8406                 6.6104
 Raman Activ --     0.9981                 1.9838                 2.1327

                    28                     29                     30
                     A                      A                      A
 Frequencies --   401.8165               416.6729               427.7238
 Red. masses --     5.0786                 4.4321                 5.1594
 Frc consts  --     0.4831                 0.4534                 0.5561
 IR Inten    --    14.0839                 4.7345                 7.7922
 Raman Activ --     1.6109                 7.9007                 2.0955

                    31                     32                     33
                     A                      A                      A
 Frequencies --   442.0403               466.4553               473.5931
 Red. masses --     5.4226                 3.7886                 4.6984
 Frc consts  --     0.6243                 0.4857                 0.6209
 IR Inten    --     1.5370                16.6521                 9.5544
 Raman Activ --     1.6330                 1.6308                 4.7161

                    34                     35                     36
                     A                      A                      A
 Frequencies --   500.6438               527.8953               555.6965
 Red. masses --     4.6807                 2.9468                 3.4866
 Frc consts  --     0.6912                 0.4838                 0.6344
 IR Inten    --     4.1996                12.3073                 5.1539
 Raman Activ --     1.8053                 1.8188                 2.4072

                    37                     38                     39
                     A                      A                      A
 Frequencies --   579.5561               586.4634               615.3201
 Red. masses --     3.9216                 5.2743                 4.2263
 Frc consts  --     0.7761                 1.0688                 0.9428
 IR Inten    --    29.8210                18.6514                 4.8916
 Raman Activ --     0.5302                 0.8238                 0.4620

                    40                     41                     42
                     A                      A                      A
 Frequencies --   624.9402               640.8061               681.3213
 Red. masses --     3.1740                 1.2213                 1.3364
 Frc consts  --     0.7304                 0.2955                 0.3655
 IR Inten    --    38.5068                81.9919               109.3511
 Raman Activ --     1.0355                 1.8595                 1.0026

                    43                     44                     45
                     A                      A                      A
 Frequencies --   689.6921               720.6559               747.2333
 Red. masses --     2.6368                 1.0624                 1.0747
 Frc consts  --     0.7390                 0.3251                 0.3536
 IR Inten    --     6.4599                76.9901               144.8319
 Raman Activ --     1.2497                 1.6551                 2.5350

                    46                     47                     48
                     A                      A                      A
 Frequencies --   750.6783               803.1488               847.8508
 Red. masses --     1.0847                 1.1031                 1.7672
 Frc consts  --     0.3601                 0.4192                 0.7485
 IR Inten    --    79.8657                53.8220                 2.5668
 Raman Activ --     2.5973                 0.4854                 0.4300

                    49                     50                     51
                     A                      A                      A
 Frequencies --   857.8365               915.6716               939.6384
 Red. masses --     1.6109                 5.6353                 6.4180
 Frc consts  --     0.6984                 2.7838                 3.3387
 IR Inten    --     4.2646               201.3121                 9.3315
 Raman Activ --     0.2387                 2.6171                 0.3589

                    52                     53                     54
                     A                      A                      A
 Frequencies --   970.4482               979.4488               994.4024
 Red. masses --     5.9039                 7.0322                 4.5520
 Frc consts  --     3.2759                 3.9747                 2.6520
 IR Inten    --    92.1262                73.7453                27.7437
 Raman Activ --     3.6745                 1.6000                 0.4691

                    55                     56                     57
                     A                      A                      A
 Frequencies --  1003.8008              1005.8905              1016.3918
 Red. masses --     6.4479                 6.1873                 6.5967
 Frc consts  --     3.8279                 3.6885                 4.0151
 IR Inten    --   350.4001                26.4676               187.8744
 Raman Activ --     0.9892                 1.5017                 4.3134

                    58                     59                     60
                     A                      A                      A
 Frequencies --  1030.7339              1055.1646              1064.1948
 Red. masses --     5.2301                 6.0875                 5.8494
 Frc consts  --     3.2738                 3.9933                 3.9031
 IR Inten    --   305.2578                94.0907                28.9182
 Raman Activ --     1.9239                 5.4330                 0.6371

                    61                     62                     63
                     A                      A                      A
 Frequencies --  1067.9555              1072.8250              1079.3209
 Red. masses --     3.8369                 6.5257                 4.0081
 Frc consts  --     2.5783                 4.4252                 2.7510
 IR Inten    --    38.2344               169.0618                11.0831
 Raman Activ --     7.3073                 3.5172                15.4718

                    64                     65                     66
                     A                      A                      A
 Frequencies --  1097.6510              1102.9070              1109.1572
 Red. masses --     2.9387                 2.2616                 3.8205
 Frc consts  --     2.0861                 1.6208                 2.7692
 IR Inten    --    60.2062                40.6971                44.0166
 Raman Activ --     9.6952                10.7640                 5.1156

                    67                     68                     69
                     A                      A                      A
 Frequencies --  1124.1718              1131.0416              1137.5070
 Red. masses --     2.8605                 2.0351                 2.0431
 Frc consts  --     2.1299                 1.5339                 1.5576
 IR Inten    --     6.4146                 7.1028                16.5901
 Raman Activ --     4.5366                 1.8247                 4.4872

                    70                     71                     72
                     A                      A                      A
 Frequencies --  1145.5813              1154.4953              1159.7341
 Red. masses --     2.1203                 2.3054                 2.3271
 Frc consts  --     1.6394                 1.8104                 1.8441
 IR Inten    --    25.3824               119.6163                 0.3058
 Raman Activ --     1.6378                 4.0125                 4.0558

                    73                     74                     75
                     A                      A                      A
 Frequencies --  1164.8555              1176.4468              1184.9416
 Red. masses --     2.0878                 1.9482                 1.5804
 Frc consts  --     1.6691                 1.5887                 1.3074
 IR Inten    --    14.5284                26.5658                 9.6585
 Raman Activ --     5.4105                 2.0933                 0.9159

                    76                     77                     78
                     A                      A                      A
 Frequencies --  1204.3998              1227.9492              1232.4702
 Red. masses --     1.3012                 1.4130                 1.3743
 Frc consts  --     1.1121                 1.2553                 1.2300
 IR Inten    --    19.4825                10.6397                 2.4640
 Raman Activ --     1.7985                 2.6007                 2.2561

                    79                     80                     81
                     A                      A                      A
 Frequencies --  1243.6297              1249.8936              1271.6763
 Red. masses --     1.3598                 1.2705                 1.3421
 Frc consts  --     1.2391                 1.1694                 1.2788
 IR Inten    --     3.2589                 0.7329                29.9859
 Raman Activ --     1.1035                 1.3360                 1.7394

                    82                     83                     84
                     A                      A                      A
 Frequencies --  1277.0902              1279.7088              1288.9183
 Red. masses --     1.2046                 1.2324                 1.2984
 Frc consts  --     1.1575                 1.1891                 1.2709
 IR Inten    --     2.1032                 1.6718                 3.8246
 Raman Activ --     5.1398                 0.8992                 1.5004

                    85                     86                     87
                     A                      A                      A
 Frequencies --  1299.0486              1300.8653              1302.0417
 Red. masses --     1.2685                 1.2115                 1.2578
 Frc consts  --     1.2612                 1.2080                 1.2564
 IR Inten    --    37.9897                10.4807                17.7202
 Raman Activ --     3.7828                 8.4211                 3.3829

                    88                     89                     90
                     A                      A                      A
 Frequencies --  1312.5686              1321.4154              1350.6406
 Red. masses --     1.3058                 1.2523                 1.3733
 Frc consts  --     1.3254                 1.2884                 1.4761
 IR Inten    --    25.5454                 0.8201                22.4932
 Raman Activ --     2.3388                 5.0009                 2.2628

                    91                     92                     93
                     A                      A                      A
 Frequencies --  1351.3411              1353.7268              1358.6625
 Red. masses --     1.2359                 1.2251                 1.1580
 Frc consts  --     1.3297                 1.3228                 1.2594
 IR Inten    --    17.2799                 7.5499                46.5923
 Raman Activ --     6.3023                 1.2569                 3.7766

                    94                     95                     96
                     A                      A                      A
 Frequencies --  1364.6034              1367.6385              1382.0786
 Red. masses --     1.3352                 1.4176                 1.2551
 Frc consts  --     1.4649                 1.5622                 1.4125
 IR Inten    --    14.5231                33.5165                32.6450
 Raman Activ --    10.5294                 4.1792                 7.7156

                    97                     98                     99
                     A                      A                      A
 Frequencies --  1388.3376              1389.9924              1396.0930
 Red. masses --     1.4329                 1.4450                 1.2575
 Frc consts  --     1.6273                 1.6449                 1.4441
 IR Inten    --     9.3246                 4.5421                10.8871
 Raman Activ --     1.0999                 6.4814                 5.2418

                   100                    101                    102
                     A                      A                      A
 Frequencies --  1414.7279              1429.6686              1460.0708
 Red. masses --     1.4568                 1.4687                 1.2433
 Frc consts  --     1.7179                 1.7686                 1.5616
 IR Inten    --    27.9124                20.9672                30.8044
 Raman Activ --     1.0850                 0.6307                 4.6981

                   103                    104                    105
                     A                      A                      A
 Frequencies --  1465.2822              1466.9694              1473.2163
 Red. masses --     1.1995                 1.0931                 1.1942
 Frc consts  --     1.5174                 1.3860                 1.5271
 IR Inten    --    12.0041                 4.7817                12.7861
 Raman Activ --     0.9081                 5.1883                 1.1840

                   106                    107                    108
                     A                      A                      A
 Frequencies --  1480.8485              1482.2579              3199.4878
 Red. masses --     1.2328                 1.3713                 1.0709
 Frc consts  --     1.5928                 1.7752                 6.4591
 IR Inten    --    29.3955                55.8859              1316.9833
 Raman Activ --     2.2711                 3.1203               203.0402

                   109                    110                    111
                     A                      A                      A
 Frequencies --  3245.7760              3255.7257              3261.7802
 Red. masses --     1.0778                 1.0583                 1.0816
 Frc consts  --     6.6902                 6.6095                 6.7798
 IR Inten    --    11.1795                28.2045                 9.9849
 Raman Activ --   126.7586                57.4430                26.5562

                   112                    113                    114
                     A                      A                      A
 Frequencies --  3263.3927              3266.0525              3273.7285
 Red. masses --     1.0801                 1.0611                 1.0828
 Frc consts  --     6.7772                 6.6689                 6.8375
 IR Inten    --    25.6427                 6.0040                 3.4524
 Raman Activ --   138.6537               113.7588                 6.2844

                   115                    116                    117
                     A                      A                      A
 Frequencies --  3276.5157              3280.0788              3283.3221
 Red. masses --     1.0820                 1.0864                 1.0847
 Frc consts  --     6.8437                 6.8865                 6.8897
 IR Inten    --     9.1384                67.2367                13.4797
 Raman Activ --    42.0411                57.4102               147.9995

                   118                    119                    120
                     A                      A                      A
 Frequencies --  3288.5767              3295.4855              3298.2565
 Red. masses --     1.0865                 1.0883                 1.0868
 Frc consts  --     6.9231                 6.9637                 6.9656
 IR Inten    --     4.8852                 6.6984               112.9051
 Raman Activ --    29.1588                 9.6605                17.5175

                   121                    122                    123
                     A                      A                      A
 Frequencies --  3311.5079              3314.4885              3321.1388
 Red. masses --     1.0958                 1.0742                 1.1050
 Frc consts  --     7.0799                 6.9528                 7.1809
 IR Inten    --    77.7515               460.0633                43.2643
 Raman Activ --    19.5886               159.9283                32.3828

                   124                    125                    126
                     A                      A                      A
 Frequencies --  3366.4559              3368.3065              3369.7389
 Red. masses --     1.0661                 1.0656                 1.0690
 Frc consts  --     7.1188                 7.1233                 7.1522
 IR Inten    --    39.7133                30.5087                48.1021
 Raman Activ --   110.3149               105.8822               154.0028

                   127                    128                    129
                     A                      A                      A
 Frequencies --  3373.6113              3887.0856              3891.9785
 Red. masses --     1.0692                 1.0676                 1.0674
 Frc consts  --     7.1694                 9.5039                 9.5265
 IR Inten    --    78.6672                68.4845                76.5647
 Raman Activ --   167.9358                90.1944               131.4991

 - Thermochemistry -
 -------------------
 Temperature   298.150 Kelvin.  Pressure   1.00000 Atm.
 Atom     1 has atomic number  8 and mass  15.99491

 Molecular mass:   342.11621 amu.
 Principal axes and moments of inertia in atomic units:
                           1         2         3
     Eigenvalues --  4513.24286********************
           X            0.99997   0.00777   0.00074
           Y           -0.00777   0.99997   0.00119
           Z           -0.00073  -0.00119   1.00000
 This molecule is an asymmetric top.
 Rotational symmetry number  1.
 Warning -- assumption of classical behavior for rotation
           may cause significant error
 Rotational temperatures (Kelvin)      0.01919     0.00699     0.00528
 Rotational constants (GHZ):           0.39988     0.14572     0.11010
    8 imaginary frequencies ignored.
 Zero-point vibrational energy     972226.8 (Joules/Mol)
                                  232.36779 (Kcal/Mol)
 Warning -- explicit consideration of  31 degrees of freedom as
           vibrations may cause significant error
 Vibrational temperatures:     83.78   105.98   122.42   130.81   229.48
          (Kelvin)            249.97   260.20   314.53   354.44   373.07
                              387.14   411.28   415.87   437.30   450.58
                              462.26   497.99   528.50   545.07   578.12
                              599.50   615.40   636.00   671.12   681.39
                              720.31   759.52   799.52   833.85   843.79
                              885.31   899.15   921.98   980.27   992.31
                             1036.86  1075.10  1080.06  1155.55  1219.87
                             1234.23  1317.45  1351.93  1396.26  1409.21
                             1430.72  1444.24  1447.25  1462.36  1482.99
                             1518.14  1531.14  1536.55  1543.55  1552.90
                             1579.27  1586.84  1595.83  1617.43  1627.31
                             1636.62  1648.23  1661.06  1668.60  1675.97
                             1692.64  1704.86  1732.86  1766.74  1773.25
                             1789.30  1798.32  1829.66  1837.45  1841.21
                             1854.46  1869.04  1871.65  1873.35  1888.49
                             1901.22  1943.27  1944.28  1947.71  1954.81
                             1963.36  1967.72  1988.50  1997.51  1999.89
                             2008.66  2035.48  2056.97  2100.71  2108.21
                             2110.64  2119.63  2130.61  2132.64  4603.34
                             4669.94  4684.26  4692.97  4695.29  4699.12
                             4710.16  4714.17  4719.30  4723.96  4731.52
                             4741.46  4745.45  4764.52  4768.80  4778.37
                             4843.57  4846.24  4848.30  4853.87  5592.64
                             5599.68

 Zero-point correction=                           0.370302 (Hartree/Particle)
 Thermal correction to Energy=                    0.387996
 Thermal correction to Enthalpy=                  0.388940
 Thermal correction to Gibbs Free Energy=         0.325868
 Sum of electronic and zero-point Energies=          -1297.611451
 Sum of electronic and thermal Energies=             -1297.593757
 Sum of electronic and thermal Enthalpies=           -1297.592813
 Sum of electronic and thermal Free Energies=        -1297.655885

                     E (Thermal)             CV                S
                      KCal/Mol        Cal/Mol-Kelvin    Cal/Mol-Kelvin
 Total                  243.471             74.433            132.747
 Electronic               0.000              0.000              0.000
 Translational            0.889              2.981             43.384
 Rotational               0.889              2.981             35.170
 Vibrational            241.694             68.472             54.192
 Vibration     1          0.596              1.974              4.516
 Vibration     2          0.599              1.966              4.053
 Vibration     3          0.601              1.960              3.770
 Vibration     4          0.602              1.956              3.640
 Vibration     5          0.621              1.892              2.556
 Vibration     6          0.627              1.875              2.395
 Vibration     7          0.630              1.866              2.320
 Vibration     8          0.646              1.813              1.971
 Vibration     9          0.661              1.769              1.757
 Vibration    10          0.668              1.747              1.666
 Vibration    11          0.673              1.730              1.602
 Vibration    12          0.684              1.700              1.498
 Vibration    13          0.686              1.694              1.480
 Vibration    14          0.695              1.666              1.395
 Vibration    15          0.701              1.649              1.346
 Vibration    16          0.707              1.633              1.304
 Vibration    17          0.724              1.583              1.184
 Vibration    18          0.740              1.539              1.091
 Vibration    19          0.749              1.515              1.044
 Vibration    20          0.767              1.466              0.956
 Vibration    21          0.780              1.434              0.903
 Vibration    22          0.789              1.410              0.866
 Vibration    23          0.802              1.378              0.820
 Vibration    24          0.824              1.324              0.748
 Vibration    25          0.830              1.309              0.728
 Vibration    26          0.856              1.249              0.657
 Vibration    27          0.883              1.188              0.592
 Vibration    28          0.911              1.127              0.532
 Vibration    29          0.936              1.076              0.486
 Vibration    30          0.944              1.061              0.474
 Vibration    31          0.975              0.999              0.424

 Normal termination of Gaussian 09 at Thu Mar 24 15:23:10 2016.
