 Gaussian 09, Revision B.01,
 Gaussian 09:  EM64L-G09RevB.01 12-Aug-2010

 ------------------------------------------------
 # freq=raman b3lyp/6-31+g(d,p) geom=connectivity
 ------------------------------------------------

 ------------
 550 6000.com
 ------------
 Symbolic Z-matrix:
 Charge =  0 Multiplicity = 1

                         Standard orientation:
 ---------------------------------------------------------------------
 Center     Atomic      Atomic             Coordinates (Angstroms)
 Number     Number       Type             X           Y           Z
 ---------------------------------------------------------------------
      1          8           0       -5.190731    0.125081   -0.683696
      2          6           0       -3.971854   -0.111465    0.035151
      3          6           0       -3.239273   -1.287836   -0.589580
      4          8           0       -3.974686   -2.462419   -0.216885
      5          1           0       -4.949487   -2.241706   -0.200347
      6          6           0       -1.929798   -1.739523    0.037118
      7          8           0       -1.186815   -2.737410   -0.677107
      8          1           0       -1.882358   -3.410548   -0.929415
      9          6           0       -3.639844    2.282893    0.583921
     10          8           0       -2.783749    3.433174    0.529188
     11          1           0       -3.231423    4.293585    0.775258
     12          6           0       -2.949101    1.010207    0.122306
     13          8           0       -1.735383    0.583292    0.756886
     14          6           0       -1.027263   -0.524146    0.179734
     15          8           0        0.298990   -0.533904    0.727799
     16          6           0        1.463531   -0.270170   -0.068287
     17          6           0        1.653342    1.236334   -0.005666
     18          8           0        0.607410    2.035718   -0.577471
     19          1           0       -0.102136    1.799797    0.086349
     20          6           0        2.992871    1.601124   -0.623115
     21          8           0        3.335735    2.979274   -0.415180
     22          1           0        2.910346    3.559446   -1.110803
     23          6           0        2.563056   -2.485303    0.180572
     24          8           0        3.746796   -3.192263    0.576585
     25          1           0        3.649118   -4.118095    0.212360
     26          6           0        2.565948   -1.037096    0.642808
     27          8           0        3.805196   -0.624351    0.047241
     28          6           0        4.003204    0.791105    0.172575
     29          8           0        5.241128    0.909810   -0.542478
     30          1           0        5.954608    0.552839   -0.008513
     31          1           0        4.087467    1.109780    1.190537
     32          1           0        3.024740    1.344605   -1.661422
     33          1           0        1.707172    1.496751    1.030763
     34          1           0        1.333160   -0.609927   -1.074503
     35          1           0        2.551624   -0.929219    1.707259
     36          1           0        1.710144   -2.979156    0.597166
     37          1           0        2.488437   -2.507126   -0.886599
     38          1           0       -5.935932   -0.172583   -0.156749
     39          1           0       -3.971737    2.148294    1.592202
     40          1           0       -4.491856    2.457761   -0.039294
     41          1           0       -2.666373    1.208394   -0.890456
     42          1           0       -4.236459   -0.385183    1.035133
     43          1           0       -3.162185   -1.196394   -1.652874
     44          1           0       -2.141364   -2.117650    1.015464
     45          1           0       -0.865569   -0.228423   -0.835797
 ---------------------------------------------------------------------

 SCF Done:  E(RB3LYP) =  -1297.91027168     A.U. after   14 cycles

 The electronic state is 1-A.
 Alpha  occ. eigenvalues --  -19.21078 -19.19223 -19.18877 -19.18529 -19.17873
 Alpha  occ. eigenvalues --  -19.17154 -19.15916 -19.15751 -19.15307 -19.15240
 Alpha  occ. eigenvalues --  -19.14652 -10.30880 -10.28307 -10.28055 -10.27164
 Alpha  occ. eigenvalues --  -10.26883 -10.26262 -10.25638 -10.25213 -10.24263
 Alpha  occ. eigenvalues --  -10.23611 -10.23341 -10.22463  -1.09449  -1.08195
 Alpha  occ. eigenvalues --   -1.06951  -1.05893  -1.04084  -1.03470  -1.02647
 Alpha  occ. eigenvalues --   -1.02262  -1.01235  -1.00349  -0.98940  -0.82855
 Alpha  occ. eigenvalues --   -0.81288  -0.78721  -0.77626  -0.72385  -0.69545
 Alpha  occ. eigenvalues --   -0.67211  -0.64703  -0.63280  -0.62047  -0.61087
 Alpha  occ. eigenvalues --   -0.59771  -0.57639  -0.56641  -0.54794  -0.53925
 Alpha  occ. eigenvalues --   -0.53699  -0.52970  -0.52448  -0.51733  -0.50689
 Alpha  occ. eigenvalues --   -0.50122  -0.49400  -0.48114  -0.47408  -0.46893
 Alpha  occ. eigenvalues --   -0.46007  -0.45540  -0.44584  -0.43830  -0.43266
 Alpha  occ. eigenvalues --   -0.42585  -0.40936  -0.40843  -0.40553  -0.39571
 Alpha  occ. eigenvalues --   -0.38761  -0.37551  -0.36613  -0.36416  -0.35908
 Alpha  occ. eigenvalues --   -0.35523  -0.34583  -0.33868  -0.33166  -0.32928
 Alpha  occ. eigenvalues --   -0.32696  -0.31228  -0.31003  -0.30349  -0.29248
 Alpha  occ. eigenvalues --   -0.28757  -0.28560  -0.28095  -0.27086  -0.26603
 Alpha  occ. eigenvalues --   -0.25805
 Alpha virt. eigenvalues --   -0.04588  -0.01637  -0.00570   0.00079   0.00875
 Alpha virt. eigenvalues --    0.01302   0.01572   0.02229   0.02597   0.03324
 Alpha virt. eigenvalues --    0.03897   0.04217   0.04399   0.04926   0.05975

 Mulliken atomic charges:
              1
     1  O   -0.520481
     2  C   -0.610178
     3  C    0.255066
     4  O   -0.544013
     5  H    0.334447
     6  C    0.174760
     7  O   -0.498008
     8  H    0.370798
     9  C   -0.109306
    10  O   -0.555187
    11  H    0.363099
    12  C    0.412589
    13  O   -0.401896
    14  C    0.081678
    15  O   -0.366282
    16  C    0.200511
    17  C    0.012411
    18  O   -0.487833
    19  H    0.390482
    20  C   -0.191844
    21  O   -0.486230
    22  H    0.359888
    23  C   -0.087794
    24  O   -0.522405
    25  H    0.341519
    26  C   -0.185430
    27  O   -0.284444
    28  C    0.357350
    29  O   -0.496334
    30  H    0.347434
    31  H    0.131430
    32  H    0.147470
    33  H    0.141456
    34  H    0.133272
    35  H    0.147697
    36  H    0.150214
    37  H    0.126587
    38  H    0.364823
    39  H    0.130634
    40  H    0.158002
    41  H    0.138181
    42  H    0.153062
    43  H    0.166391
    44  H    0.155215
    45  H    0.101197
 Sum of Mulliken atomic charges =   0.00000

 Dipole moment (field-independent basis, Debye):
    X=             -9.0621    Y=             -1.4215    Z=              0.8079  Tot=              9.2084
 Quadrupole moment (field-independent basis, Debye-Ang):
   XX=           -118.3513   YY=           -132.0796   ZZ=           -138.5476
   XY=             -7.1256   XZ=             -3.8306   YZ=              5.6873

  Exact polarizability: 221.944  -0.922 195.981  -1.487  -0.135 142.630
 Approx polarizability: 262.971  -2.473 250.660  -3.295  -1.779 231.193

 ******    9 imaginary frequencies (negative Signs) ******

                     1                      2                      3
                     A                      A                      A
 Frequencies --  -268.5826              -265.1086              -236.9154
 Red. masses --     1.0685                 1.2778                 1.8801
 Frc consts  --     0.0454                 0.0529                 0.0622
 IR Inten    --   101.3369               131.4095                 9.1805
 Raman Activ --     2.2020                 0.5614                 0.1851

                     4                      5                      6
                     A                      A                      A
 Frequencies --  -222.2269              -107.3194               -61.9467
 Red. masses --     1.8949                 6.0437                 6.1139
 Frc consts  --     0.0551                 0.0410                 0.0138
 IR Inten    --     6.3064                 0.7523                 1.5710
 Raman Activ --     0.1093                 0.0148                 0.1480

                     7                      8                      9
                     A                      A                      A
 Frequencies --   -37.2316               -33.8785               -16.8157
 Red. masses --     6.3211                 6.8298                 6.3451
 Frc consts  --     0.0052                 0.0046                 0.0011
 IR Inten    --     0.7528                 0.4492                 0.5778
 Raman Activ --     0.0183                 0.0668                 0.0665

                    10                     11                     12
                     A                      A                      A
 Frequencies --    45.1157                89.5191               111.8531
 Red. masses --     6.2764                 6.3443                 6.0667
 Frc consts  --     0.0075                 0.0300                 0.0447
 IR Inten    --     0.2589                 1.5644                 1.7939
 Raman Activ --     0.0807                 0.2154                 0.5496

                    13                     14                     15
                     A                      A                      A
 Frequencies --   125.4152               134.5613               162.6624
 Red. masses --     6.2093                 6.5284                 6.0581
 Frc consts  --     0.0575                 0.0696                 0.0944
 IR Inten    --     0.2511                 2.2557                 1.0802
 Raman Activ --     0.2867                 0.3623                 0.2214

                    16                     17                     18
                     A                      A                      A
 Frequencies --   194.0056               224.9561               238.7497
 Red. masses --     5.9810                 5.7526                 4.8408
 Frc consts  --     0.1326                 0.1715                 0.1626
 IR Inten    --     0.7219                 2.8928                15.9942
 Raman Activ --     1.9215                 0.3004                 0.1412

                    19                     20                     21
                     A                      A                      A
 Frequencies --   272.8393               280.0406               288.7976
 Red. masses --     5.0027                 5.1156                 5.4601
 Frc consts  --     0.2194                 0.2364                 0.2683
 IR Inten    --     6.2259                 3.6990                 0.4745
 Raman Activ --     0.2093                 0.5779                 0.4164

                    22                     23                     24
                     A                      A                      A
 Frequencies --   295.2516               312.5528               336.1085
 Red. masses --     5.0386                 6.6908                 6.5993
 Frc consts  --     0.2588                 0.3851                 0.4392
 IR Inten    --     4.0800                 1.5363                 2.7879
 Raman Activ --     2.0522                 1.2852                 4.0218

                    25                     26                     27
                     A                      A                      A
 Frequencies --   348.3623               357.3311               374.8692
 Red. masses --     6.0404                 5.4510                 3.9809
 Frc consts  --     0.4319                 0.4101                 0.3296
 IR Inten    --     5.2123                 5.8774                 7.5480
 Raman Activ --     0.3685                 4.7948                 0.9222

                    28                     29                     30
                     A                      A                      A
 Frequencies --   413.1261               424.3801               436.8944
 Red. masses --     5.0998                 4.4400                 5.9810
 Frc consts  --     0.5128                 0.4711                 0.6726
 IR Inten    --     0.4440                 2.4151                 6.4279
 Raman Activ --     6.5453                 2.9005                 2.2479

                    31                     32                     33
                     A                      A                      A
 Frequencies --   440.5747               472.2788               494.0022
 Red. masses --     5.4608                 3.6302                 3.9861
 Frc consts  --     0.6245                 0.4771                 0.5731
 IR Inten    --     4.5895                 2.0024                 5.7083
 Raman Activ --     0.8564                 0.7457                 1.2199

                    34                     35                     36
                     A                      A                      A
 Frequencies --   531.0782               549.9055               564.2410
 Red. masses --     3.7801                 4.5806                 5.8326
 Frc consts  --     0.6282                 0.8161                 1.0941
 IR Inten    --    27.0768                19.9331                 9.9086
 Raman Activ --     1.5869                 1.2232                 5.5752

                    37                     38                     39
                     A                      A                      A
 Frequencies --   594.8231               602.7506               611.3705
 Red. masses --     3.1799                 3.2999                 3.1568
 Frc consts  --     0.6629                 0.7064                 0.6952
 IR Inten    --    16.0654                53.6589                16.9252
 Raman Activ --     0.7209                 0.3445                 0.2704

                    40                     41                     42
                     A                      A                      A
 Frequencies --   645.5932               650.7737               657.2836
 Red. masses --     2.8202                 1.0579                 1.2378
 Frc consts  --     0.6925                 0.2640                 0.3151
 IR Inten    --    26.5277               126.1712               106.0014
 Raman Activ --     0.6120                 2.9288                 2.5942

                    43                     44                     45
                     A                      A                      A
 Frequencies --   672.4952               693.8114               704.6557
 Red. masses --     3.0900                 1.0970                 1.0929
 Frc consts  --     0.8234                 0.3111                 0.3197
 IR Inten    --    15.9501               120.1276                82.4461
 Raman Activ --     2.3976                 2.4801                 2.0781

                    46                     47                     48
                     A                      A                      A
 Frequencies --   740.7836               817.9034               851.9248
 Red. masses --     1.0877                 2.4840                 1.1438
 Frc consts  --     0.3517                 0.9791                 0.4891
 IR Inten    --   109.5246                12.8691                77.6155
 Raman Activ --     1.5133                 2.9901                 1.7666

                    49                     50                     51
                     A                      A                      A
 Frequencies --   883.1697               959.8990               974.7263
 Red. masses --     2.3041                 6.4287                 6.7483
 Frc consts  --     1.0589                 3.4900                 3.7775
 IR Inten    --    23.2741               142.9692               170.8056
 Raman Activ --     3.2851                 5.3471                 1.2011

                    52                     53                     54
                     A                      A                      A
 Frequencies --   989.8743               993.9760              1005.7029
 Red. masses --     5.1305                 4.0206                 4.5125
 Frc consts  --     2.9619                 2.3404                 2.6891
 IR Inten    --    87.2984                36.1343                62.5812
 Raman Activ --     0.9134                 3.0226                 1.0421

                    55                     56                     57
                     A                      A                      A
 Frequencies --  1014.5012              1024.2746              1027.3631
 Red. masses --     5.2734                 3.3477                 3.7579
 Frc consts  --     3.1978                 2.0693                 2.3369
 IR Inten    --   196.1960               457.2709                66.4283
 Raman Activ --     2.9199                 1.6959                 5.2495

                    58                     59                     60
                     A                      A                      A
 Frequencies --  1034.3189              1041.8303              1059.0109
 Red. masses --     2.8021                 2.2135                 3.5309
 Frc consts  --     1.7662                 1.4155                 2.3331
 IR Inten    --   202.2401                20.3594                 7.0132
 Raman Activ --     0.4959                 2.1267                24.6320

                    61                     62                     63
                     A                      A                      A
 Frequencies --  1067.2003              1070.6301              1076.4807
 Red. masses --     5.2240                 3.7581                 4.4203
 Frc consts  --     3.5055                 2.5380                 3.0180
 IR Inten    --    96.5063                32.0923                27.1812
 Raman Activ --     2.1161                14.0596                 5.9560

                    64                     65                     66
                     A                      A                      A
 Frequencies --  1087.4966              1099.3450              1101.5514
 Red. masses --     3.9973                 2.7697                 2.3146
 Frc consts  --     2.7853                 1.9722                 1.6547
 IR Inten    --   121.3946                18.7707                35.3399
 Raman Activ --     5.2517                 0.9681                 0.6026

                    67                     68                     69
                     A                      A                      A
 Frequencies --  1106.5794              1118.7837              1136.4371
 Red. masses --     2.5784                 2.2818                 2.5268
 Frc consts  --     1.8602                 1.6827                 1.9227
 IR Inten    --    18.7667                 7.4168                 4.1660
 Raman Activ --     1.8842                 6.5496                 3.7518

                    70                     71                     72
                     A                      A                      A
 Frequencies --  1138.5935              1145.3199              1146.7866
 Red. masses --     2.8624                 1.9070                 2.3796
 Frc consts  --     2.1863                 1.4739                 1.8439
 IR Inten    --    15.2678                19.4230                46.7821
 Raman Activ --     7.8008                 3.5531                 3.8208

                    73                     74                     75
                     A                      A                      A
 Frequencies --  1152.0094              1176.8030              1192.2980
 Red. masses --     2.0416                 1.6642                 1.4666
 Frc consts  --     1.5963                 1.3579                 1.2283
 IR Inten    --    60.6168                31.8105                 7.7683
 Raman Activ --     3.0776                 0.5758                 1.5823

                    76                     77                     78
                     A                      A                      A
 Frequencies --  1199.6625              1205.7655              1209.1387
 Red. masses --     2.0295                 1.3349                 1.3639
 Frc consts  --     1.7209                 1.1435                 1.1749
 IR Inten    --    24.0539                39.5430                10.9151
 Raman Activ --     2.2761                 3.0850                 2.1020

                    79                     80                     81
                     A                      A                      A
 Frequencies --  1229.4435              1237.1046              1246.9941
 Red. masses --     1.4165                 1.3942                 1.3554
 Frc consts  --     1.2615                 1.2571                 1.2418
 IR Inten    --    14.7661                 6.7347                36.2626
 Raman Activ --     2.0364                 2.4525                 2.6112

                    82                     83                     84
                     A                      A                      A
 Frequencies --  1249.6488              1260.9017              1261.5654
 Red. masses --     1.1909                 1.3662                 1.2582
 Frc consts  --     1.0957                 1.2798                 1.1799
 IR Inten    --     2.8177                10.4585                15.6614
 Raman Activ --     7.0043                 5.7140                 2.5496

                    85                     86                     87
                     A                      A                      A
 Frequencies --  1276.9304              1283.6464              1306.3085
 Red. masses --     1.2264                 1.2819                 1.3997
 Frc consts  --     1.1782                 1.2445                 1.4073
 IR Inten    --     3.3221                33.9462                 2.3014
 Raman Activ --     2.5299                 1.3458                 5.9625

                    88                     89                     90
                     A                      A                      A
 Frequencies --  1317.5131              1318.8387              1324.9293
 Red. masses --     1.3426                 1.2146                 1.2187
 Frc consts  --     1.3732                 1.2447                 1.2605
 IR Inten    --    27.4243                23.4169                15.4125
 Raman Activ --     2.2818                 4.2378                 2.0292

                    91                     92                     93
                     A                      A                      A
 Frequencies --  1332.2231              1342.8574              1347.8929
 Red. masses --     1.4747                 1.2784                 1.4348
 Frc consts  --     1.5420                 1.3583                 1.5359
 IR Inten    --    22.7719                35.3391                30.6362
 Raman Activ --     6.7049                14.3142                 1.3027

                    94                     95                     96
                     A                      A                      A
 Frequencies --  1348.8423              1363.6984              1383.6552
 Red. masses --     1.5625                 1.4334                 1.2133
 Frc consts  --     1.6749                 1.5706                 1.3686
 IR Inten    --     6.8371                13.3177                11.4632
 Raman Activ --     4.2102                 5.5264                 3.3067

                    97                     98                     99
                     A                      A                      A
 Frequencies --  1386.9493              1403.7391              1418.6734
 Red. masses --     1.2024                 1.3278                 1.4890
 Frc consts  --     1.3627                 1.5415                 1.7656
 IR Inten    --    32.0656                 6.3073                25.7081
 Raman Activ --     0.7317                 9.7377                 1.8277

                   100                    101                    102
                     A                      A                      A
 Frequencies --  1424.9833              1435.8018              1448.2464
 Red. masses --     1.5064                 1.6339                 1.1947
 Frc consts  --     1.8023                 1.9845                 1.4763
 IR Inten    --    22.7891                19.9880                39.2469
 Raman Activ --     0.8738                 6.0416                 5.7242

                   103                    104                    105
                     A                      A                      A
 Frequencies --  1464.1750              1469.4885              1473.1167
 Red. masses --     1.3943                 1.0789                 1.1001
 Frc consts  --     1.7612                 1.3726                 1.4065
 IR Inten    --    10.1287                 4.8391                 0.0626
 Raman Activ --     1.6982                 5.5413                 6.1743

                   106                    107                    108
                     A                      A                      A
 Frequencies --  1473.4943              1516.8550              3259.3358
 Red. masses --     1.3907                 1.2986                 1.0822
 Frc consts  --     1.7790                 1.7604                 6.7735
 IR Inten    --    43.3772                39.9795                14.5936
 Raman Activ --     2.2635                 1.0727                33.2383

                   109                    110                    111
                     A                      A                      A
 Frequencies --  3268.1119              3270.8688              3275.1735
 Red. masses --     1.0662                 1.0567                 1.0728
 Frc consts  --     6.7093                 6.6608                 6.7800
 IR Inten    --    24.2082                39.4723                22.0931
 Raman Activ --   157.8527                68.5245                 9.4339

                   112                    113                    114
                     A                      A                      A
 Frequencies --  3285.8807              3295.2546              3301.3901
 Red. masses --     1.0843                 1.0854                 1.0850
 Frc consts  --     6.8976                 6.9439                 6.9676
 IR Inten    --     6.3813                11.7095                15.5813
 Raman Activ --    51.1826                23.8051               102.2140

                   115                    116                    117
                     A                      A                      A
 Frequencies --  3308.4461              3311.0624              3316.2234
 Red. masses --     1.0864                 1.0866                 1.0896
 Frc consts  --     7.0066                 7.0186                 7.0601
 IR Inten    --     5.1598                 1.2556                 0.2618
 Raman Activ --    24.1933               109.3511                88.8316

                   118                    119                    120
                     A                      A                      A
 Frequencies --  3319.4725              3321.8995              3333.1679
 Red. masses --     1.0865                 1.0898                 1.1068
 Frc consts  --     7.0536                 7.0856                 7.2451
 IR Inten    --    27.1619                42.9832                20.8435
 Raman Activ --    24.1932                12.2617                51.5160

                   121                    122                    123
                     A                      A                      A
 Frequencies --  3333.8632              3365.2658              3381.1283
 Red. masses --     1.1019                 1.0658                 1.0679
 Frc consts  --     7.2159                 7.1112                 7.1930
 IR Inten    --    65.6880               211.1991                42.6285
 Raman Activ --    27.3026               123.4872               220.5577

                   124                    125                    126
                     A                      A                      A
 Frequencies --  3384.5678              3391.0789              3393.6369
 Red. masses --     1.0657                 1.0674                 1.0665
 Frc consts  --     7.1929                 7.2316                 7.2367
 IR Inten    --    11.8278                47.3749                18.8698
 Raman Activ --   131.5635               108.1773               110.8114

                   127                    128                    129
                     A                      A                      A
 Frequencies --  3393.9820              3912.5822              3915.8069
 Red. masses --     1.0654                 1.0681                 1.0668
 Frc consts  --     7.2307                 9.6332                 9.6374
 IR Inten    --    54.6755                73.0557                43.9125
 Raman Activ --   161.9122                94.4512               141.5826

 - Thermochemistry -
 -------------------
 Temperature   298.150 Kelvin.  Pressure   1.00000 Atm.
 Atom     1 has atomic number  8 and mass  15.99491

 Molecular mass:   342.11621 amu.
 Principal axes and moments of inertia in atomic units:
                           1         2         3
     Eigenvalues --  4612.74782********************
           X            0.99998  -0.00587  -0.00074
           Y            0.00587   0.99998   0.00390
           Z            0.00072  -0.00391   0.99999
 This molecule is an asymmetric top.
 Rotational symmetry number  1.
 Warning -- assumption of classical behavior for rotation
           may cause significant error
 Rotational temperatures (Kelvin)      0.01878     0.00700     0.00532
 Rotational constants (GHZ):           0.39125     0.14590     0.11081
    9 imaginary frequencies ignored.
 Zero-point vibrational energy     974297.9 (Joules/Mol)
                                  232.86278 (Kcal/Mol)
 Warning -- explicit consideration of  30 degrees of freedom as
           vibrations may cause significant error
 Vibrational temperatures:     64.91   128.80   160.93   180.44   193.60
          (Kelvin)            234.03   279.13   323.66   343.51   392.55
                              402.92   415.51   424.80   449.69   483.58
                              501.22   514.12   539.35   594.40   610.59
                              628.59   633.89   679.50   710.76   764.10
                              791.19   811.82   855.82   867.22   879.62
                              928.86   936.32   945.68   967.57   998.24
                             1013.84  1065.82  1176.78  1225.73  1270.68
                             1381.08  1402.41  1424.21  1430.11  1446.98
                             1459.64  1473.70  1478.14  1488.15  1498.96
                             1523.68  1535.46  1540.40  1548.81  1564.66
                             1581.71  1584.88  1592.12  1609.68  1635.08
                             1638.18  1647.86  1649.97  1657.48  1693.15
                             1715.45  1726.04  1734.83  1739.68  1768.89
                             1779.92  1794.14  1797.96  1814.15  1815.11
                             1837.22  1846.88  1879.48  1895.61  1897.51
                             1906.28  1916.77  1932.07  1939.31  1940.68
                             1962.06  1990.77  1995.51  2019.66  2041.15
                             2050.23  2065.80  2083.70  2106.62  2114.26
                             2119.48  2120.03  2182.41  4689.45  4702.08
                             4706.04  4712.24  4727.64  4741.13  4749.96
                             4760.11  4763.87  4771.30  4775.97  4779.47
                             4795.68  4796.68  4841.86  4864.68  4869.63
                             4879.00  4882.68  4883.18  5629.33  5633.97

 Zero-point correction=                           0.371090 (Hartree/Particle)
 Thermal correction to Energy=                    0.388159
 Thermal correction to Enthalpy=                  0.389103
 Thermal correction to Gibbs Free Energy=         0.327277
 Sum of electronic and zero-point Energies=          -1297.539181
 Sum of electronic and thermal Energies=             -1297.522113
 Sum of electronic and thermal Enthalpies=           -1297.521168
 Sum of electronic and thermal Free Energies=        -1297.582995

                     E (Thermal)             CV                S
                      KCal/Mol        Cal/Mol-Kelvin    Cal/Mol-Kelvin
 Total                  243.573             72.494            130.125
 Electronic               0.000              0.000              0.000
 Translational            0.889              2.981             43.384
 Rotational               0.889              2.981             35.184
 Vibrational            241.796             66.533             51.556
 Vibration     1          0.595              1.979              5.021
 Vibration     2          0.602              1.957              3.671
 Vibration     3          0.607              1.940              3.237
 Vibration     4          0.610              1.928              3.015
 Vibration     5          0.613              1.919              2.880
 Vibration     6          0.623              1.888              2.519
 Vibration     7          0.635              1.848              2.189
 Vibration     8          0.650              1.803              1.919
 Vibration     9          0.657              1.781              1.812
 Vibration    10          0.676              1.723              1.578
 Vibration    11          0.680              1.711              1.533
 Vibration    12          0.685              1.695              1.481
 Vibration    13          0.689              1.683              1.444
 Vibration    14          0.701              1.650              1.349
 Vibration    15          0.717              1.603              1.231
 Vibration    16          0.726              1.579              1.174
 Vibration    17          0.732              1.560              1.134
 Vibration    18          0.746              1.524              1.060
 Vibration    19          0.777              1.442              0.916
 Vibration    20          0.786              1.417              0.877
 Vibration    21          0.797              1.390              0.836
 Vibration    22          0.800              1.382              0.825
 Vibration    23          0.829              1.312              0.731
 Vibration    24          0.850              1.263              0.673
 Vibration    25          0.886              1.181              0.585
 Vibration    26          0.905              1.140              0.544
 Vibration    27          0.920              1.109              0.515
 Vibration    28          0.953              1.043              0.459
 Vibration    29          0.961              1.026              0.445
 Vibration    30          0.971              1.008              0.431

 Normal termination of Gaussian 09 at Tue Mar  1 16:31:47 2016.
