 Gaussian 09, Revision B.01,
 Gaussian 09:  EM64L-G09RevB.01 12-Aug-2010

 -------------------------------------------------
 # freq=raman b3lyp/6-31+g(2d,p) geom=connectivity
 -------------------------------------------------

 -----------------
 300 5527/5527.com
 -----------------
 Symbolic Z-matrix:
 Charge =  0 Multiplicity = 1

                         Standard orientation:
 ---------------------------------------------------------------------
 Center     Atomic      Atomic             Coordinates (Angstroms)
 Number     Number       Type             X           Y           Z
 ---------------------------------------------------------------------
      1          8           0       -5.076890   -0.332128    0.539520
      2          6           0       -3.795680   -0.080421   -0.053538
      3          6           0       -3.238379    1.290567    0.292332
      4          8           0       -4.186586    2.283793   -0.124120
      5          1           0       -5.098933    1.878691   -0.061939
      6          6           0       -1.874495    1.596626   -0.305388
      7          8           0       -1.241491    2.750451    0.265532
      8          1           0       -0.306137    2.969955   -0.012151
      9          6           0       -3.213994   -2.473008   -0.214911
     10          8           0       -4.289813   -3.228179    0.362660
     11          1           0       -4.233192   -4.201474    0.140813
     12          6           0       -2.785331   -1.136381    0.367383
     13          8           0       -1.540876   -0.882886   -0.300614
     14          6           0       -0.983597    0.404301    0.004141
     15          8           0        0.349628    0.561371   -0.502341
     16          6           0        1.570328    0.152645    0.131264
     17          6           0        2.084588   -1.103407   -0.552514
     18          8           0        1.131331   -2.174457   -0.520005
     19          1           0        0.293023   -1.856572   -0.964311
     20          6           0        3.413124   -1.486387    0.079512
     21          8           0        3.912613   -2.792048   -0.246616
     22          1           0        4.613552   -3.091640    0.400688
     23          6           0        2.412116    2.649125    0.150755
     24          8           0        1.211072    3.187018   -0.420726
     25          1           0        1.357133    4.175223   -0.472776
     26          6           0        2.626295    1.190048   -0.214900
     27          8           0        3.819312    0.829968    0.497269
     28          6           0        4.437452   -0.366162    0.000777
     29          8           0        5.554745   -0.636312    0.858917
     30          1           0        6.305054   -0.915416    0.329071
     31          1           0        3.247117    3.219484   -0.199050
     32          1           0        2.356486    2.734146    1.215920
     33          1           0        2.825140    1.130960   -1.264600
     34          1           0        1.459660    0.024007    1.187723
     35          1           0        2.268817   -0.863798   -1.578938
     36          1           0        3.188651   -1.555590    1.123410
     37          1           0        4.764724   -0.227173   -1.008419
     38          1           0       -5.713583   -0.537028   -0.149129
     39          1           0       -2.351311   -3.105958   -0.207757
     40          1           0       -3.472094   -2.297531   -1.238382
     41          1           0       -2.667679   -1.181844    1.429923
     42          1           0       -3.907591   -0.133601   -1.116339
     43          1           0       -3.148495    1.347817    1.357012
     44          1           0       -1.961877    1.717967   -1.364888
     45          1           0       -0.877377    0.411372    1.068833
 ---------------------------------------------------------------------

 SCF Done:  E(RB3LYP) =  -1297.98144755     A.U. after   13 cycles

 The electronic state is 1-A.
 Alpha  occ. eigenvalues --  -19.19397 -19.18242 -19.17967 -19.17612 -19.17202
 Alpha  occ. eigenvalues --  -19.17140 -19.16133 -19.15705 -19.14672 -19.14431
 Alpha  occ. eigenvalues --  -19.12052 -10.30870 -10.29628 -10.26199 -10.25866
 Alpha  occ. eigenvalues --  -10.25753 -10.25301 -10.24946 -10.24723 -10.24697
 Alpha  occ. eigenvalues --  -10.24124 -10.23759 -10.23637  -1.09375  -1.08435
 Alpha  occ. eigenvalues --   -1.06389  -1.05291  -1.03991  -1.03521  -1.02576
 Alpha  occ. eigenvalues --   -1.01953  -1.01320  -1.00785  -0.98925  -0.82486
 Alpha  occ. eigenvalues --   -0.80039  -0.79741  -0.78307  -0.72168  -0.69678
 Alpha  occ. eigenvalues --   -0.67390  -0.64219  -0.62794  -0.62216  -0.61705
 Alpha  occ. eigenvalues --   -0.60082  -0.56601  -0.55808  -0.55243  -0.54967
 Alpha  occ. eigenvalues --   -0.53933  -0.53699  -0.52942  -0.51801  -0.50940
 Alpha  occ. eigenvalues --   -0.50303  -0.49822  -0.49572  -0.48323  -0.46534
 Alpha  occ. eigenvalues --   -0.45906  -0.45026  -0.44539  -0.43796  -0.43091
 Alpha  occ. eigenvalues --   -0.42830  -0.41836  -0.41468  -0.40252  -0.39312
 Alpha  occ. eigenvalues --   -0.38816  -0.38253  -0.37844  -0.35569  -0.35080
 Alpha  occ. eigenvalues --   -0.34763  -0.34325  -0.34000  -0.33310  -0.32932
 Alpha  occ. eigenvalues --   -0.32319  -0.31237  -0.30802  -0.30069  -0.29836
 Alpha  occ. eigenvalues --   -0.29089  -0.28336  -0.27820  -0.27140  -0.26892
 Alpha  occ. eigenvalues --   -0.25606
 Alpha virt. eigenvalues --   -0.02207  -0.01859  -0.01813  -0.00205   0.00045
 Alpha virt. eigenvalues --    0.00806   0.01776   0.02234   0.02660   0.03680
 Alpha virt. eigenvalues --    0.03937   0.04398   0.04998   0.05340   0.05530

 Mulliken atomic charges:
              1
     1  O   -0.529078
     2  C   -0.269989
     3  C    0.421908
     4  O   -0.568010
     5  H    0.336720
     6  C   -0.055828
     7  O   -0.614523
     8  H    0.451909
     9  C   -0.250751
    10  O   -0.552632
    11  H    0.338301
    12  C    0.226244
    13  O   -0.278426
    14  C    0.291577
    15  O   -0.329414
    16  C    0.199247
    17  C    0.100590
    18  O   -0.519812
    19  H    0.357868
    20  C    0.133966
    21  O   -0.572027
    22  H    0.339975
    23  C   -0.262041
    24  O   -0.553016
    25  H    0.362385
    26  C    0.021556
    27  O   -0.261009
    28  C    0.131055
    29  O   -0.543125
    30  H    0.338647
    31  H    0.150052
    32  H    0.161477
    33  H    0.118666
    34  H    0.125606
    35  H    0.109364
    36  H    0.118259
    37  H    0.122030
    38  H    0.345289
    39  H    0.142338
    40  H    0.130581
    41  H    0.121437
    42  H    0.120004
    43  H    0.123443
    44  H    0.122408
    45  H    0.096778
 Sum of Mulliken atomic charges =   0.00000

 Dipole moment (field-independent basis, Debye):
    X=              3.1279    Y=             -0.1252    Z=             -2.4727  Tot=              3.9892
 Quadrupole moment (field-independent basis, Debye-Ang):
   XX=           -118.0057   YY=           -135.1900   ZZ=           -139.5428
   XY=             17.2735   XZ=              4.5322   YZ=             -2.8682

  Exact polarizability: 235.530   0.476 197.502   2.650  -0.423 145.038
 Approx polarizability: 275.757   1.710 257.066   4.086  -1.497 240.716

 ******    7 imaginary frequencies (negative Signs) ******

                     1                      2                      3
                     A                      A                      A
 Frequencies --  -276.7176              -258.9384              -199.1892
 Red. masses --     1.7723                 1.1735                 1.2663
 Frc consts  --     0.0800                 0.0464                 0.0296
 IR Inten    --    20.2154               126.3742                87.2423
 Raman Activ --     0.0959                 1.0011                 0.6328

                     4                      5                      6
                     A                      A                      A
 Frequencies --  -199.0581               -77.2210               -50.7565
 Red. masses --     1.9029                 7.1772                 6.1489
 Frc consts  --     0.0444                 0.0252                 0.0093
 IR Inten    --     3.2066                 2.6653                 0.0784
 Raman Activ --     0.1907                 0.0339                 0.0670

                     7                      8                      9
                     A                      A                      A
 Frequencies --   -28.8064                35.2658                63.0099
 Red. masses --     6.8470                 6.5023                 6.1207
 Frc consts  --     0.0033                 0.0048                 0.0143
 IR Inten    --     1.0693                 0.1048                 4.5560
 Raman Activ --     0.0206                 0.1022                 0.0487

                    10                     11                     12
                     A                      A                      A
 Frequencies --    78.0807                91.2695               141.3649
 Red. masses --     6.5866                 6.7526                 5.2951
 Frc consts  --     0.0237                 0.0331                 0.0623
 IR Inten    --     1.7266                 0.4959                 1.4006
 Raman Activ --     0.2867                 0.1753                 0.0256

                    13                     14                     15
                     A                      A                      A
 Frequencies --   157.4059               169.1178               189.2037
 Red. masses --     6.2197                 6.8748                 6.3680
 Frc consts  --     0.0908                 0.1158                 0.1343
 IR Inten    --     3.3726                 5.0079                 0.1450
 Raman Activ --     0.3883                 1.2470                 0.2057

                    16                     17                     18
                     A                      A                      A
 Frequencies --   214.5161               233.2137               268.0415
 Red. masses --     7.1058                 5.7781                 4.5847
 Frc consts  --     0.1927                 0.1852                 0.1941
 IR Inten    --     0.1594                 1.5312                22.8544
 Raman Activ --     3.2405                 0.2981                 0.2289

                    19                     20                     21
                     A                      A                      A
 Frequencies --   279.6510               291.0539               294.0672
 Red. masses --     5.1481                 5.0418                 4.4975
 Frc consts  --     0.2372                 0.2516                 0.2291
 IR Inten    --     6.9120                 5.3849                 1.2213
 Raman Activ --     0.1929                 0.4878                 0.1317

                    22                     23                     24
                     A                      A                      A
 Frequencies --   305.1202               318.9608               324.9680
 Red. masses --     4.7598                 5.9653                 5.8644
 Frc consts  --     0.2611                 0.3576                 0.3649
 IR Inten    --     1.4056                 2.3770                 0.7556
 Raman Activ --     0.4134                 2.3735                 4.1536

                    25                     26                     27
                     A                      A                      A
 Frequencies --   351.4484               353.6138               379.2642
 Red. masses --     6.3133                 5.1790                 5.5481
 Frc consts  --     0.4594                 0.3816                 0.4702
 IR Inten    --    12.0213                 7.0443                 6.4261
 Raman Activ --     3.4441                 0.5364                 0.5884

                    28                     29                     30
                     A                      A                      A
 Frequencies --   410.0554               420.6008               425.3893
 Red. masses --     6.4613                 5.7143                 4.5957
 Frc consts  --     0.6401                 0.5956                 0.4900
 IR Inten    --     7.4090                 0.3000                 4.2342
 Raman Activ --     2.0861                 4.9832                 4.7946

                    31                     32                     33
                     A                      A                      A
 Frequencies --   436.8330               472.7282               490.6167
 Red. masses --     4.8122                 3.7734                 4.6420
 Frc consts  --     0.5410                 0.4968                 0.6583
 IR Inten    --     1.9433                 5.5850                15.4021
 Raman Activ --     0.9505                 4.2042                 0.1203

                    34                     35                     36
                     A                      A                      A
 Frequencies --   511.2195               528.4327               561.3657
 Red. masses --     3.7058                 3.4351                 3.6650
 Frc consts  --     0.5706                 0.5652                 0.6805
 IR Inten    --    17.1684                13.0126                21.6864
 Raman Activ --     2.2739                 3.9572                 1.0874

                    37                     38                     39
                     A                      A                      A
 Frequencies --   577.8356               587.7550               601.1883
 Red. masses --     5.4164                 3.2332                 4.7128
 Frc consts  --     1.0655                 0.6581                 1.0036
 IR Inten    --    13.0004                16.4862                20.2535
 Raman Activ --     0.7975                 1.2871                 0.5673

                    40                     41                     42
                     A                      A                      A
 Frequencies --   607.6089               662.9939               671.8976
 Red. masses --     3.9302                 1.3307                 2.6235
 Frc consts  --     0.8549                 0.3446                 0.6978
 IR Inten    --    23.1595               109.7638                15.9404
 Raman Activ --     1.2819                 1.6381                 0.7207

                    43                     44                     45
                     A                      A                      A
 Frequencies --   710.7205               725.9051               738.7318
 Red. masses --     1.0611                 1.0851                 1.0651
 Frc consts  --     0.3158                 0.3369                 0.3425
 IR Inten    --    81.8604               137.5230                79.8651
 Raman Activ --     1.4304                 5.0242                 1.3083

                    46                     47                     48
                     A                      A                      A
 Frequencies --   746.9444               812.3745               854.9893
 Red. masses --     1.1040                 1.1026                 1.7747
 Frc consts  --     0.3629                 0.4287                 0.7643
 IR Inten    --   129.2126                44.1661                 1.6785
 Raman Activ --     1.5354                 0.4298                 0.4562

                    49                     50                     51
                     A                      A                      A
 Frequencies --   872.3691               919.3846               956.3295
 Red. masses --     1.6592                 5.3773                 4.6416
 Frc consts  --     0.7440                 2.6780                 2.5011
 IR Inten    --     4.6592                78.1883                76.0521
 Raman Activ --     1.5404                 2.8950                 1.4330

                    52                     53                     54
                     A                      A                      A
 Frequencies --   968.8717               974.6307               982.5463
 Red. masses --     6.7806                 5.7122                 5.0879
 Frc consts  --     3.7502                 3.1969                 2.8940
 IR Inten    --    74.2130                46.5933                83.9125
 Raman Activ --     1.9935                 1.6701                 0.6638

                    55                     56                     57
                     A                      A                      A
 Frequencies --   996.2455              1011.1947              1016.2875
 Red. masses --     5.6028                 6.0819                 6.1468
 Frc consts  --     3.2763                 3.6640                 3.7405
 IR Inten    --   392.0363               180.0214               239.5863
 Raman Activ --     1.2707                 2.8930                 1.9539

                    58                     59                     60
                     A                      A                      A
 Frequencies --  1028.5050              1049.5203              1053.9724
 Red. masses --     5.8533                 6.4133                 5.3490
 Frc consts  --     3.6481                 4.1621                 3.5009
 IR Inten    --   156.0836                43.4738               216.5162
 Raman Activ --     5.0824                 0.8618                 6.5904

                    61                     62                     63
                     A                      A                      A
 Frequencies --  1060.9743              1066.0866              1066.6821
 Red. masses --     5.6215                 4.9025                 3.1540
 Frc consts  --     3.7283                 3.2828                 2.1144
 IR Inten    --    48.4704               106.3799                54.4917
 Raman Activ --    10.2186                13.5313                 9.7915

                    64                     65                     66
                     A                      A                      A
 Frequencies --  1089.5623              1103.0776              1108.1580
 Red. masses --     3.2311                 2.8615                 2.2447
 Frc consts  --     2.2600                 2.0514                 1.6241
 IR Inten    --    25.7558                 5.1390                43.7107
 Raman Activ --     7.2348                 6.5030                 6.9676

                    67                     68                     69
                     A                      A                      A
 Frequencies --  1119.3398              1122.7799              1132.6482
 Red. masses --     1.9836                 1.9321                 2.0566
 Frc consts  --     1.4643                 1.4351                 1.5545
 IR Inten    --     4.0635                29.8107                59.4297
 Raman Activ --     1.2001                 3.1713                 6.8860

                    70                     71                     72
                     A                      A                      A
 Frequencies --  1134.9510              1140.0519              1155.9070
 Red. masses --     2.3425                 2.6382                 2.5221
 Frc consts  --     1.7778                 2.0202                 1.9855
 IR Inten    --    28.8341                62.6160                49.5555
 Raman Activ --     2.9787                 4.8643                 1.3327

                    73                     74                     75
                     A                      A                      A
 Frequencies --  1164.7233              1167.7291              1186.4711
 Red. masses --     1.9652                 1.6839                 1.7100
 Frc consts  --     1.5708                 1.3529                 1.4183
 IR Inten    --     6.1119                14.1521                18.0428
 Raman Activ --     3.1564                 4.2150                 2.7433

                    76                     77                     78
                     A                      A                      A
 Frequencies --  1204.8417              1211.5518              1223.7507
 Red. masses --     1.2984                 1.4898                 1.3586
 Frc consts  --     1.1105                 1.2885                 1.1988
 IR Inten    --     8.4545                10.4914                 6.6375
 Raman Activ --     1.7219                 2.9397                 3.4448

                    79                     80                     81
                     A                      A                      A
 Frequencies --  1231.3821              1248.8071              1255.7631
 Red. masses --     1.2984                 1.4466                 1.3265
 Frc consts  --     1.1599                 1.3292                 1.2325
 IR Inten    --     5.1150                 5.3806                25.0779
 Raman Activ --     0.6261                 1.6123                 2.3272

                    82                     83                     84
                     A                      A                      A
 Frequencies --  1260.5623              1268.6924              1280.2525
 Red. masses --     1.3654                 1.2730                 1.2193
 Frc consts  --     1.2783                 1.2072                 1.1775
 IR Inten    --    12.2334                 2.1818                 7.5452
 Raman Activ --     4.1521                 3.6988                 2.4589

                    85                     86                     87
                     A                      A                      A
 Frequencies --  1287.0727              1290.4842              1301.5880
 Red. masses --     1.2936                 1.1981                 1.2631
 Frc consts  --     1.2626                 1.1756                 1.2608
 IR Inten    --    15.6242                18.2806                49.2739
 Raman Activ --     2.4893                 4.4968                10.5301

                    88                     89                     90
                     A                      A                      A
 Frequencies --  1320.1421              1325.0731              1334.0486
 Red. masses --     1.3161                 1.2657                 1.1203
 Frc consts  --     1.3514                 1.3093                 1.1747
 IR Inten    --    22.0945                21.1698                39.7078
 Raman Activ --     5.3161                 5.4324                 4.3977

                    91                     92                     93
                     A                      A                      A
 Frequencies --  1341.9386              1348.2559              1351.9487
 Red. masses --     1.2589                 1.2323                 1.2699
 Frc consts  --     1.3357                 1.3198                 1.3675
 IR Inten    --    53.0775                 5.8432                 7.5262
 Raman Activ --     4.2152                 1.8876                 0.7291

                    94                     95                     96
                     A                      A                      A
 Frequencies --  1358.4612              1361.0318              1369.8472
 Red. masses --     1.3087                 1.6668                 1.4085
 Frc consts  --     1.4229                 1.8192                 1.5572
 IR Inten    --    26.5796                 9.7678                29.5954
 Raman Activ --     4.5471                 5.3991                 3.0894

                    97                     98                     99
                     A                      A                      A
 Frequencies --  1379.3506              1392.0676              1396.1314
 Red. masses --     1.2372                 1.4043                 1.4347
 Frc consts  --     1.3869                 1.6034                 1.6477
 IR Inten    --     8.6172                 2.3525                 3.2385
 Raman Activ --     3.6663                 5.7580                 3.9747

                   100                    101                    102
                     A                      A                      A
 Frequencies --  1404.6440              1432.0089              1446.3288
 Red. masses --     1.4228                 1.2690                 1.3718
 Frc consts  --     1.6539                 1.5333                 1.6907
 IR Inten    --    15.3370                17.5691                46.4460
 Raman Activ --     2.5843                 2.0711                 1.6920

                   103                    104                    105
                     A                      A                      A
 Frequencies --  1450.7810              1467.1721              1475.1309
 Red. masses --     1.3888                 1.3898                 1.0722
 Frc consts  --     1.7223                 1.7626                 1.3746
 IR Inten    --    30.5047                33.1613                 3.1671
 Raman Activ --     2.0560                 2.2081                 5.5268

                   106                    107                    108
                     A                      A                      A
 Frequencies --  1478.1589              1503.5697              3208.1236
 Red. masses --     1.1027                 1.2923                 1.0708
 Frc consts  --     1.4196                 1.7213                 6.4933
 IR Inten    --     4.5700                31.7263              1444.2581
 Raman Activ --     3.1034                 0.9074               184.4825

                   109                    110                    111
                     A                      A                      A
 Frequencies --  3253.0864              3258.0159              3258.3260
 Red. masses --     1.0587                 1.0819                 1.0811
 Frc consts  --     6.6013                 6.7661                 6.7623
 IR Inten    --    27.4999                15.1434                13.3884
 Raman Activ --    71.1718                 2.6964                78.6501

                   112                    113                    114
                     A                      A                      A
 Frequencies --  3266.7973              3267.8165              3274.3605
 Red. masses --     1.0630                 1.0771                 1.0816
 Frc consts  --     6.6839                 6.7768                 6.8320
 IR Inten    --     9.6887                 1.9845                11.7440
 Raman Activ --   195.0638                16.5817               141.5129

                   115                    116                    117
                     A                      A                      A
 Frequencies --  3278.0347              3281.5395              3286.0829
 Red. masses --     1.0841                 1.0840                 1.0861
 Frc consts  --     6.8637                 6.8775                 6.9102
 IR Inten    --     1.7899                 4.5732                70.7793
 Raman Activ --    35.8266                 8.7124               100.7240

                   118                    119                    120
                     A                      A                      A
 Frequencies --  3291.7424              3298.0511              3305.6082
 Red. masses --     1.0870                 1.0914                 1.0871
 Frc consts  --     6.9393                 6.9942                 6.9985
 IR Inten    --     8.5336                52.7537                29.1872
 Raman Activ --    86.9672                10.9504                11.9688

                   121                    122                    123
                     A                      A                      A
 Frequencies --  3310.0140              3327.4702              3355.4002
 Red. masses --     1.0985                 1.1081                 1.0661
 Frc consts  --     7.0912                 7.2287                 7.0718
 IR Inten    --    72.1072                35.7285               187.6290
 Raman Activ --    17.9443                45.1619               126.4741

                   124                    125                    126
                     A                      A                      A
 Frequencies --  3356.7906              3368.5261              3368.9287
 Red. masses --     1.0655                 1.0669                 1.0684
 Frc consts  --     7.0736                 7.1328                 7.1444
 IR Inten    --    29.5873                54.3131                52.0127
 Raman Activ --    89.3884               142.7933               152.9890

                   127                    128                    129
                     A                      A                      A
 Frequencies --  3370.0784              3888.9800              3894.8570
 Red. masses --     1.0669                 1.0677                 1.0672
 Frc consts  --     7.1389                 9.5143                 9.5387
 IR Inten    --    42.1651                79.3286                82.8153
 Raman Activ --   164.2846                82.3281               111.8396

 - Thermochemistry -
 -------------------
 Temperature   298.150 Kelvin.  Pressure   1.00000 Atm.
 Atom     1 has atomic number  8 and mass  15.99491

 Molecular mass:   342.11621 amu.
 Principal axes and moments of inertia in atomic units:
                           1         2         3
     Eigenvalues --  4390.62863********************
           X            0.99997   0.00784   0.00057
           Y           -0.00784   0.99997   0.00056
           Z           -0.00056  -0.00057   1.00000
 This molecule is an asymmetric top.
 Rotational symmetry number  1.
 Warning -- assumption of classical behavior for rotation
           may cause significant error
 Rotational temperatures (Kelvin)      0.01973     0.00678     0.00519
 Rotational constants (GHZ):           0.41104     0.14137     0.10822
    7 imaginary frequencies ignored.
 Zero-point vibrational energy     972045.3 (Joules/Mol)
                                  232.32441 (Kcal/Mol)
 Warning -- explicit consideration of  33 degrees of freedom as
           vibrations may cause significant error
 Vibrational temperatures:     50.74    90.66   112.34   131.32   203.39
          (Kelvin)            226.47   243.32   272.22   308.64   335.54
                              385.65   402.35   418.76   423.10   439.00
                              458.91   467.56   505.66   508.77   545.68
                              589.98   605.15   612.04   628.50   680.15
                              705.89   735.53   760.30   807.68   831.38
                              845.65   864.97   874.21   953.90   966.71
                             1022.57  1044.41  1062.87  1074.69  1168.82
                             1230.14  1255.14  1322.79  1375.94  1393.99
                             1402.27  1413.66  1433.37  1454.88  1462.21
                             1479.79  1510.02  1516.43  1526.50  1533.86
                             1534.72  1567.64  1587.08  1594.39  1610.48
                             1615.43  1629.63  1632.94  1640.28  1663.09
                             1675.77  1680.10  1707.07  1733.50  1743.15
                             1760.70  1771.68  1796.75  1806.76  1813.67
                             1825.36  1842.00  1851.81  1856.72  1872.69
                             1899.39  1906.48  1919.40  1930.75  1939.84
                             1945.15  1954.52  1958.22  1970.90  1984.58
                             2002.87  2008.72  2020.97  2060.34  2080.94
                             2087.35  2110.93  2122.38  2126.74  2163.30
                             4615.77  4680.46  4687.55  4688.00  4700.19
                             4701.65  4711.07  4716.35  4721.40  4727.93
                             4736.08  4745.15  4756.03  4762.37  4787.48
                             4827.67  4829.67  4846.55  4847.13  4848.79
                             5595.37  5603.82

 Zero-point correction=                           0.370233 (Hartree/Particle)
 Thermal correction to Energy=                    0.388628
 Thermal correction to Enthalpy=                  0.389573
 Thermal correction to Gibbs Free Energy=         0.324550
 Sum of electronic and zero-point Energies=          -1297.611215
 Sum of electronic and thermal Energies=             -1297.592819
 Sum of electronic and thermal Enthalpies=           -1297.591875
 Sum of electronic and thermal Free Energies=        -1297.656897

                     E (Thermal)             CV                S
                      KCal/Mol        Cal/Mol-Kelvin    Cal/Mol-Kelvin
 Total                  243.868             76.378            136.851
 Electronic               0.000              0.000              0.000
 Translational            0.889              2.981             43.384
 Rotational               0.889              2.981             35.190
 Vibrational            242.091             70.417             58.277
 Vibration     1          0.594              1.982              5.509
 Vibration     2          0.597              1.972              4.361
 Vibration     3          0.599              1.964              3.939
 Vibration     4          0.602              1.955              3.633
 Vibration     5          0.615              1.912              2.785
 Vibration     6          0.621              1.894              2.581
 Vibration     7          0.625              1.880              2.445
 Vibration     8          0.633              1.855              2.236
 Vibration     9          0.644              1.819              2.005
 Vibration    10          0.654              1.790              1.854
 Vibration    11          0.673              1.732              1.609
 Vibration    12          0.680              1.711              1.536
 Vibration    13          0.687              1.690              1.468
 Vibration    14          0.689              1.685              1.450
 Vibration    15          0.696              1.664              1.389
 Vibration    16          0.705              1.637              1.315
 Vibration    17          0.709              1.626              1.285
 Vibration    18          0.728              1.572              1.160
 Vibration    19          0.730              1.568              1.150
 Vibration    20          0.749              1.514              1.042
 Vibration    21          0.774              1.448              0.926
 Vibration    22          0.783              1.425              0.890
 Vibration    23          0.787              1.415              0.874
 Vibration    24          0.797              1.390              0.837
 Vibration    25          0.830              1.311              0.730
 Vibration    26          0.846              1.271              0.682
 Vibration    27          0.866              1.225              0.631
 Vibration    28          0.883              1.187              0.591
 Vibration    29          0.917              1.115              0.521
 Vibration    30          0.934              1.079              0.489
 Vibration    31          0.945              1.058              0.471
 Vibration    32          0.959              1.029              0.448
 Vibration    33          0.966              1.016              0.437

 Normal termination of Gaussian 09 at Wed Mar 23 04:42:36 2016.
