 Gaussian 09, Revision B.01,
 Gaussian 09:  EM64L-G09RevB.01 12-Aug-2010

 --------------------------------------------------
 # freq=raman b3lyp/6-31+g(2df,p) geom=connectivity
 --------------------------------------------------

 ------------
 400 8000.com
 ------------
 Symbolic Z-matrix:
 Charge =  0 Multiplicity = 1

                         Standard orientation:
 ---------------------------------------------------------------------
 Center     Atomic      Atomic             Coordinates (Angstroms)
 Number     Number       Type             X           Y           Z
 ---------------------------------------------------------------------
      1          8           0        5.073436   -0.341346   -0.652280
      2          6           0        3.804615   -0.074595   -0.037008
      3          6           0        3.221657    1.290381   -0.366679
      4          8           0        4.137627    2.361423   -0.096318
      5          1           0        5.031767    1.999574   -0.359282
      6          6           0        1.858734    1.588011    0.236256
      7          8           0        1.229914    2.614888   -0.542658
      8          1           0        0.312867    2.852238   -0.222306
      9          6           0        3.174185   -2.472307    0.480952
     10          8           0        4.171116   -3.212653   -0.238476
     11          1           0        3.858105   -4.149849   -0.080844
     12          6           0        2.732078   -1.148195   -0.120022
     13          8           0        1.582329   -0.751118    0.641835
     14          6           0        0.959287    0.382103    0.021059
     15          8           0       -0.205730    0.416206    0.858478
     16          6           0       -1.468049    0.162966    0.223596
     17          6           0       -2.083177   -1.223927    0.316418
     18          8           0       -1.051676   -2.127510   -0.104964
     19          1           0       -0.136209   -1.865147    0.199891
     20          6           0       -3.416263   -1.443362   -0.382230
     21          8           0       -4.006326   -2.701521   -0.022216
     22          1           0       -4.972486   -2.768336   -0.272139
     23          6           0       -2.153240    2.464165    0.701014
     24          8           0       -1.500954    3.146458   -0.380274
     25          1           0       -1.559184    4.143727   -0.324681
     26          6           0       -2.631348    1.020895    0.691644
     27          8           0       -3.752324    0.954905   -0.201673
     28          6           0       -4.393832   -0.321643   -0.072876
     29          8           0       -5.513311   -0.484762   -0.956320
     30          1           0       -6.328920   -0.357684   -0.466184
     31          1           0       -4.734630   -0.432463    0.935328
     32          1           0       -3.240364   -1.449028   -1.437657
     33          1           0       -2.253208   -1.413835    1.355612
     34          1           0       -1.328266    0.369481   -0.816938
     35          1           0       -2.929830    0.727956    1.676528
     36          1           0       -1.489275    2.543888    1.536295
     37          1           0       -3.014734    3.053111    0.937383
     38          1           0        5.768928   -0.272949    0.005909
     39          1           0        2.309016   -3.094413    0.577729
     40          1           0        3.553988   -2.277344    1.462094
     41          1           0        2.450936   -1.295068   -1.141926
     42          1           0        4.034002   -0.017754    1.006568
     43          1           0        3.075505    1.292296   -1.426649
     44          1           0        1.926365    1.856120    1.269911
     45          1           0        0.724943    0.208766   -1.008473
 ---------------------------------------------------------------------

 SCF Done:  E(RB3LYP) =  -1297.99296126     A.U. after   13 cycles

 The electronic state is 1-A.
 Alpha  occ. eigenvalues --  -19.18950 -19.18592 -19.18393 -19.18285 -19.18277
 Alpha  occ. eigenvalues --  -19.17411 -19.16246 -19.16028 -19.15512 -19.14102
 Alpha  occ. eigenvalues --  -19.13793 -10.30900 -10.30434 -10.26612 -10.25381
 Alpha  occ. eigenvalues --  -10.25312 -10.25282 -10.25137 -10.24928 -10.24718
 Alpha  occ. eigenvalues --  -10.24617 -10.24145 -10.23889  -1.10417  -1.09228
 Alpha  occ. eigenvalues --   -1.05434  -1.05000  -1.04032  -1.03790  -1.02852
 Alpha  occ. eigenvalues --   -1.02540  -1.02322  -1.00781  -1.00405  -0.82680
 Alpha  occ. eigenvalues --   -0.80185  -0.79263  -0.78445  -0.71903  -0.70081
 Alpha  occ. eigenvalues --   -0.67682  -0.65375  -0.63209  -0.62210  -0.61880
 Alpha  occ. eigenvalues --   -0.60495  -0.56658  -0.55957  -0.55131  -0.54614
 Alpha  occ. eigenvalues --   -0.54156  -0.53631  -0.52982  -0.52403  -0.51982
 Alpha  occ. eigenvalues --   -0.50669  -0.50029  -0.49068  -0.48459  -0.46070
 Alpha  occ. eigenvalues --   -0.45935  -0.45818  -0.44500  -0.44045  -0.43510
 Alpha  occ. eigenvalues --   -0.42616  -0.41979  -0.41259  -0.40554  -0.39595
 Alpha  occ. eigenvalues --   -0.38955  -0.38339  -0.36742  -0.36338  -0.35645
 Alpha  occ. eigenvalues --   -0.35318  -0.35156  -0.34650  -0.33915  -0.33644
 Alpha  occ. eigenvalues --   -0.33081  -0.31684  -0.31515  -0.30600  -0.30037
 Alpha  occ. eigenvalues --   -0.29663  -0.28940  -0.28415  -0.28164  -0.26703
 Alpha  occ. eigenvalues --   -0.25953
 Alpha virt. eigenvalues --   -0.02318  -0.02029  -0.01941  -0.00495   0.00227
 Alpha virt. eigenvalues --    0.01253   0.01727   0.02222   0.02851   0.03237
 Alpha virt. eigenvalues --    0.03658   0.03995   0.04487   0.05080   0.05649

 Mulliken atomic charges:
              1
     1  O   -0.440773
     2  C   -0.386362
     3  C    0.168597
     4  O   -0.471349
     5  H    0.338841
     6  C   -0.067595
     7  O   -0.462388
     8  H    0.404230
     9  C   -0.315230
    10  O   -0.403606
    11  H    0.333866
    12  C    0.057824
    13  O   -0.050128
    14  C   -0.021187
    15  O   -0.080200
    16  C   -0.011121
    17  C   -0.000259
    18  O   -0.502987
    19  H    0.392517
    20  C    0.096298
    21  O   -0.462908
    22  H    0.352907
    23  C   -0.444584
    24  O   -0.506823
    25  H    0.378465
    26  C    0.114378
    27  O   -0.070638
    28  C   -0.088973
    29  O   -0.484205
    30  H    0.346350
    31  H    0.130189
    32  H    0.141004
    33  H    0.122541
    34  H    0.139471
    35  H    0.136742
    36  H    0.162718
    37  H    0.138828
    38  H    0.355097
    39  H    0.143252
    40  H    0.145132
    41  H    0.121069
    42  H    0.118870
    43  H    0.132814
    44  H    0.139882
    45  H    0.159434
 Sum of Mulliken atomic charges =   0.00000

 Dipole moment (field-independent basis, Debye):
    X=             -2.9718    Y=              0.7411    Z=              4.0240  Tot=              5.0570
 Quadrupole moment (field-independent basis, Debye-Ang):
   XX=           -112.9480   YY=           -139.4530   ZZ=           -141.8466
   XY=            -11.6448   XZ=             -1.1023   YZ=              2.9299

  Exact polarizability: 235.523   1.889 193.910  -0.649   0.360 145.423
 Approx polarizability: 278.023   2.471 253.521  -0.748  -0.768 241.165

 ******    5 imaginary frequencies (negative Signs) ******

                     1                      2                      3
                     A                      A                      A
 Frequencies --  -265.9840              -260.8170              -148.6300
 Red. masses --     1.6432                 1.7816                 1.4745
 Frc consts  --     0.0685                 0.0714                 0.0192
 IR Inten    --     8.6692                 5.4519                92.1861
 Raman Activ --     0.0527                 0.1649                 0.7040

                     4                      5                      6
                     A                      A                      A
 Frequencies --   -84.4246               -34.2751                31.1112
 Red. masses --     6.8225                 5.5990                 6.7909
 Frc consts  --     0.0287                 0.0039                 0.0039
 IR Inten    --     2.7243                 2.0977                 0.3706
 Raman Activ --     0.0527                 0.0352                 0.0250

                     7                      8                      9
                     A                      A                      A
 Frequencies --    34.7008                60.4902                73.9092
 Red. masses --     5.7838                 6.1502                 5.9112
 Frc consts  --     0.0041                 0.0133                 0.0190
 IR Inten    --     3.9632                 4.6499                 5.9200
 Raman Activ --     0.1390                 0.1960                 0.0771

                    10                     11                     12
                     A                      A                      A
 Frequencies --    83.0494               132.1261               143.5565
 Red. masses --     6.1777                 5.9807                 6.4150
 Frc consts  --     0.0251                 0.0615                 0.0779
 IR Inten    --     0.8057                 0.5628                 2.3364
 Raman Activ --     0.0612                 0.2533                 0.2917

                    13                     14                     15
                     A                      A                      A
 Frequencies --   168.1142               179.2744               195.0105
 Red. masses --     7.3847                 6.1622                 1.5225
 Frc consts  --     0.1230                 0.1167                 0.0341
 IR Inten    --     5.0235                 4.7516                80.1550
 Raman Activ --     0.5589                 0.8612                 0.4341

                    16                     17                     18
                     A                      A                      A
 Frequencies --   207.9866               238.0726               242.2242
 Red. masses --     4.0479                 4.1199                 6.0624
 Frc consts  --     0.1032                 0.1376                 0.2096
 IR Inten    --     7.8430                 5.3459                 4.2886
 Raman Activ --     0.4667                 2.6798                 0.9333

                    19                     20                     21
                     A                      A                      A
 Frequencies --   263.2343               290.3149               294.9132
 Red. masses --     4.6630                 4.1409                 5.0620
 Frc consts  --     0.1904                 0.2056                 0.2594
 IR Inten    --    23.1991                 6.5280                 2.1870
 Raman Activ --     0.3570                 0.0813                 0.5407

                    22                     23                     24
                     A                      A                      A
 Frequencies --   303.1400               310.3828               328.3209
 Red. masses --     3.8055                 6.0364                 6.2416
 Frc consts  --     0.2060                 0.3426                 0.3964
 IR Inten    --     2.1817                 4.6336                 0.5084
 Raman Activ --     0.2303                 1.1278                 2.2448

                    25                     26                     27
                     A                      A                      A
 Frequencies --   331.5973               354.6273               378.7255
 Red. masses --     6.6700                 6.9877                 4.1056
 Frc consts  --     0.4321                 0.5178                 0.3470
 IR Inten    --     7.5669                 2.7326                 7.4194
 Raman Activ --     3.6692                 1.1043                 1.7883

                    28                     29                     30
                     A                      A                      A
 Frequencies --   400.5778               420.4636               428.1042
 Red. masses --     5.0957                 5.7061                 4.2464
 Frc consts  --     0.4818                 0.5944                 0.4585
 IR Inten    --     1.2561                 2.3548                 6.6937
 Raman Activ --     3.8011                 1.8320                 1.4024

                    31                     32                     33
                     A                      A                      A
 Frequencies --   462.3747               473.2942               507.4107
 Red. masses --     5.3038                 4.3221                 4.0022
 Frc consts  --     0.6681                 0.5704                 0.6071
 IR Inten    --     0.1592                12.0742                19.0656
 Raman Activ --     3.2295                 1.3978                 9.5992

                    34                     35                     36
                     A                      A                      A
 Frequencies --   519.3868               529.2747               553.1678
 Red. masses --     5.9624                 3.4042                 3.5140
 Frc consts  --     0.9477                 0.5619                 0.6335
 IR Inten    --    11.3255                 7.1632                38.6987
 Raman Activ --     2.3828                 1.1343                 1.3217

                    37                     38                     39
                     A                      A                      A
 Frequencies --   565.2923               594.1824               626.2878
 Red. masses --     3.3355                 3.7501                 5.1083
 Frc consts  --     0.6280                 0.7801                 1.1805
 IR Inten    --     5.5058                58.4232                 4.5900
 Raman Activ --     2.0109                 0.3740                 0.6200

                    40                     41                     42
                     A                      A                      A
 Frequencies --   658.3897               686.9464               693.4297
 Red. masses --     1.1039                 3.4845                 2.4348
 Frc consts  --     0.2819                 0.9688                 0.6898
 IR Inten    --    49.8983                20.5020                39.7693
 Raman Activ --     1.1270                 1.1485                 2.4073

                    43                     44                     45
                     A                      A                      A
 Frequencies --   703.7450               729.2223               751.2435
 Red. masses --     1.3628                 1.0907                 1.0673
 Frc consts  --     0.3977                 0.3417                 0.3549
 IR Inten    --    54.9074                90.0124                80.2936
 Raman Activ --     1.1848                 1.1703                 1.5252

                    46                     47                     48
                     A                      A                      A
 Frequencies --   787.1664               809.2718               841.0536
 Red. masses --     1.0518                 1.0871                 2.1391
 Frc consts  --     0.3840                 0.4195                 0.8915
 IR Inten    --    78.3075               180.2256                 5.0465
 Raman Activ --     0.9951                 1.2942                 2.1944

                    49                     50                     51
                     A                      A                      A
 Frequencies --   842.5331               883.2286               929.0231
 Red. masses --     2.3377                 2.3453                 6.3133
 Frc consts  --     0.9777                 1.0779                 3.2104
 IR Inten    --     6.4748                 7.2126               119.8436
 Raman Activ --     1.1388                 1.7996                 3.1823

                    52                     53                     54
                     A                      A                      A
 Frequencies --   970.7552               984.0758               990.5663
 Red. masses --     6.2435                 4.7657                 5.6508
 Frc consts  --     3.4666                 2.7192                 3.2669
 IR Inten    --   125.0274               102.2100               344.8606
 Raman Activ --     1.6064                 1.3651                 2.5833

                    55                     56                     57
                     A                      A                      A
 Frequencies --  1006.4980              1008.6818              1020.5957
 Red. masses --     6.8767                 5.0899                 5.9940
 Frc consts  --     4.1044                 3.0512                 3.6786
 IR Inten    --    48.2358               360.9489                37.9908
 Raman Activ --     3.8418                 1.3884                 3.3325

                    58                     59                     60
                     A                      A                      A
 Frequencies --  1042.5834              1051.5083              1059.8809
 Red. masses --     6.3382                 5.0717                 2.8478
 Frc consts  --     4.0592                 3.3039                 1.8848
 IR Inten    --   147.1295                44.4515                13.3702
 Raman Activ --     1.6305                 7.9056                 5.6630

                    61                     62                     63
                     A                      A                      A
 Frequencies --  1060.9220              1071.6192              1078.2765
 Red. masses --     3.8542                 5.1374                 4.9406
 Frc consts  --     2.5559                 3.4759                 3.3845
 IR Inten    --    23.1695                48.7464               188.4531
 Raman Activ --     4.3548                 3.9519                 2.9888

                    64                     65                     66
                     A                      A                      A
 Frequencies --  1095.9117              1099.3461              1111.5731
 Red. masses --     3.0665                 3.0610                 2.3090
 Frc consts  --     2.1700                 2.1796                 1.6809
 IR Inten    --    32.4845                20.4163                92.4216
 Raman Activ --     8.2219                 4.4585                 2.0025

                    67                     68                     69
                     A                      A                      A
 Frequencies --  1115.3842              1122.4306              1132.5151
 Red. masses --     2.3142                 3.1448                 2.5478
 Frc consts  --     1.6963                 2.3343                 1.9254
 IR Inten    --     7.4267                27.5201                13.9364
 Raman Activ --     4.7478                 5.9911                11.6624

                    70                     71                     72
                     A                      A                      A
 Frequencies --  1138.4168              1144.8332              1159.6882
 Red. masses --     2.1839                 2.0771                 2.0293
 Frc consts  --     1.6676                 1.6039                 1.6079
 IR Inten    --    19.9507                12.0951                22.7121
 Raman Activ --     3.2117                 1.1422                 2.1246

                    73                     74                     75
                     A                      A                      A
 Frequencies --  1165.1953              1169.6706              1179.6803
 Red. masses --     2.0257                 1.5215                 2.5288
 Frc consts  --     1.6204                 1.2265                 2.0735
 IR Inten    --    19.6136                 3.7714                 7.0698
 Raman Activ --     5.1759                 2.4051                 1.4807

                    76                     77                     78
                     A                      A                      A
 Frequencies --  1194.3550              1210.5386              1221.7432
 Red. masses --     1.4904                 1.4162                 1.2405
 Frc consts  --     1.2526                 1.2228                 1.0910
 IR Inten    --    14.7063                 6.3388                17.1298
 Raman Activ --     2.0793                 0.7279                 3.7311

                    79                     80                     81
                     A                      A                      A
 Frequencies --  1231.3567              1250.2459              1262.0452
 Red. masses --     1.2619                 1.2877                 1.2402
 Frc consts  --     1.1273                 1.1859                 1.1638
 IR Inten    --     1.4080                31.0431                19.9549
 Raman Activ --     2.5451                 0.6775                 2.8839

                    82                     83                     84
                     A                      A                      A
 Frequencies --  1266.2020              1278.1229              1287.6769
 Red. masses --     1.3124                 1.2543                 1.2408
 Frc consts  --     1.2397                 1.2073                 1.2122
 IR Inten    --     4.4993                41.0956                 9.4766
 Raman Activ --     6.0845                 5.5028                 3.2206

                    85                     86                     87
                     A                      A                      A
 Frequencies --  1294.7067              1299.4192              1304.6035
 Red. masses --     1.3309                 1.2720                 1.3081
 Frc consts  --     1.3144                 1.2654                 1.3117
 IR Inten    --    19.9140                28.7637                37.1408
 Raman Activ --     2.5966                 2.6312                 2.4559

                    88                     89                     90
                     A                      A                      A
 Frequencies --  1312.8606              1318.4373              1323.6979
 Red. masses --     1.2750                 1.2328                 1.2476
 Frc consts  --     1.2948                 1.2626                 1.2879
 IR Inten    --    21.1129                10.6386                 2.9307
 Raman Activ --     7.8281                11.8226                 5.1391

                    91                     92                     93
                     A                      A                      A
 Frequencies --  1333.1407              1344.6792              1351.2732
 Red. masses --     1.3306                 1.2820                 1.2299
 Frc consts  --     1.3933                 1.3658                 1.3231
 IR Inten    --    25.0955                 6.8750                29.3887
 Raman Activ --     2.6077                 1.4525                 2.7994

                    94                     95                     96
                     A                      A                      A
 Frequencies --  1355.3744              1364.6139              1371.1497
 Red. masses --     1.5246                 1.6325                 1.2122
 Frc consts  --     1.6501                 1.7911                 1.3428
 IR Inten    --    36.3542                18.9556                35.9162
 Raman Activ --     6.4045                 4.7831                 0.8070

                    97                     98                     99
                     A                      A                      A
 Frequencies --  1377.9883              1401.9905              1413.9511
 Red. masses --     1.3194                 1.6683                 1.1758
 Frc consts  --     1.4762                 1.9321                 1.3850
 IR Inten    --    17.8869                14.1185                 7.3492
 Raman Activ --     1.3491                 2.6593                 4.6558

                   100                    101                    102
                     A                      A                      A
 Frequencies --  1415.5745              1425.6733              1432.4915
 Red. masses --     1.2539                 1.2806                 1.3777
 Frc consts  --     1.4804                 1.5336                 1.6657
 IR Inten    --     2.0163                47.2030                30.0021
 Raman Activ --     9.1282                 0.7078                 1.7803

                   103                    104                    105
                     A                      A                      A
 Frequencies --  1437.9488              1456.5056              1460.1646
 Red. masses --     1.2948                 1.2373                 1.0919
 Frc consts  --     1.5774                 1.5465                 1.3716
 IR Inten    --    11.8168                15.6401                 7.5300
 Raman Activ --     0.1588                 4.0352                 4.6763

                   106                    107                    108
                     A                      A                      A
 Frequencies --  1461.2615              1500.6568              3251.2501
 Red. masses --     1.2797                 1.2666                 1.0703
 Frc consts  --     1.6100                 1.6805                 6.6657
 IR Inten    --    57.5293                29.2842                11.1644
 Raman Activ --     2.2197                 0.7384                13.4793

                   109                    110                    111
                     A                      A                      A
 Frequencies --  3253.9039              3254.3772              3258.5303
 Red. masses --     1.0634                 1.0641                 1.0803
 Frc consts  --     6.6334                 6.6402                 6.7586
 IR Inten    --    41.2346               108.6879                 5.6764
 Raman Activ --    62.4701               187.2993                73.6446

                   112                    113                    114
                     A                      A                      A
 Frequencies --  3268.1716              3269.2455              3276.4086
 Red. masses --     1.0822                 1.0835                 1.0820
 Frc consts  --     6.8104                 6.8232                 6.8437
 IR Inten    --     5.7740                18.1982                68.1790
 Raman Activ --    16.4774                89.4107                41.5043

                   115                    116                    117
                     A                      A                      A
 Frequencies --  3278.5773              3280.8639              3287.9301
 Red. masses --     1.0729                 1.0837                 1.0846
 Frc consts  --     6.7950                 6.8729                 6.9079
 IR Inten    --   369.0662                73.6288                 5.8889
 Raman Activ --   290.7685                53.8158                94.4776

                   118                    119                    120
                     A                      A                      A
 Frequencies --  3295.6731              3297.6308              3300.0942
 Red. masses --     1.0867                 1.0855                 1.1018
 Frc consts  --     6.9545                 6.9550                 7.0696
 IR Inten    --    76.6233                12.8960                30.7923
 Raman Activ --    16.1376                50.6180                53.5307

                   121                    122                    123
                     A                      A                      A
 Frequencies --  3306.0994              3308.7623              3311.6585
 Red. masses --     1.0821                 1.1002                 1.0778
 Frc consts  --     6.9684                 7.0968                 6.9643
 IR Inten    --   169.4288                37.4212               302.5375
 Raman Activ --    36.7649                26.1489               111.5428

                   124                    125                    126
                     A                      A                      A
 Frequencies --  3353.4788              3356.2179              3357.4492
 Red. masses --     1.0651                 1.0693                 1.0668
 Frc consts  --     7.0570                 7.0966                 7.0855
 IR Inten    --    31.3037                29.7398               105.5361
 Raman Activ --    94.5270               119.7696                83.2882

                   127                    128                    129
                     A                      A                      A
 Frequencies --  3357.7485              3870.1565              3874.7623
 Red. masses --     1.0675                 1.0679                 1.0674
 Frc consts  --     7.0912                 9.4242                 9.4421
 IR Inten    --    35.3761                84.2343                75.7608
 Raman Activ --   168.5368                80.3546               124.9662

 - Thermochemistry -
 -------------------
 Temperature   298.150 Kelvin.  Pressure   1.00000 Atm.
 Atom     1 has atomic number  8 and mass  15.99491

 Molecular mass:   342.11621 amu.
 Principal axes and moments of inertia in atomic units:
                           1         2         3
     Eigenvalues --  4307.17312********************
           X            0.99998  -0.00562  -0.00119
           Y            0.00562   0.99998   0.00221
           Z            0.00117  -0.00222   1.00000
 This molecule is an asymmetric top.
 Rotational symmetry number  1.
 Warning -- assumption of classical behavior for rotation
           may cause significant error
 Rotational temperatures (Kelvin)      0.02011     0.00684     0.00531
 Rotational constants (GHZ):           0.41901     0.14246     0.11054
    5 imaginary frequencies ignored.
 Zero-point vibrational energy     972863.0 (Joules/Mol)
                                  232.51985 (Kcal/Mol)
 Warning -- explicit consideration of  33 degrees of freedom as
           vibrations may cause significant error
 Vibrational temperatures:     44.76    49.93    87.03   106.34   119.49
          (Kelvin)            190.10   206.55   241.88   257.94   280.58
                              299.25   342.53   348.51   378.73   417.70
                              424.31   436.15   446.57   472.38   477.09
                              510.23   544.90   576.34   604.95   615.95
                              665.25   680.96   730.05   747.28   761.51
                              795.88   813.33   854.89   901.09   947.27
                              988.36   997.69  1012.53  1049.19  1080.87
                             1132.56  1164.36  1210.09  1212.22  1270.77
                             1336.66  1396.70  1415.86  1425.20  1448.12
                             1451.27  1468.41  1500.04  1512.88  1524.93
                             1526.43  1541.82  1551.40  1576.77  1581.71
                             1599.30  1604.79  1614.93  1629.43  1637.93
                             1647.16  1668.53  1676.45  1682.89  1697.29
                             1718.41  1741.69  1757.81  1771.65  1798.82
                             1815.80  1821.78  1838.93  1852.68  1862.79
                             1869.57  1877.03  1888.91  1896.93  1904.50
                             1918.09  1934.69  1944.18  1950.08  1963.37
                             1972.78  1982.62  2017.15  2034.36  2036.69
                             2051.22  2061.03  2068.89  2095.58  2100.85
                             2102.43  2159.11  4677.82  4681.64  4682.32
                             4688.29  4702.16  4703.71  4714.02  4717.14
                             4720.43  4730.59  4741.73  4744.55  4748.09
                             4756.73  4760.57  4764.73  4824.90  4828.84
                             4830.61  4831.05  5568.29  5574.91

 Zero-point correction=                           0.370544 (Hartree/Particle)
 Thermal correction to Energy=                    0.390479
 Thermal correction to Enthalpy=                  0.391423
 Thermal correction to Gibbs Free Energy=         0.322186
 Sum of electronic and zero-point Energies=          -1297.622417
 Sum of electronic and thermal Energies=             -1297.602482
 Sum of electronic and thermal Enthalpies=           -1297.601538
 Sum of electronic and thermal Free Energies=        -1297.670775

                     E (Thermal)             CV                S
                      KCal/Mol        Cal/Mol-Kelvin    Cal/Mol-Kelvin
 Total                  245.029             80.066            145.722
 Electronic               0.000              0.000              0.000
 Translational            0.889              2.981             43.384
 Rotational               0.889              2.981             35.142
 Vibrational            243.252             74.104             67.195
 Vibration     1          0.594              1.983              5.757
 Vibration     2          0.594              1.983              5.541
 Vibration     3          0.597              1.973              4.441
 Vibration     4          0.599              1.966              4.046
 Vibration     5          0.600              1.961              3.817
 Vibration     6          0.612              1.921              2.915
 Vibration     7          0.616              1.910              2.756
 Vibration     8          0.625              1.882              2.456
 Vibration     9          0.629              1.868              2.336
 Vibration    10          0.636              1.847              2.180
 Vibration    11          0.641              1.828              2.061
 Vibration    12          0.656              1.782              1.817
 Vibration    13          0.658              1.776              1.786
 Vibration    14          0.670              1.740              1.640
 Vibration    15          0.686              1.692              1.472
 Vibration    16          0.689              1.683              1.446
 Vibration    17          0.695              1.668              1.400
 Vibration    18          0.699              1.654              1.360
 Vibration    19          0.712              1.619              1.268
 Vibration    20          0.714              1.612              1.252
 Vibration    21          0.730              1.566              1.146
 Vibration    22          0.749              1.516              1.044
 Vibration    23          0.766              1.469              0.961
 Vibration    24          0.783              1.426              0.890
 Vibration    25          0.790              1.409              0.865
 Vibration    26          0.820              1.334              0.759
 Vibration    27          0.830              1.309              0.728
 Vibration    28          0.863              1.234              0.640
 Vibration    29          0.874              1.207              0.611
 Vibration    30          0.884              1.185              0.589
 Vibration    31          0.909              1.133              0.538
 Vibration    32          0.921              1.106              0.513
 Vibration    33          0.952              1.044              0.460

 Normal termination of Gaussian 09 at Tue Feb 16 08:30:03 2016.
