 Gaussian 09, Revision B.01,
 Gaussian 09:  EM64L-G09RevB.01 12-Aug-2010

 -------------------------------------------------
 # freq=raman b3lyp/6-31+g(2d,p) geom=connectivity
 -------------------------------------------------

 -----------------
 310 9770/9770.com
 -----------------
 Symbolic Z-matrix:
 Charge =  0 Multiplicity = 1

                         Standard orientation:
 ---------------------------------------------------------------------
 Center     Atomic      Atomic             Coordinates (Angstroms)
 Number     Number       Type             X           Y           Z
 ---------------------------------------------------------------------
      1          8           0        4.976651   -0.443438   -0.281941
      2          6           0        3.645253   -0.147043    0.164324
      3          6           0        3.246026    1.248132   -0.288802
      4          8           0        4.194699    2.284100    0.008329
      5          1           0        5.102665    1.896587    0.167718
      6          6           0        1.843423    1.610793    0.169447
      7          8           0        1.277042    2.765285   -0.468450
      8          1           0        0.352718    3.040035   -0.203232
      9          6           0        2.929152   -2.629195    0.137775
     10          8           0        4.202615   -3.224435   -0.152548
     11          1           0        4.024674   -4.204188   -0.058632
     12          6           0        2.589559   -1.183255   -0.184154
     13          8           0        1.268259   -0.818633    0.244247
     14          6           0        0.877431    0.492747   -0.187620
     15          8           0       -0.316553    0.731525    0.571362
     16          6           0       -1.486027    0.203295   -0.070377
     17          6           0       -1.895155   -1.149820    0.487833
     18          8           0       -1.055600   -2.215685    0.019910
     19          1           0       -0.109803   -1.908716    0.133863
     20          6           0       -3.244998   -1.535066   -0.094343
     21          8           0       -3.831759   -2.789195    0.283724
     22          1           0       -4.768937   -2.839332   -0.060977
     23          6           0       -2.261155    2.680130   -0.115731
     24          8           0       -1.242246    3.407779    0.586537
     25          1           0       -1.505035    4.372550    0.554729
     26          6           0       -2.580708    1.225342    0.192127
     27          8           0       -3.749996    0.788010   -0.515128
     28          6           0       -4.227606   -0.399066    0.136047
     29          8           0       -5.377145   -0.699830   -0.668214
     30          1           0       -6.103146   -0.969073   -0.100736
     31          1           0        5.527856   -0.656132    0.474718
     32          1           0        2.195295   -3.229295   -0.358446
     33          1           0        2.772654   -2.749066    1.189459
     34          1           0        2.539399   -1.156833   -1.252651
     35          1           0        3.688922   -0.115318    1.232961
     36          1           0        3.198518    1.200423   -1.356681
     37          1           0        1.842917    1.755198    1.229658
     38          1           0        0.663164    0.497425   -1.235937
     39          1           0       -3.171667    3.227410    0.012150
     40          1           0       -2.008785    2.725078   -1.154571
     41          1           0       -2.808546    1.174303    1.236342
     42          1           0       -1.313834    0.122034   -1.123299
     43          1           0       -1.931360   -1.131139    1.557057
     44          1           0       -3.099080   -1.591368   -1.152850
     45          1           0       -4.467510   -0.246414    1.167571
 ---------------------------------------------------------------------

 SCF Done:  E(RB3LYP) =  -1297.97161850     A.U. after   13 cycles

 The electronic state is 1-A.
 Alpha  occ. eigenvalues --  -19.19307 -19.19096 -19.17883 -19.17844 -19.17744
 Alpha  occ. eigenvalues --  -19.17286 -19.16990 -19.15642 -19.15246 -19.13531
 Alpha  occ. eigenvalues --  -19.13477 -10.30426 -10.30277 -10.26261 -10.25943
 Alpha  occ. eigenvalues --  -10.25793 -10.25557 -10.25228 -10.24802 -10.24692
 Alpha  occ. eigenvalues --  -10.24479 -10.24254 -10.23854  -1.10551  -1.09420
 Alpha  occ. eigenvalues --   -1.05729  -1.05394  -1.04261  -1.03492  -1.03332
 Alpha  occ. eigenvalues --   -1.02246  -1.01773  -1.00418  -0.99959  -0.82022
 Alpha  occ. eigenvalues --   -0.80961  -0.79047  -0.78387  -0.72077  -0.70326
 Alpha  occ. eigenvalues --   -0.67409  -0.64861  -0.63411  -0.62999  -0.61600
 Alpha  occ. eigenvalues --   -0.60354  -0.56501  -0.55869  -0.55080  -0.54785
 Alpha  occ. eigenvalues --   -0.54485  -0.53302  -0.53006  -0.51854  -0.51797
 Alpha  occ. eigenvalues --   -0.50300  -0.50028  -0.49947  -0.48853  -0.46719
 Alpha  occ. eigenvalues --   -0.46245  -0.45312  -0.44797  -0.44000  -0.43327
 Alpha  occ. eigenvalues --   -0.42206  -0.41943  -0.41305  -0.40158  -0.39508
 Alpha  occ. eigenvalues --   -0.39202  -0.37960  -0.37436  -0.36961  -0.36264
 Alpha  occ. eigenvalues --   -0.35509  -0.34775  -0.34482  -0.34271  -0.33066
 Alpha  occ. eigenvalues --   -0.32669  -0.31315  -0.30498  -0.30135  -0.29750
 Alpha  occ. eigenvalues --   -0.29437  -0.28768  -0.28174  -0.27694  -0.27047
 Alpha  occ. eigenvalues --   -0.26425
 Alpha virt. eigenvalues --   -0.02303  -0.02235  -0.01943  -0.00618   0.00310
 Alpha virt. eigenvalues --    0.01112   0.01735   0.02448   0.03202   0.03626
 Alpha virt. eigenvalues --    0.03847   0.04301   0.04922   0.05372   0.05768

 Mulliken atomic charges:
              1
     1  O   -0.518541
     2  C   -0.113310
     3  C    0.079641
     4  O   -0.549407
     5  H    0.336446
     6  C    0.165911
     7  O   -0.586637
     8  H    0.414246
     9  C   -0.253923
    10  O   -0.508473
    11  H    0.340696
    12  C    0.182485
    13  O   -0.268836
    14  C    0.127403
    15  O   -0.191714
    16  C    0.261648
    17  C    0.230223
    18  O   -0.568619
    19  H    0.384409
    20  C   -0.019324
    21  O   -0.570312
    22  H    0.334455
    23  C   -0.354103
    24  O   -0.548597
    25  H    0.359883
    26  C   -0.023295
    27  O   -0.261611
    28  C    0.161567
    29  O   -0.546824
    30  H    0.332627
    31  H    0.344944
    32  H    0.149163
    33  H    0.144518
    34  H    0.107348
    35  H    0.113656
    36  H    0.118858
    37  H    0.131342
    38  H    0.132332
    39  H    0.146398
    40  H    0.157158
    41  H    0.116911
    42  H    0.117537
    43  H    0.125287
    44  H    0.131583
    45  H    0.134853
 Sum of Mulliken atomic charges =   0.00000

 Dipole moment (field-independent basis, Debye):
    X=             -2.2024    Y=              0.0433    Z=              2.7997  Tot=              3.5624
 Quadrupole moment (field-independent basis, Debye-Ang):
   XX=           -121.0661   YY=           -135.9925   ZZ=           -139.8133
   XY=            -18.7354   XZ=              1.7404   YZ=              1.7250

  Exact polarizability: 231.287   1.394 199.756   0.905  -0.042 143.264
 Approx polarizability: 272.615   0.936 260.625   1.386   1.055 240.197

 ******    7 imaginary frequencies (negative Signs) ******

                     1                      2                      3
                     A                      A                      A
 Frequencies --  -331.8204              -296.3298              -235.8583
 Red. masses --     1.7002                 1.6673                 1.2217
 Frc consts  --     0.1103                 0.0863                 0.0400
 IR Inten    --     3.7727                 3.8019               119.2030
 Raman Activ --     0.0901                 0.0480                 1.0798

                     4                      5                      6
                     A                      A                      A
 Frequencies --  -206.3527               -72.4421               -53.5979
 Red. masses --     1.2000                 6.3834                 6.5287
 Frc consts  --     0.0301                 0.0197                 0.0111
 IR Inten    --   104.9755                 0.9082                 1.5861
 Raman Activ --     0.6896                 0.0222                 0.0344

                     7                      8                      9
                     A                      A                      A
 Frequencies --   -32.5503                43.1356                73.4910
 Red. masses --     6.7720                 6.6329                 6.6048
 Frc consts  --     0.0042                 0.0073                 0.0210
 IR Inten    --     1.6288                 0.8620                 3.6108
 Raman Activ --     0.0602                 0.0305                 0.1031

                    10                     11                     12
                     A                      A                      A
 Frequencies --    78.8735                86.1406               127.3710
 Red. masses --     6.9142                 6.5171                 5.8261
 Frc consts  --     0.0253                 0.0285                 0.0557
 IR Inten    --     0.8044                 0.9420                 1.6545
 Raman Activ --     0.0224                 0.3435                 0.0309

                    13                     14                     15
                     A                      A                      A
 Frequencies --   151.5446               183.8968               188.0405
 Red. masses --     6.0077                 7.2789                 5.5489
 Frc consts  --     0.0813                 0.1450                 0.1156
 IR Inten    --     3.8193                 0.0803                 3.7815
 Raman Activ --     0.4039                 0.2657                 0.4087

                    16                     17                     18
                     A                      A                      A
 Frequencies --   202.9104               230.7770               245.9579
 Red. masses --     6.7891                 6.3264                 4.4221
 Frc consts  --     0.1647                 0.1985                 0.1576
 IR Inten    --     0.4556                 1.7968                20.0281
 Raman Activ --     1.7932                 1.1090                 0.1638

                    19                     20                     21
                     A                      A                      A
 Frequencies --   284.2622               297.9854               304.2727
 Red. masses --     5.4066                 4.6382                 5.1099
 Frc consts  --     0.2574                 0.2427                 0.2787
 IR Inten    --     1.2342                 2.2442                 2.4653
 Raman Activ --     0.1853                 0.1799                 0.7564

                    22                     23                     24
                     A                      A                      A
 Frequencies --   310.0877               317.2468               325.2037
 Red. masses --     6.6278                 5.4409                 5.7808
 Frc consts  --     0.3755                 0.3226                 0.3602
 IR Inten    --     1.1136                 4.1389                 0.6873
 Raman Activ --     3.2242                 2.5531                 4.1901

                    25                     26                     27
                     A                      A                      A
 Frequencies --   331.2873               356.8551               384.8025
 Red. masses --     4.8850                 4.7275                 4.9274
 Frc consts  --     0.3159                 0.3547                 0.4299
 IR Inten    --    15.4996                 8.8256                 5.2303
 Raman Activ --     0.7114                 0.7365                 0.1570

                    28                     29                     30
                     A                      A                      A
 Frequencies --   406.5970               414.5786               427.7390
 Red. masses --     5.2233                 6.0787                 4.6820
 Frc consts  --     0.5088                 0.6156                 0.5047
 IR Inten    --    18.6099                 4.8415                 3.8647
 Raman Activ --     2.7642                 6.0924                 2.2633

                    31                     32                     33
                     A                      A                      A
 Frequencies --   448.0145               463.1409               492.9827
 Red. masses --     5.7184                 4.7345                 5.0487
 Frc consts  --     0.6763                 0.5983                 0.7229
 IR Inten    --     1.1955                 9.1997                11.4946
 Raman Activ --     3.8082                 4.3789                 0.8443

                    34                     35                     36
                     A                      A                      A
 Frequencies --   518.5019               524.2740               567.5109
 Red. masses --     3.4940                 3.1373                 4.4430
 Frc consts  --     0.5534                 0.5081                 0.8431
 IR Inten    --    14.8562                 0.9865                 9.6038
 Raman Activ --     0.9001                 4.5994                 1.4418

                    37                     38                     39
                     A                      A                      A
 Frequencies --   588.7345               603.7586               617.6026
 Red. masses --     3.4561                 5.4058                 3.8313
 Frc consts  --     0.7058                 1.1610                 0.8610
 IR Inten    --    22.9539                 2.3400                 2.7742
 Raman Activ --     0.2828                 1.1103                 0.3522

                    40                     41                     42
                     A                      A                      A
 Frequencies --   638.5622               675.6594               689.7323
 Red. masses --     4.3406                 1.1799                 4.4273
 Frc consts  --     1.0428                 0.3173                 1.2409
 IR Inten    --    51.1974                68.4989                23.5791
 Raman Activ --     1.5763                 1.9671                 0.8865

                    43                     44                     45
                     A                      A                      A
 Frequencies --   720.5920               724.4681               742.9851
 Red. masses --     1.0786                 1.0550                 1.0792
 Frc consts  --     0.3300                 0.3262                 0.3510
 IR Inten    --    92.3856                89.1565               122.4714
 Raman Activ --     1.5561                 1.7084                 1.5459

                    46                     47                     48
                     A                      A                      A
 Frequencies --   806.4918               849.4356               852.8178
 Red. masses --     1.1121                 1.4057                 1.4882
 Frc consts  --     0.4262                 0.5976                 0.6377
 IR Inten    --    46.5520                46.6759                10.7427
 Raman Activ --     0.1372                 1.0632                 0.8284

                    49                     50                     51
                     A                      A                      A
 Frequencies --   855.6682               928.9318               961.3246
 Red. masses --     1.4370                 6.2864                 4.3203
 Frc consts  --     0.6199                 3.1961                 2.3524
 IR Inten    --    32.3280                90.9286                71.9660
 Raman Activ --     0.4279                 3.2926                 0.4503

                    52                     53                     54
                     A                      A                      A
 Frequencies --   969.7853               971.9767               989.0532
 Red. masses --     4.7031                 7.6395                 5.5945
 Frc consts  --     2.6061                 4.2523                 3.2244
 IR Inten    --    48.3946                90.4641               161.4653
 Raman Activ --     2.3184                 1.4113                 1.9313

                    55                     56                     57
                     A                      A                      A
 Frequencies --   993.1436              1001.1623              1015.7767
 Red. masses --     7.4997                 5.6916                 5.5578
 Frc consts  --     4.3583                 3.3612                 3.3787
 IR Inten    --   168.1533                65.1390               158.9500
 Raman Activ --     1.1394                 3.1188                 1.2558

                    58                     59                     60
                     A                      A                      A
 Frequencies --  1034.2888              1049.4270              1057.0623
 Red. masses --     6.8088                 6.6597                 3.5940
 Frc consts  --     4.2915                 4.3213                 2.3660
 IR Inten    --   351.1265               163.0375                 3.0225
 Raman Activ --     3.2187                 0.8199                 7.9148

                    61                     62                     63
                     A                      A                      A
 Frequencies --  1066.0221              1075.7123              1084.8327
 Red. masses --     4.7515                 3.4598                 3.9670
 Frc consts  --     3.1814                 2.3588                 2.7507
 IR Inten    --   101.5274                11.1665                34.9550
 Raman Activ --     1.6964                17.7898                 4.3107

                    64                     65                     66
                     A                      A                      A
 Frequencies --  1094.5083              1110.1722              1115.4302
 Red. masses --     2.1425                 2.6859                 3.4783
 Frc consts  --     1.5122                 1.9504                 2.5498
 IR Inten    --    25.9536                15.3123                 2.6071
 Raman Activ --     3.0431                 4.7872                11.3767

                    67                     68                     69
                     A                      A                      A
 Frequencies --  1117.4939              1118.7352              1137.5288
 Red. masses --     3.0438                 2.4156                 2.8204
 Frc consts  --     2.2395                 1.7813                 2.1503
 IR Inten    --    26.9575                63.2837                25.9568
 Raman Activ --     6.5920                 3.9218                 8.7234

                    70                     71                     72
                     A                      A                      A
 Frequencies --  1149.6147              1153.7402              1159.2192
 Red. masses --     1.8380                 3.1384                 2.1117
 Frc consts  --     1.4312                 2.4614                 1.6719
 IR Inten    --    45.4939                 3.0992                11.3171
 Raman Activ --     1.0485                10.5396                 2.1412

                    73                     74                     75
                     A                      A                      A
 Frequencies --  1174.5099              1184.8991              1197.2029
 Red. masses --     1.6655                 1.5550                 1.6247
 Frc consts  --     1.3536                 1.2863                 1.3720
 IR Inten    --     5.3655                17.8126                13.8312
 Raman Activ --     3.3760                 1.4352                 2.4783

                    76                     77                     78
                     A                      A                      A
 Frequencies --  1206.4636              1226.6428              1230.4146
 Red. masses --     1.8204                 1.4408                 1.3334
 Frc consts  --     1.5611                 1.2773                 1.1894
 IR Inten    --     1.9608                30.1526                 7.5777
 Raman Activ --     2.5682                 1.2312                 1.1857

                    79                     80                     81
                     A                      A                      A
 Frequencies --  1234.9768              1248.6987              1257.8222
 Red. masses --     1.3112                 1.3755                 1.2051
 Frc consts  --     1.1782                 1.2636                 1.1233
 IR Inten    --     2.6566                 5.4256                 8.3552
 Raman Activ --     1.3244                 1.2282                 2.1280

                    82                     83                     84
                     A                      A                      A
 Frequencies --  1275.7175              1283.7002              1290.6587
 Red. masses --     1.2179                 1.3606                 1.2955
 Frc consts  --     1.1678                 1.3210                 1.2715
 IR Inten    --    29.8655                 7.8469                79.6568
 Raman Activ --     3.7839                 1.8492                 3.4570

                    85                     86                     87
                     A                      A                      A
 Frequencies --  1298.8287              1308.3295              1314.4915
 Red. masses --     1.2168                 1.2119                 1.2394
 Frc consts  --     1.2095                 1.2222                 1.2618
 IR Inten    --    20.3575                11.6145                15.3011
 Raman Activ --     2.8744                13.1448                 5.8419

                    88                     89                     90
                     A                      A                      A
 Frequencies --  1315.4532              1328.6100              1342.7446
 Red. masses --     1.2817                 1.3958                 1.3338
 Frc consts  --     1.3067                 1.4517                 1.4168
 IR Inten    --    13.8321                30.3268                 8.5308
 Raman Activ --     0.6063                 1.6296                 4.7669

                    91                     92                     93
                     A                      A                      A
 Frequencies --  1346.5149              1358.5957              1360.8198
 Red. masses --     1.1337                 1.2207                 1.2982
 Frc consts  --     1.2110                 1.3275                 1.4165
 IR Inten    --     4.3968                 5.9156                28.2249
 Raman Activ --     8.6782                 1.9369                 2.6609

                    94                     95                     96
                     A                      A                      A
 Frequencies --  1370.0428              1371.4242              1380.1177
 Red. masses --     1.2163                 1.1715                 1.2181
 Frc consts  --     1.3451                 1.2982                 1.3669
 IR Inten    --    29.9334                18.0682                33.5661
 Raman Activ --     2.1073                 2.3796                 5.2269

                    97                     98                     99
                     A                      A                      A
 Frequencies --  1390.0148              1393.6450              1403.5761
 Red. masses --     1.3739                 1.4485                 1.5603
 Frc consts  --     1.5640                 1.6575                 1.8110
 IR Inten    --     2.7891                 3.3470                16.0448
 Raman Activ --     6.7745                 6.1216                 1.3191

                   100                    101                    102
                     A                      A                      A
 Frequencies --  1405.6898              1424.3036              1428.6535
 Red. masses --     1.3942                 1.5977                 1.5149
 Frc consts  --     1.6231                 1.9097                 1.8217
 IR Inten    --    23.6032                38.6975                18.5467
 Raman Activ --     3.8657                 2.3112                 0.7855

                   103                    104                    105
                     A                      A                      A
 Frequencies --  1469.9746              1475.6273              1477.6330
 Red. masses --     1.0753                 1.0770                 1.3397
 Frc consts  --     1.3690                 1.3817                 1.7234
 IR Inten    --     5.4906                 3.8504                19.5657
 Raman Activ --     5.0710                 4.7706                 0.8276

                   106                    107                    108
                     A                      A                      A
 Frequencies --  1498.1417              1521.2087              3246.1433
 Red. masses --     1.3456                 1.2338                 1.0779
 Frc consts  --     1.7794                 1.6822                 6.6924
 IR Inten    --    24.2370                39.9692                 7.7523
 Raman Activ --     1.3797                 1.3551                98.4693

                   109                    110                    111
                     A                      A                      A
 Frequencies --  3251.9476              3252.8832              3260.2241
 Red. masses --     1.0604                 1.0642                 1.0795
 Frc consts  --     6.6071                 6.6343                 6.7601
 IR Inten    --    35.3686               225.8783                20.6042
 Raman Activ --    47.9007                22.9399               222.9182

                   112                    113                    114
                     A                      A                      A
 Frequencies --  3261.9890              3266.4593              3273.4310
 Red. masses --     1.0804                 1.0677                 1.0738
 Frc consts  --     6.7734                 6.7122                 6.7795
 IR Inten    --    81.5235                71.9522               638.3671
 Raman Activ --    31.5784               329.2504                31.6949

                   115                    116                    117
                     A                      A                      A
 Frequencies --  3277.3079              3280.5652              3285.9441
 Red. masses --     1.0827                 1.0828                 1.0808
 Frc consts  --     6.8517                 6.8658                 6.8757
 IR Inten    --   177.0137                39.2597               182.7239
 Raman Activ --    27.2581               109.4857                22.4367

                   118                    119                    120
                     A                      A                      A
 Frequencies --  3288.3160              3293.3025              3300.3465
 Red. masses --     1.0856                 1.0852                 1.0948
 Frc consts  --     6.9165                 6.9346                 7.0258
 IR Inten    --    21.3710                73.0722                 5.2041
 Raman Activ --    20.6213               111.5243                32.4793

                   121                    122                    123
                     A                      A                      A
 Frequencies --  3302.1424              3304.5407              3311.9631
 Red. masses --     1.0949                 1.0883                 1.1035
 Frc consts  --     7.0341                 7.0017                 7.1314
 IR Inten    --    13.1754               137.8847                57.6585
 Raman Activ --     9.4114                32.5746                36.7951

                   124                    125                    126
                     A                      A                      A
 Frequencies --  3366.7654              3367.6118              3368.5918
 Red. masses --     1.0667                 1.0653                 1.0676
 Frc consts  --     7.1237                 7.1182                 7.1379
 IR Inten    --    45.9376                46.6251                51.6583
 Raman Activ --   131.5525               113.3241               164.3003

                   127                    128                    129
                     A                      A                      A
 Frequencies --  3370.6476              3887.7150              3889.7453
 Red. masses --     1.0660                 1.0678                 1.0673
 Frc consts  --     7.1353                 9.5087                 9.5139
 IR Inten    --    38.4589                83.7989                58.2511
 Raman Activ --   113.8260                76.2455               116.7463

 - Thermochemistry -
 -------------------
 Temperature   298.150 Kelvin.  Pressure   1.00000 Atm.
 Atom     1 has atomic number  8 and mass  15.99491

 Molecular mass:   342.11621 amu.
 Principal axes and moments of inertia in atomic units:
                           1         2         3
     Eigenvalues --  4537.82889********************
           X            0.99996  -0.00875  -0.00004
           Y            0.00875   0.99996  -0.00070
           Z            0.00005   0.00070   1.00000
 This molecule is an asymmetric top.
 Rotational symmetry number  1.
 Warning -- assumption of classical behavior for rotation
           may cause significant error
 Rotational temperatures (Kelvin)      0.01909     0.00725     0.00538
 Rotational constants (GHZ):           0.39771     0.15105     0.11218
    7 imaginary frequencies ignored.
 Zero-point vibrational energy     975038.2 (Joules/Mol)
                                  233.03973 (Kcal/Mol)
 Warning -- explicit consideration of  32 degrees of freedom as
           vibrations may cause significant error
 Vibrational temperatures:     62.06   105.74   113.48   123.94   183.26
          (Kelvin)            218.04   264.59   270.55   291.94   332.04
                              353.88   408.99   428.73   437.78   446.15
                              456.45   467.90   476.65   513.43   553.64
                              585.00   596.49   615.42   644.59   666.36
                              709.29   746.01   754.31   816.52   847.06
                              868.67   888.59   918.75   972.12   992.37
                             1036.77  1042.35  1068.99  1160.36  1222.15
                             1227.01  1231.11  1336.52  1383.13  1395.30
                             1398.46  1423.03  1428.91  1440.45  1461.47
                             1488.11  1509.89  1520.87  1533.77  1547.71
                             1560.83  1574.75  1597.29  1604.85  1607.82
                             1609.61  1636.65  1654.04  1659.97  1667.86
                             1689.86  1704.80  1722.51  1735.83  1764.86
                             1770.29  1776.85  1796.60  1809.72  1835.47
                             1846.96  1856.97  1868.72  1882.39  1891.26
                             1892.64  1911.57  1931.91  1937.33  1954.71
                             1957.91  1971.18  1973.17  1985.68  1999.92
                             2005.14  2019.43  2022.47  2049.25  2055.51
                             2114.96  2123.10  2125.98  2155.49  2188.68
                             4670.47  4678.82  4680.17  4690.73  4693.27
                             4699.70  4709.73  4715.31  4720.00  4727.73
                             4731.15  4738.32  4748.46  4751.04  4754.49
                             4765.17  4844.02  4845.24  4846.65  4849.60
                             5593.55  5596.47

 Zero-point correction=                           0.371372 (Hartree/Particle)
 Thermal correction to Energy=                    0.389678
 Thermal correction to Enthalpy=                  0.390622
 Thermal correction to Gibbs Free Energy=         0.325921
 Sum of electronic and zero-point Energies=          -1297.600246
 Sum of electronic and thermal Energies=             -1297.581941
 Sum of electronic and thermal Enthalpies=           -1297.580997
 Sum of electronic and thermal Free Energies=        -1297.645697

                     E (Thermal)             CV                S
                      KCal/Mol        Cal/Mol-Kelvin    Cal/Mol-Kelvin
 Total                  244.526             75.807            136.174
 Electronic               0.000              0.000              0.000
 Translational            0.889              2.981             43.384
 Rotational               0.889              2.981             35.121
 Vibrational            242.749             69.846             57.668
 Vibration     1          0.595              1.980              5.110
 Vibration     2          0.599              1.967              4.058
 Vibration     3          0.600              1.963              3.919
 Vibration     4          0.601              1.959              3.746
 Vibration     5          0.611              1.926              2.985
 Vibration     6          0.619              1.901              2.653
 Vibration     7          0.631              1.862              2.288
 Vibration     8          0.633              1.856              2.247
 Vibration     9          0.639              1.836              2.107
 Vibration    10          0.652              1.794              1.873
 Vibration    11          0.660              1.769              1.759
 Vibration    12          0.683              1.703              1.508
 Vibration    13          0.691              1.677              1.428
 Vibration    14          0.695              1.666              1.393
 Vibration    15          0.699              1.654              1.362
 Vibration    16          0.704              1.641              1.324
 Vibration    17          0.709              1.625              1.284
 Vibration    18          0.714              1.613              1.254
 Vibration    19          0.732              1.561              1.136
 Vibration    20          0.754              1.503              1.020
 Vibration    21          0.771              1.456              0.939
 Vibration    22          0.778              1.439              0.911
 Vibration    23          0.789              1.410              0.866
 Vibration    24          0.807              1.365              0.802
 Vibration    25          0.821              1.332              0.757
 Vibration    26          0.849              1.266              0.676
 Vibration    27          0.874              1.209              0.613
 Vibration    28          0.879              1.196              0.600
 Vibration    29          0.923              1.102              0.509
 Vibration    30          0.946              1.056              0.469
 Vibration    31          0.962              1.024              0.443
 Vibration    32          0.977              0.995              0.420

 Normal termination of Gaussian 09 at Thu Mar 24 14:19:11 2016.
