 Gaussian 09, Revision B.01,
 Gaussian 09:  EM64L-G09RevB.01 12-Aug-2010

 ------------------------------------------------
 # freq=raman b3lyp/6-31+g(d,p) geom=connectivity
 ------------------------------------------------

 ------------
 280 5000.com
 ------------
 Symbolic Z-matrix:
 Charge =  0 Multiplicity = 1

                         Standard orientation:
 ---------------------------------------------------------------------
 Center     Atomic      Atomic             Coordinates (Angstroms)
 Number     Number       Type             X           Y           Z
 ---------------------------------------------------------------------
      1          8           0       -5.139455   -0.365373    0.326793
      2          6           0       -3.783398   -0.193342   -0.109493
      3          6           0       -3.323981    1.222267    0.200734
      4          8           0       -4.101798    2.226482   -0.465952
      5          1           0       -5.076285    1.999782   -0.468869
      6          6           0       -1.866506    1.485840   -0.138757
      7          8           0       -1.429196    2.788056    0.278463
      8          1           0       -0.473131    2.901532    0.006800
      9          6           0       -3.026971   -2.591842   -0.127220
     10          8           0       -4.216197   -3.249824    0.332368
     11          1           0       -4.141718   -4.235029    0.178066
     12          6           0       -2.740805   -1.186149    0.376847
     13          8           0       -1.399537   -0.845249   -0.002121
     14          6           0       -0.908352    0.439726    0.407603
     15          8           0        0.257328    0.587611   -0.415315
     16          6           0        1.543157    0.193878    0.086129
     17          6           0        2.111358   -1.072118   -0.533397
     18          8           0        1.256678   -2.218578   -0.409455
     19          1           0        0.327523   -1.860696   -0.509355
     20          6           0        3.413415   -1.494572    0.129133
     21          8           0        3.950480   -2.675102   -0.485197
     22          1           0        4.838048   -2.941166   -0.109370
     23          6           0        2.238699    2.634355    0.154980
     24          8           0        1.082512    3.310936   -0.359849
     25          1           0        1.238923    4.272315   -0.136964
     26          6           0        2.607035    1.220394   -0.263978
     27          8           0        3.805546    0.903596    0.459345
     28          6           0        4.375928   -0.327233   -0.009816
     29          8           0        5.557568   -0.608145    0.744980
     30          1           0       -5.699086   -0.546897   -0.431799
     31          1           0       -3.440599    1.371676    1.253814
     32          1           0       -3.801122   -0.279525   -1.175870
     33          1           0       -1.786090    1.455822   -1.205309
     34          1           0       -2.783587   -1.206141    1.445805
     35          1           0       -2.193310   -3.207053    0.140035
     36          1           0       -3.073464   -2.549019   -1.195351
     37          1           0       -0.714499    0.522889    1.456605
     38          1           0        3.082189    3.251381   -0.074591
     39          1           0        2.802406    1.194370   -1.315668
     40          1           0        1.492659    0.079990    1.148851
     41          1           0        2.296353   -0.892084   -1.571792
     42          1           0        3.236449   -1.685436    1.166993
     43          1           0        4.640389   -0.216388   -1.040676
     44          1           0        2.137156    2.621590    1.220074
     45          1           0        6.261907   -0.874413    0.149490
 ---------------------------------------------------------------------

 SCF Done:  E(RB3LYP) =  -1297.94286716     A.U. after   14 cycles

 The electronic state is 1-A.
 Alpha  occ. eigenvalues --  -19.20137 -19.19566 -19.19276 -19.19207 -19.19085
 Alpha  occ. eigenvalues --  -19.17706 -19.17323 -19.17050 -19.15557 -19.15017
 Alpha  occ. eigenvalues --  -19.13077 -10.31296 -10.31203 -10.27078 -10.26358
 Alpha  occ. eigenvalues --  -10.26080 -10.25875 -10.25346 -10.25256 -10.24786
 Alpha  occ. eigenvalues --  -10.24480 -10.24087 -10.23796  -1.10151  -1.09473
 Alpha  occ. eigenvalues --   -1.06180  -1.05081  -1.04390  -1.03895  -1.03072
 Alpha  occ. eigenvalues --   -1.02569  -1.01500  -1.00795  -0.99206  -0.82939
 Alpha  occ. eigenvalues --   -0.80345  -0.79798  -0.78261  -0.72320  -0.69972
 Alpha  occ. eigenvalues --   -0.67400  -0.65024  -0.63243  -0.62750  -0.62056
 Alpha  occ. eigenvalues --   -0.59998  -0.56725  -0.56014  -0.55311  -0.55132
 Alpha  occ. eigenvalues --   -0.54274  -0.53754  -0.53141  -0.51800  -0.51007
 Alpha  occ. eigenvalues --   -0.50736  -0.50386  -0.49680  -0.48730  -0.46811
 Alpha  occ. eigenvalues --   -0.46277  -0.45365  -0.44325  -0.43821  -0.43496
 Alpha  occ. eigenvalues --   -0.42598  -0.41646  -0.41040  -0.40581  -0.39838
 Alpha  occ. eigenvalues --   -0.38453  -0.38123  -0.37896  -0.36078  -0.35410
 Alpha  occ. eigenvalues --   -0.35171  -0.34714  -0.34451  -0.34333  -0.33477
 Alpha  occ. eigenvalues --   -0.32868  -0.31487  -0.31314  -0.30470  -0.29673
 Alpha  occ. eigenvalues --   -0.29311  -0.28732  -0.28661  -0.26999  -0.26674
 Alpha  occ. eigenvalues --   -0.26013
 Alpha virt. eigenvalues --   -0.02328  -0.02131  -0.01910  -0.00389   0.00027
 Alpha virt. eigenvalues --    0.00888   0.01638   0.02338   0.03007   0.03418
 Alpha virt. eigenvalues --    0.03730   0.04338   0.04521   0.05157   0.05721

 Mulliken atomic charges:
              1
     1  O   -0.518194
     2  C   -0.333052
     3  C    0.222771
     4  O   -0.530362
     5  H    0.352838
     6  C    0.053690
     7  O   -0.582137
     8  H    0.466639
     9  C   -0.021469
    10  O   -0.547278
    11  H    0.361307
    12  C    0.195240
    13  O   -0.396236
    14  C    0.184670
    15  O   -0.294870
    16  C   -0.249172
    17  C   -0.014287
    18  O   -0.507730
    19  H    0.399607
    20  C    0.161707
    21  O   -0.522294
    22  H    0.351201
    23  C   -0.106487
    24  O   -0.593746
    25  H    0.381630
    26  C    0.129767
    27  O   -0.316457
    28  C    0.168259
    29  O   -0.562363
    30  H    0.369396
    31  H    0.136587
    32  H    0.125276
    33  H    0.148914
    34  H    0.135511
    35  H    0.138265
    36  H    0.129684
    37  H    0.137709
    38  H    0.139415
    39  H    0.142424
    40  H    0.133870
    41  H    0.136415
    42  H    0.150526
    43  H    0.126368
    44  H    0.150411
    45  H    0.366038
 Sum of Mulliken atomic charges =   0.00000

 Dipole moment (field-independent basis, Debye):
    X=              2.9350    Y=             -0.5498    Z=             -1.5597  Tot=              3.3688
 Quadrupole moment (field-independent basis, Debye-Ang):
   XX=           -119.3282   YY=           -136.0642   ZZ=           -140.2496
   XY=             15.0655   XZ=              2.4344   YZ=              0.5083

  Exact polarizability: 229.132  -1.831 192.687   1.492   0.753 141.838
 Approx polarizability: 265.970  -2.077 248.117   1.312   0.732 230.275

 ******    7 imaginary frequencies (negative Signs) ******

                     1                      2                      3
                     A                      A                      A
 Frequencies --  -330.0420              -304.6962              -284.5800
 Red. masses --     1.1767                 1.2705                 1.7296
 Frc consts  --     0.0755                 0.0695                 0.0825
 IR Inten    --   139.0933               105.4532                 2.5894
 Raman Activ --     1.3811                 0.6661                 0.0195

                     4                      5                      6
                     A                      A                      A
 Frequencies --  -266.0166               -73.2133               -49.7777
 Red. masses --     1.6269                 6.6742                 6.3937
 Frc consts  --     0.0678                 0.0211                 0.0093
 IR Inten    --    18.7318                 0.9628                 0.0608
 Raman Activ --     0.2511                 0.0260                 0.0267

                     7                      8                      9
                     A                      A                      A
 Frequencies --   -34.3798                43.4512                51.1427
 Red. masses --     6.3525                 6.7389                 6.6692
 Frc consts  --     0.0044                 0.0075                 0.0103
 IR Inten    --     2.2347                 0.0690                 0.6658
 Raman Activ --     0.0383                 0.0110                 0.0779

                    10                     11                     12
                     A                      A                      A
 Frequencies --    75.6496                79.3943               130.5142
 Red. masses --     6.7803                 7.0598                 5.5973
 Frc consts  --     0.0229                 0.0262                 0.0562
 IR Inten    --     0.2020                 1.2924                 1.2723
 Raman Activ --     0.3037                 0.0368                 0.0442

                    13                     14                     15
                     A                      A                      A
 Frequencies --   150.2878               177.5099               185.4488
 Red. masses --     6.1126                 5.9072                 7.8122
 Frc consts  --     0.0813                 0.1097                 0.1583
 IR Inten    --     2.8649                 3.5502                 2.2193
 Raman Activ --     0.3676                 0.4488                 0.6630

                    16                     17                     18
                     A                      A                      A
 Frequencies --   213.4852               230.3372               248.8230
 Red. masses --     7.1319                 5.7198                 4.6273
 Frc consts  --     0.1915                 0.1788                 0.1688
 IR Inten    --     0.0850                 5.1203                22.0676
 Raman Activ --     2.1621                 0.8551                 0.1813

                    19                     20                     21
                     A                      A                      A
 Frequencies --   283.9525               292.4209               298.3536
 Red. masses --     4.2935                 4.5764                 5.4729
 Frc consts  --     0.2040                 0.2306                 0.2870
 IR Inten    --     1.7659                 2.0419                 4.0748
 Raman Activ --     0.2320                 0.3905                 0.5503

                    22                     23                     24
                     A                      A                      A
 Frequencies --   310.8575               316.2195               317.5899
 Red. masses --     5.2864                 6.1447                 7.1887
 Frc consts  --     0.3010                 0.3620                 0.4272
 IR Inten    --     5.9494                 1.9544                 4.1449
 Raman Activ --     0.3425                 3.4897                 3.1641

                    25                     26                     27
                     A                      A                      A
 Frequencies --   344.3976               357.3801               377.7449
 Red. masses --     5.8447                 5.4132                 5.2302
 Frc consts  --     0.4084                 0.4073                 0.4397
 IR Inten    --    14.5813                 1.6228                 1.4652
 Raman Activ --     1.0112                 1.6423                 0.3509

                    28                     29                     30
                     A                      A                      A
 Frequencies --   402.3496               422.0243               432.7155
 Red. masses --     4.2610                 6.5937                 5.3352
 Frc consts  --     0.4064                 0.6919                 0.5886
 IR Inten    --    13.9447                 3.3196                 1.0568
 Raman Activ --     2.3181                 6.5693                 2.9130

                    31                     32                     33
                     A                      A                      A
 Frequencies --   437.9723               469.8949               487.7058
 Red. masses --     5.0146                 4.4478                 4.3367
 Frc consts  --     0.5667                 0.5786                 0.6078
 IR Inten    --     3.1469                 3.8166                16.6001
 Raman Activ --     1.6165                 3.5900                 1.3604

                    34                     35                     36
                     A                      A                      A
 Frequencies --   512.6136               522.2182               568.7465
 Red. masses --     3.2169                 3.4038                 4.4821
 Frc consts  --     0.4980                 0.5469                 0.8542
 IR Inten    --    11.0714                 4.8616                18.2230
 Raman Activ --     2.5193                 3.5217                 1.9051

                    37                     38                     39
                     A                      A                      A
 Frequencies --   586.3037               599.1749               608.8041
 Red. masses --     4.1633                 3.6371                 5.4830
 Frc consts  --     0.8432                 0.7693                 1.1974
 IR Inten    --    10.5087                22.9088                25.7700
 Raman Activ --     0.8323                 0.9237                 0.7865

                    40                     41                     42
                     A                      A                      A
 Frequencies --   630.3910               670.7523               680.2849
 Red. masses --     3.5025                 1.1429                 3.5895
 Frc consts  --     0.8201                 0.3030                 0.9787
 IR Inten    --    18.8619               113.2123                18.5707
 Raman Activ --     0.5115                 1.6414                 2.4444

                    43                     44                     45
                     A                      A                      A
 Frequencies --   685.7775               704.1328               739.5604
 Red. masses --     1.0689                 1.0616                 1.1034
 Frc consts  --     0.2962                 0.3101                 0.3556
 IR Inten    --    92.9434                97.6165               106.4727
 Raman Activ --     1.8213                 2.0284                 1.4865

                    46                     47                     48
                     A                      A                      A
 Frequencies --   786.7539               850.4489               853.7521
 Red. masses --     1.0796                 1.7377                 1.4451
 Frc consts  --     0.3937                 0.7405                 0.6206
 IR Inten    --    98.5132                 9.1359                18.5115
 Raman Activ --     1.8109                 0.6449                 0.4322

                    49                     50                     51
                     A                      A                      A
 Frequencies --   883.7057               924.9869               964.2466
 Red. masses --     1.2597                 4.9431                 3.5237
 Frc consts  --     0.5796                 2.4918                 1.9303
 IR Inten    --    66.3895                55.5920                61.4239
 Raman Activ --     0.8597                 1.8505                 0.7832

                    52                     53                     54
                     A                      A                      A
 Frequencies --   979.7526               999.0104              1001.4566
 Red. masses --     5.1327                 5.2828                 5.2956
 Frc consts  --     2.9029                 3.1064                 3.1292
 IR Inten    --     9.4983                 0.9229               296.8116
 Raman Activ --     3.6615                 1.9416                 0.6751

                    55                     56                     57
                     A                      A                      A
 Frequencies --  1013.7580              1020.9919              1034.1680
 Red. masses --     5.9639                 5.8950                 4.2310
 Frc consts  --     3.6112                 3.6206                 2.6661
 IR Inten    --   173.5317                29.3792               203.9376
 Raman Activ --     1.7492                 2.8623                 2.8894

                    58                     59                     60
                     A                      A                      A
 Frequencies --  1048.1715              1057.3119              1072.1734
 Red. masses --     4.9859                 3.6399                 3.8901
 Frc consts  --     3.2274                 2.3974                 2.6348
 IR Inten    --   473.6432               103.1873                46.5843
 Raman Activ --     1.3302                 5.3351                 5.9375

                    61                     62                     63
                     A                      A                      A
 Frequencies --  1078.8674              1081.2020              1086.0804
 Red. masses --     3.9213                 4.8935                 2.8854
 Frc consts  --     2.6892                 3.3704                 2.0053
 IR Inten    --     9.7473               182.4157                44.6846
 Raman Activ --     1.9117                 1.8141                 6.7838

                    64                     65                     66
                     A                      A                      A
 Frequencies --  1096.6362              1105.6411              1118.1502
 Red. masses --     2.4649                 3.0138                 2.6702
 Frc consts  --     1.7465                 2.1707                 1.9669
 IR Inten    --    28.9009                12.6900                20.8595
 Raman Activ --     5.4011                14.2149                 5.8724

                    67                     68                     69
                     A                      A                      A
 Frequencies --  1124.6788              1127.6472              1134.1771
 Red. masses --     2.2950                 2.9140                 2.2420
 Frc consts  --     1.7103                 2.1832                 1.6992
 IR Inten    --    60.4525                12.1375                44.0239
 Raman Activ --     4.2117                 8.9068                11.0293

                    70                     71                     72
                     A                      A                      A
 Frequencies --  1144.4123              1151.9288              1159.6492
 Red. masses --     2.5985                 2.3190                 2.0092
 Frc consts  --     2.0051                 1.8130                 1.5919
 IR Inten    --    12.1116                 4.8425                 8.3428
 Raman Activ --     3.4060                 5.3895                 2.2862

                    73                     74                     75
                     A                      A                      A
 Frequencies --  1168.6040              1179.5925              1188.8546
 Red. masses --     2.3194                 1.8753                 2.0780
 Frc consts  --     1.8662                 1.5374                 1.7304
 IR Inten    --    56.6012                 4.8852                17.7390
 Raman Activ --     4.5062                 2.7804                 2.0435

                    76                     77                     78
                     A                      A                      A
 Frequencies --  1204.4380              1213.9802              1216.0474
 Red. masses --     1.5158                 1.2059                 1.2816
 Frc consts  --     1.2955                 1.0471                 1.1166
 IR Inten    --    10.6548                 9.1396                14.4101
 Raman Activ --     2.8385                 2.7740                 3.6795

                    79                     80                     81
                     A                      A                      A
 Frequencies --  1227.2874              1241.1055              1255.0199
 Red. masses --     1.3149                 1.3872                 1.2458
 Frc consts  --     1.1669                 1.2589                 1.1561
 IR Inten    --     5.8979                27.3707                12.3619
 Raman Activ --     2.2633                 1.6015                 0.9273

                    82                     83                     84
                     A                      A                      A
 Frequencies --  1259.0858              1280.7806              1293.7405
 Red. masses --     1.1969                 1.3780                 1.3427
 Frc consts  --     1.1179                 1.3318                 1.3241
 IR Inten    --    21.5244                53.3598                 8.6140
 Raman Activ --     1.4024                 4.0626                 0.8744

                    85                     86                     87
                     A                      A                      A
 Frequencies --  1294.1264              1300.4785              1303.3444
 Red. masses --     1.2530                 1.2386                 1.2125
 Frc consts  --     1.2364                 1.2342                 1.2135
 IR Inten    --     9.3400                 7.2861                20.1385
 Raman Activ --     9.1291                 1.0552                 4.3647

                    88                     89                     90
                     A                      A                      A
 Frequencies --  1311.1578              1321.4199              1330.6351
 Red. masses --     1.2525                 1.2387                 1.1857
 Frc consts  --     1.2686                 1.2744                 1.2369
 IR Inten    --    30.5367                15.3468                46.8007
 Raman Activ --     6.7175                 8.2717                 2.0726

                    91                     92                     93
                     A                      A                      A
 Frequencies --  1333.4829              1338.7602              1346.9224
 Red. masses --     1.3564                 1.2911                 1.3826
 Frc consts  --     1.4211                 1.3634                 1.4778
 IR Inten    --     9.3758                 4.0062                41.3810
 Raman Activ --     1.6778                 6.3036                 3.1581

                    94                     95                     96
                     A                      A                      A
 Frequencies --  1361.1756              1366.5819              1371.5033
 Red. masses --     1.3112                 1.3500                 1.5763
 Frc consts  --     1.4314                 1.4855                 1.7470
 IR Inten    --     7.8219                25.4337                20.4112
 Raman Activ --     3.4293                13.6884                 8.3764

                    97                     98                     99
                     A                      A                      A
 Frequencies --  1376.2011              1391.9443              1396.6023
 Red. masses --     1.2901                 1.4736                 1.5197
 Frc consts  --     1.4396                 1.6821                 1.7464
 IR Inten    --    12.8978                27.4222                12.5538
 Raman Activ --     1.6032                 0.4452                 1.4043

                   100                    101                    102
                     A                      A                      A
 Frequencies --  1397.7848              1415.0422              1449.7172
 Red. masses --     1.6284                 1.4869                 1.4303
 Frc consts  --     1.8745                 1.7542                 1.7711
 IR Inten    --     7.3852                 6.0286                10.0378
 Raman Activ --     4.1334                 6.4311                 1.7371

                   103                    104                    105
                     A                      A                      A
 Frequencies --  1476.3456              1482.9801              1484.7090
 Red. masses --     1.3111                 1.1419                 1.0943
 Frc consts  --     1.6837                 1.4796                 1.4212
 IR Inten    --    24.1371                 2.5757                 1.8486
 Raman Activ --     2.3400                 3.8434                 4.4363

                   106                    107                    108
                     A                      A                      A
 Frequencies --  1496.3245              1522.5230              3251.5256
 Red. masses --     1.2892                 1.2422                 1.0684
 Frc consts  --     1.7007                 1.6966                 6.6549
 IR Inten    --    41.6690                45.2151               988.6125
 Raman Activ --     1.3283                 0.8076               121.9315

                   109                    110                    111
                     A                      A                      A
 Frequencies --  3265.6584              3274.1253              3277.8124
 Red. masses --     1.0582                 1.0603                 1.0817
 Frc consts  --     6.6490                 6.6969                 6.8472
 IR Inten    --    36.6379                61.0729                 1.6236
 Raman Activ --    75.1875               225.0183               136.0303

                   112                    113                    114
                     A                      A                      A
 Frequencies --  3283.8240              3284.7270              3289.1487
 Red. masses --     1.0839                 1.0825                 1.0851
 Frc consts  --     6.8865                 6.8812                 6.9167
 IR Inten    --    19.9677                22.2438                 9.4490
 Raman Activ --     7.3342                12.5955                30.5073

                   115                    116                    117
                     A                      A                      A
 Frequencies --  3294.2781              3296.2973              3304.4740
 Red. masses --     1.0849                 1.0840                 1.0862
 Frc consts  --     6.9370                 6.9394                 6.9885
 IR Inten    --    15.9850                13.9706                53.1632
 Raman Activ --    38.8206               234.4145                16.5628

                   118                    119                    120
                     A                      A                      A
 Frequencies --  3305.8465              3316.3130              3321.5887
 Red. masses --     1.0866                 1.0883                 1.1038
 Frc consts  --     6.9968                 7.0518                 7.1751
 IR Inten    --    13.1289                38.9927                32.3355
 Raman Activ --     4.7434                 8.9586                39.5699

                   121                    122                    123
                     A                      A                      A
 Frequencies --  3323.0927              3326.0486              3355.8243
 Red. masses --     1.0907                 1.1021                 1.0668
 Frc consts  --     7.0962                 7.1835                 7.0786
 IR Inten    --    40.6688                88.2696               287.8765
 Raman Activ --    38.0532                43.2099               157.0696

                   124                    125                    126
                     A                      A                      A
 Frequencies --  3383.1032              3389.5587              3390.5293
 Red. masses --     1.0663                 1.0679                 1.0667
 Frc consts  --     7.1902                 7.2290                 7.2250
 IR Inten    --    26.7939                45.6379                36.3237
 Raman Activ --   133.1269               163.6818               171.5385

                   127                    128                    129
                     A                      A                      A
 Frequencies --  3406.8284              3916.8475              3920.6739
 Red. masses --     1.0664                 1.0680                 1.0676
 Frc consts  --     7.2923                 9.6535                 9.6687
 IR Inten    --    63.9036                75.4325                75.5592
 Raman Activ --   133.6363                83.3825               101.3602

 - Thermochemistry -
 -------------------
 Temperature   298.150 Kelvin.  Pressure   1.00000 Atm.
 Atom     1 has atomic number  8 and mass  15.99491

 Molecular mass:   342.11621 amu.
 Principal axes and moments of inertia in atomic units:
                           1         2         3
     Eigenvalues --  4416.32430********************
           X            0.99998   0.00704   0.00016
           Y           -0.00704   0.99997   0.00193
           Z           -0.00015  -0.00193   1.00000
 This molecule is an asymmetric top.
 Rotational symmetry number  1.
 Warning -- assumption of classical behavior for rotation
           may cause significant error
 Rotational temperatures (Kelvin)      0.01961     0.00688     0.00523
 Rotational constants (GHZ):           0.40865     0.14329     0.10891
    7 imaginary frequencies ignored.
 Zero-point vibrational energy     976885.9 (Joules/Mol)
                                  233.48133 (Kcal/Mol)
 Warning -- explicit consideration of  32 degrees of freedom as
           vibrations may cause significant error
 Vibrational temperatures:     62.52    73.58   108.84   114.23   187.78
          (Kelvin)            216.23   255.40   266.82   307.16   331.40
                              358.00   408.54   420.73   429.26   447.25
                              454.97   456.94   495.51   514.19   543.49
                              578.89   607.20   622.58   630.14   676.07
                              701.70   737.54   751.35   818.30   843.56
                              862.08   875.93   906.99   965.06   978.78
                              986.68  1013.09  1064.06  1131.96  1223.60
                             1228.36  1271.45  1330.85  1387.33  1409.64
                             1437.35  1440.87  1458.57  1468.98  1487.94
                             1508.08  1521.23  1542.62  1552.25  1555.61
                             1562.63  1577.81  1590.77  1608.77  1618.16
                             1622.43  1631.83  1646.55  1657.37  1668.47
                             1681.36  1697.17  1710.49  1732.92  1746.64
                             1749.62  1765.79  1785.67  1805.69  1811.54
                             1842.76  1861.40  1861.96  1871.10  1875.22
                             1886.46  1901.23  1914.48  1918.58  1926.17
                             1937.92  1958.43  1966.20  1973.28  1980.04
                             2002.69  2009.40  2011.10  2035.93  2085.82
                             2124.13  2133.67  2136.16  2152.87  2190.57
                             4678.21  4698.55  4710.73  4716.04  4724.68
                             4725.98  4732.35  4739.73  4742.63  4754.40
                             4756.37  4771.43  4779.02  4781.18  4785.44
                             4828.28  4867.52  4876.81  4878.21  4901.66
                             5635.46  5640.97

 Zero-point correction=                           0.372076 (Hartree/Particle)
 Thermal correction to Energy=                    0.390486
 Thermal correction to Enthalpy=                  0.391431
 Thermal correction to Gibbs Free Energy=         0.326197
 Sum of electronic and zero-point Energies=          -1297.570791
 Sum of electronic and thermal Energies=             -1297.552381
 Sum of electronic and thermal Enthalpies=           -1297.551437
 Sum of electronic and thermal Free Energies=        -1297.616670

                     E (Thermal)             CV                S
                      KCal/Mol        Cal/Mol-Kelvin    Cal/Mol-Kelvin
 Total                  245.034             75.961            137.295
 Electronic               0.000              0.000              0.000
 Translational            0.889              2.981             43.384
 Rotational               0.889              2.981             35.176
 Vibrational            243.256             69.999             58.735
 Vibration     1          0.595              1.980              5.095
 Vibration     2          0.595              1.977              4.773
 Vibration     3          0.599              1.965              4.001
 Vibration     4          0.600              1.963              3.906
 Vibration     5          0.612              1.923              2.938
 Vibration     6          0.618              1.902              2.669
 Vibration     7          0.628              1.870              2.354
 Vibration     8          0.632              1.860              2.273
 Vibration     9          0.644              1.820              2.014
 Vibration    10          0.652              1.795              1.876
 Vibration    11          0.662              1.765              1.739
 Vibration    12          0.682              1.703              1.510
 Vibration    13          0.688              1.688              1.460
 Vibration    14          0.691              1.677              1.426
 Vibration    15          0.700              1.653              1.358
 Vibration    16          0.703              1.643              1.330
 Vibration    17          0.704              1.640              1.322
 Vibration    18          0.723              1.587              1.192
 Vibration    19          0.733              1.560              1.133
 Vibration    20          0.748              1.518              1.048
 Vibration    21          0.768              1.465              0.954
 Vibration    22          0.784              1.422              0.885
 Vibration    23          0.794              1.399              0.850
 Vibration    24          0.798              1.387              0.833
 Vibration    25          0.827              1.317              0.738
 Vibration    26          0.844              1.277              0.690
 Vibration    27          0.868              1.222              0.627
 Vibration    28          0.877              1.201              0.605
 Vibration    29          0.925              1.099              0.507
 Vibration    30          0.943              1.061              0.474
 Vibration    31          0.957              1.034              0.451
 Vibration    32          0.968              1.013              0.435

 Normal termination of Gaussian 09 at Thu Jan 21 05:02:24 2016.
