 Gaussian 09, Revision B.01,
 Gaussian 09:  EM64L-G09RevB.01 12-Aug-2010

 -------------------------------------------------
 # freq=raman b3lyp/6-31+g(2d,p) geom=connectivity
 -------------------------------------------------

 -----------------
 483 9345/9345.com
 -----------------
 Symbolic Z-matrix:
 Charge =  0 Multiplicity = 1

                         Standard orientation:
 ---------------------------------------------------------------------
 Center     Atomic      Atomic             Coordinates (Angstroms)
 Number     Number       Type             X           Y           Z
 ---------------------------------------------------------------------
      1          8           0       -4.988146   -0.502275    0.259960
      2          6           0       -3.679615   -0.090686   -0.160548
      3          6           0       -3.308802    1.292031    0.350322
      4          8           0       -4.263042    2.270531   -0.085610
      5          1           0       -5.182860    2.015986    0.213436
      6          6           0       -1.882214    1.573085   -0.093431
      7          8           0       -1.380014    2.769362    0.517757
      8          1           0       -0.604692    3.026638   -0.059107
      9          6           0       -3.019943   -2.580458   -0.180075
     10          8           0       -4.264015   -3.251255    0.067086
     11          1           0       -4.286955   -4.246343    0.160189
     12          6           0       -2.703316   -1.167990    0.284613
     13          8           0       -1.404459   -0.789799   -0.193696
     14          6           0       -0.894484    0.473257    0.260428
     15          8           0        0.293110    0.619364   -0.531879
     16          6           0        1.526353    0.224496    0.086744
     17          6           0        1.979669   -1.130148   -0.432410
     18          8           0        0.966285   -2.068834   -0.042987
     19          1           0        0.094776   -1.670276   -0.330960
     20          6           0        3.339317   -1.555260    0.098275
     21          8           0        3.985879   -2.704003   -0.470709
     22          1           0        4.643976   -3.041973    0.203244
     23          6           0        2.272318    2.602552    0.030923
     24          8           0        1.377333    3.437957   -0.716061
     25          1           0        1.512681    4.388217   -0.434423
     26          6           0        2.660758    1.166424   -0.282544
     27          8           0        3.824986    0.722572    0.430189
     28          6           0        4.405612   -0.487282   -0.079906
     29          8           0        5.465166   -0.632316    0.877663
     30          1           0        6.290410   -0.804049    0.418227
     31          1           0        4.753850   -0.391297   -1.087089
     32          1           0        3.229794   -1.733832    1.147569
     33          1           0        2.023495   -1.092888   -1.500863
     34          1           0        1.409788    0.189603    1.149804
     35          1           0        2.848644    1.083439   -1.332645
     36          1           0        3.195782    3.141832    0.066865
     37          1           0        1.869364    2.574640    1.021756
     38          1           0       -5.510769   -0.741727   -0.508889
     39          1           0       -2.256385   -3.207585    0.230523
     40          1           0       -2.886138   -2.582077   -1.241675
     41          1           0       -2.677120   -1.169811    1.354291
     42          1           0       -3.671155   -0.058935   -1.230043
     43          1           0       -3.325037    1.267334    1.419914
     44          1           0       -1.877450    1.705363   -1.155213
     45          1           0       -0.672587    0.457202    1.307043
 ---------------------------------------------------------------------

 SCF Done:  E(RB3LYP) =  -1297.97079724     A.U. after   13 cycles

 The electronic state is 1-A.
 Alpha  occ. eigenvalues --  -19.18488 -19.18325 -19.17868 -19.17732 -19.16901
 Alpha  occ. eigenvalues --  -19.16175 -19.16005 -19.15888 -19.15653 -19.14943
 Alpha  occ. eigenvalues --  -19.13140 -10.31037 -10.30212 -10.25757 -10.25585
 Alpha  occ. eigenvalues --  -10.24998 -10.24885 -10.24823 -10.24685 -10.24552
 Alpha  occ. eigenvalues --  -10.24532 -10.24478 -10.24104  -1.10352  -1.08945
 Alpha  occ. eigenvalues --   -1.05063  -1.04327  -1.03791  -1.03061  -1.02750
 Alpha  occ. eigenvalues --   -1.02127  -1.01970  -1.01165  -1.00323  -0.82147
 Alpha  occ. eigenvalues --   -0.80430  -0.78741  -0.78366  -0.71794  -0.70153
 Alpha  occ. eigenvalues --   -0.67217  -0.64633  -0.63265  -0.62579  -0.61321
 Alpha  occ. eigenvalues --   -0.60315  -0.56571  -0.55310  -0.54926  -0.54116
 Alpha  occ. eigenvalues --   -0.53816  -0.53485  -0.52646  -0.52264  -0.51582
 Alpha  occ. eigenvalues --   -0.50523  -0.49785  -0.49462  -0.48681  -0.46772
 Alpha  occ. eigenvalues --   -0.46076  -0.44769  -0.44484  -0.43721  -0.43559
 Alpha  occ. eigenvalues --   -0.42901  -0.42502  -0.41272  -0.40370  -0.38907
 Alpha  occ. eigenvalues --   -0.38373  -0.37562  -0.36506  -0.36019  -0.35584
 Alpha  occ. eigenvalues --   -0.34951  -0.34186  -0.34027  -0.33918  -0.33496
 Alpha  occ. eigenvalues --   -0.32522  -0.31385  -0.31068  -0.30116  -0.29535
 Alpha  occ. eigenvalues --   -0.29383  -0.28625  -0.28309  -0.27596  -0.26896
 Alpha  occ. eigenvalues --   -0.25760
 Alpha virt. eigenvalues --   -0.01862  -0.01773  -0.01402  -0.00006   0.00354
 Alpha virt. eigenvalues --    0.00914   0.01958   0.02103   0.02712   0.03343
 Alpha virt. eigenvalues --    0.03613   0.04237   0.04735   0.05577   0.05767

 Mulliken atomic charges:
              1
     1  O   -0.538367
     2  C    0.034101
     3  C    0.136497
     4  O   -0.548985
     5  H    0.346633
     6  C   -0.077840
     7  O   -0.541500
     8  H    0.384250
     9  C   -0.308372
    10  O   -0.573046
    11  H    0.355039
    12  C    0.219432
    13  O   -0.247729
    14  C    0.231355
    15  O   -0.232165
    16  C    0.113289
    17  C    0.190097
    18  O   -0.579615
    19  H    0.394790
    20  C    0.029707
    21  O   -0.545462
    22  H    0.340787
    23  C   -0.375521
    24  O   -0.555681
    25  H    0.351627
    26  C    0.132790
    27  O   -0.245825
    28  C    0.119398
    29  O   -0.531608
    30  H    0.331976
    31  H    0.140683
    32  H    0.135714
    33  H    0.120628
    34  H    0.121288
    35  H    0.121113
    36  H    0.139447
    37  H    0.149897
    38  H    0.341898
    39  H    0.151480
    40  H    0.143909
    41  H    0.110380
    42  H    0.117109
    43  H    0.120476
    44  H    0.140727
    45  H    0.135199
 Sum of Mulliken atomic charges =   0.00000

 Dipole moment (field-independent basis, Debye):
    X=              1.7886    Y=             -0.5182    Z=             -0.8491  Tot=              2.0466
 Quadrupole moment (field-independent basis, Debye-Ang):
   XX=           -118.9077   YY=           -133.6782   ZZ=           -140.1096
   XY=             12.7289   XZ=              0.4892   YZ=             -2.4656

  Exact polarizability: 234.547  -2.225 198.672   0.476  -0.072 143.939
 Approx polarizability: 274.381  -1.904 255.903  -0.432  -1.301 240.646

 ******    7 imaginary frequencies (negative Signs) ******

                     1                      2                      3
                     A                      A                      A
 Frequencies --  -337.0071              -333.2809              -255.0154
 Red. masses --     1.6949                 1.6779                 1.1439
 Frc consts  --     0.1134                 0.1098                 0.0438
 IR Inten    --     6.0293                13.7141                97.2913
 Raman Activ --     0.0187                 0.0761                 0.7496

                     4                      5                      6
                     A                      A                      A
 Frequencies --  -236.9408               -78.8038               -53.4319
 Red. masses --     1.1783                 7.0285                 5.9416
 Frc consts  --     0.0390                 0.0257                 0.0100
 IR Inten    --   112.8656                 0.3099                 1.8552
 Raman Activ --     0.7894                 0.0286                 0.0377

                     7                      8                      9
                     A                      A                      A
 Frequencies --   -30.3150                50.8803                61.5552
 Red. masses --     7.0721                 7.0028                 6.3786
 Frc consts  --     0.0038                 0.0107                 0.0142
 IR Inten    --     2.5504                 0.1572                 3.6280
 Raman Activ --     0.0315                 0.1022                 0.0566

                    10                     11                     12
                     A                      A                      A
 Frequencies --    65.7083               101.1129               116.5377
 Red. masses --     6.4285                 6.5691                 5.7775
 Frc consts  --     0.0164                 0.0396                 0.0462
 IR Inten    --     1.1241                 2.4806                 1.0846
 Raman Activ --     0.2732                 0.0343                 0.1661

                    13                     14                     15
                     A                      A                      A
 Frequencies --   127.4052               169.7156               184.7431
 Red. masses --     6.1347                 5.9509                 5.7247
 Frc consts  --     0.0587                 0.1010                 0.1151
 IR Inten    --     2.3796                 3.0131                 0.7621
 Raman Activ --     0.2765                 0.0578                 0.2514

                    16                     17                     18
                     A                      A                      A
 Frequencies --   187.0511               229.6666               245.1623
 Red. masses --     7.4121                 6.3018                 4.5387
 Frc consts  --     0.1528                 0.1958                 0.1607
 IR Inten    --     0.0617                 2.5846                24.4728
 Raman Activ --     1.9576                 1.3208                 0.4816

                    19                     20                     21
                     A                      A                      A
 Frequencies --   269.7964               284.5749               288.7048
 Red. masses --     5.9611                 5.3759                 6.4269
 Frc consts  --     0.2557                 0.2565                 0.3156
 IR Inten    --     2.5411                 2.6518                 6.4937
 Raman Activ --     0.3818                 0.1301                 0.4989

                    22                     23                     24
                     A                      A                      A
 Frequencies --   306.2833               309.0750               314.3212
 Red. masses --     6.3814                 4.9204                 5.3203
 Frc consts  --     0.3527                 0.2769                 0.3097
 IR Inten    --     2.9115                 5.0847                 3.5348
 Raman Activ --     3.9221                 2.5674                 1.3411

                    25                     26                     27
                     A                      A                      A
 Frequencies --   320.4511               361.1848               380.5813
 Red. masses --     6.3303                 5.2345                 4.9960
 Frc consts  --     0.3830                 0.4023                 0.4264
 IR Inten    --     3.5231                 5.6790                 1.3489
 Raman Activ --     5.3473                 0.5257                 0.4975

                    28                     29                     30
                     A                      A                      A
 Frequencies --   397.8080               411.2324               434.7101
 Red. masses --     4.6827                 5.3860                 4.9038
 Frc consts  --     0.4366                 0.5367                 0.5460
 IR Inten    --    21.3355                 5.8474                 2.4887
 Raman Activ --     2.5551                 3.9982                 2.0215

                    31                     32                     33
                     A                      A                      A
 Frequencies --   447.7920               468.6213               488.1073
 Red. masses --     4.5419                 4.1704                 4.5033
 Frc consts  --     0.5366                 0.5396                 0.6321
 IR Inten    --     6.4513                 8.3883                12.5553
 Raman Activ --     3.3275                 3.1899                 0.8622

                    34                     35                     36
                     A                      A                      A
 Frequencies --   516.6304               532.4870               556.6751
 Red. masses --     2.6786                 3.3216                 1.3623
 Frc consts  --     0.4212                 0.5549                 0.2487
 IR Inten    --    24.3450                22.7313                67.4069
 Raman Activ --     4.3257                 1.9652                 1.5705

                    37                     38                     39
                     A                      A                      A
 Frequencies --   572.3402               577.9197               609.1523
 Red. masses --     3.5337                 2.7438                 6.5115
 Frc consts  --     0.6820                 0.5399                 1.4236
 IR Inten    --     4.4050                43.0531                11.8572
 Raman Activ --     1.4862                 0.2981                 0.5861

                    40                     41                     42
                     A                      A                      A
 Frequencies --   629.0633               640.0178               688.2272
 Red. masses --     4.7566                 4.5996                 5.1689
 Frc consts  --     1.1090                 1.1101                 1.4425
 IR Inten    --     4.4210                63.7932                 9.2805
 Raman Activ --     0.1544                 1.4475                 1.1210

                    43                     44                     45
                     A                      A                      A
 Frequencies --   714.2817               714.9207               716.3878
 Red. masses --     1.0650                 1.0975                 1.0643
 Frc consts  --     0.3201                 0.3305                 0.3218
 IR Inten    --    54.2436               119.8365               133.9200
 Raman Activ --     1.3164                 1.3598                 2.3149

                    46                     47                     48
                     A                      A                      A
 Frequencies --   823.4106               839.6726               845.4741
 Red. masses --     1.1478                 1.6722                 1.1790
 Frc consts  --     0.4585                 0.6947                 0.4965
 IR Inten    --   103.0590                27.5729                73.4367
 Raman Activ --     0.5911                 1.5117                 3.1362

                    49                     50                     51
                     A                      A                      A
 Frequencies --   856.3059               908.1644               939.5168
 Red. masses --     1.7212                 4.8500                 5.2830
 Frc consts  --     0.7436                 2.3568                 2.7475
 IR Inten    --    15.4944               220.3772                39.9289
 Raman Activ --     0.3301                 4.1661                 0.7420

                    52                     53                     54
                     A                      A                      A
 Frequencies --   973.0466               978.9683               986.4341
 Red. masses --     5.4773                 5.1911                 4.8065
 Frc consts  --     3.0555                 2.9312                 2.7556
 IR Inten    --    26.5734                78.7334                55.9133
 Raman Activ --     1.0323                 5.6040                 1.1042

                    55                     56                     57
                     A                      A                      A
 Frequencies --   989.8433              1003.5406              1017.2149
 Red. masses --     7.1181                 6.5316                 6.0132
 Frc consts  --     4.1091                 3.8756                 3.6659
 IR Inten    --   432.6716                36.3770               136.1950
 Raman Activ --     1.8366                 2.8792                 3.0673

                    58                     59                     60
                     A                      A                      A
 Frequencies --  1031.3686              1053.0240              1059.1523
 Red. masses --     6.2832                 4.6996                 4.1136
 Frc consts  --     3.9379                 3.0703                 2.7189
 IR Inten    --   380.8110               127.2482                86.3864
 Raman Activ --     3.0105                 3.1636                 8.2655

                    61                     62                     63
                     A                      A                      A
 Frequencies --  1071.0060              1075.3082              1078.2766
 Red. masses --     3.7074                 2.9315                 4.5170
 Frc consts  --     2.5056                 1.9972                 3.0943
 IR Inten    --     8.6221                 6.9235                10.1822
 Raman Activ --    10.5447                14.2986                 1.2846

                    64                     65                     66
                     A                      A                      A
 Frequencies --  1094.3127              1095.9069              1104.7561
 Red. masses --     2.5378                 3.1549                 3.1369
 Frc consts  --     1.7906                 2.2325                 2.2557
 IR Inten    --    31.2937                17.0137                50.6227
 Raman Activ --    16.0907                 2.7873                 5.1087

                    67                     68                     69
                     A                      A                      A
 Frequencies --  1108.4982              1123.0047              1128.5635
 Red. masses --     2.7418                 2.2911                 3.1466
 Frc consts  --     1.9850                 1.7024                 2.3613
 IR Inten    --    10.2138                54.7072                52.4341
 Raman Activ --     7.2170                 1.6507                 5.4510

                    70                     71                     72
                     A                      A                      A
 Frequencies --  1139.2487              1146.4667              1157.1828
 Red. masses --     2.5007                 2.0999                 1.7001
 Frc consts  --     1.9123                 1.6262                 1.3413
 IR Inten    --    27.9787                12.9987                 8.6071
 Raman Activ --     5.6093                 3.6491                 2.3975

                    73                     74                     75
                     A                      A                      A
 Frequencies --  1162.6349              1172.6354              1183.8892
 Red. masses --     1.6394                 2.0796                 1.9357
 Frc consts  --     1.3056                 1.6848                 1.5985
 IR Inten    --    24.2850                25.7989                 5.0086
 Raman Activ --     2.3448                 1.8807                 1.8045

                    76                     77                     78
                     A                      A                      A
 Frequencies --  1187.3126              1203.7130              1212.8111
 Red. masses --     1.3994                 1.2444                 1.3315
 Frc consts  --     1.1623                 1.0623                 1.1540
 IR Inten    --    17.5954                17.1154                12.9425
 Raman Activ --     4.4258                 3.2031                 1.4086

                    79                     80                     81
                     A                      A                      A
 Frequencies --  1228.5170              1232.5803              1257.9583
 Red. masses --     1.3129                 1.1545                 1.3237
 Frc consts  --     1.1674                 1.0334                 1.2341
 IR Inten    --     1.6619                 1.0854                18.9892
 Raman Activ --     0.5138                 1.8593                 2.0755

                    82                     83                     84
                     A                      A                      A
 Frequencies --  1260.4862              1273.9799              1280.4978
 Red. masses --     1.1742                 1.2557                 1.3446
 Frc consts  --     1.0992                 1.2007                 1.2990
 IR Inten    --    26.6791                 2.1190                15.8700
 Raman Activ --     3.3782                 0.6395                 2.4228

                    85                     86                     87
                     A                      A                      A
 Frequencies --  1287.4051              1297.9292              1306.5379
 Red. masses --     1.3093                 1.2485                 1.3249
 Frc consts  --     1.2786                 1.2392                 1.3325
 IR Inten    --    30.4495                10.4949                19.8465
 Raman Activ --     0.8777                 2.5876                 8.4772

                    88                     89                     90
                     A                      A                      A
 Frequencies --  1313.5831              1317.2881              1325.5191
 Red. masses --     1.3922                 1.3214                 1.4020
 Frc consts  --     1.4153                 1.3510                 1.4513
 IR Inten    --    16.1723                26.1640                35.9307
 Raman Activ --     5.9399                 2.9107                 8.0022

                    91                     92                     93
                     A                      A                      A
 Frequencies --  1333.7495              1342.2048              1350.8560
 Red. masses --     1.1911                 1.2643                 1.1872
 Frc consts  --     1.2483                 1.3420                 1.2764
 IR Inten    --    21.9572                26.7706                25.7080
 Raman Activ --     1.6050                 3.8615                 5.3165

                    94                     95                     96
                     A                      A                      A
 Frequencies --  1361.9567              1365.9852              1375.5137
 Red. masses --     1.4178                 1.4972                 1.1358
 Frc consts  --     1.5495                 1.6460                 1.2661
 IR Inten    --    26.2618                 5.9870                22.2329
 Raman Activ --     6.5186                 3.4156                 7.0621

                    97                     98                     99
                     A                      A                      A
 Frequencies --  1382.0654              1390.3353              1390.8545
 Red. masses --     1.7353                 1.5940                 1.3484
 Frc consts  --     1.9529                 1.8154                 1.5369
 IR Inten    --    10.7064                 2.0700                 3.7280
 Raman Activ --     5.3504                 2.2332                 4.6426

                   100                    101                    102
                     A                      A                      A
 Frequencies --  1414.2705              1424.0399              1448.4086
 Red. masses --     1.3425                 1.4518                 1.3246
 Frc consts  --     1.5821                 1.7346                 1.6373
 IR Inten    --    35.8875                 7.9050                30.6219
 Raman Activ --     0.7444                 2.1618                 1.9956

                   103                    104                    105
                     A                      A                      A
 Frequencies --  1465.5106              1466.0252              1476.4917
 Red. masses --     1.1099                 1.0892                 1.2829
 Frc consts  --     1.4045                 1.3792                 1.6478
 IR Inten    --    15.6338                 2.6554                 6.1268
 Raman Activ --     5.8518                 3.7445                 0.2537

                   106                    107                    108
                     A                      A                      A
 Frequencies --  1514.0834              1520.5821              3248.6028
 Red. masses --     1.2490                 1.2408                 1.0582
 Frc consts  --     1.6871                 1.6903                 6.5796
 IR Inten    --    26.7374                58.4375                30.1533
 Raman Activ --     1.4286                 2.9995                92.0791

                   109                    110                    111
                     A                      A                      A
 Frequencies --  3256.3394              3260.6840              3269.3186
 Red. masses --     1.0592                 1.0713                 1.0824
 Frc consts  --     6.6177                 6.7106                 6.8165
 IR Inten    --    13.3860               570.6129                 9.2118
 Raman Activ --    77.0384               159.7455                32.4778

                   112                    113                    114
                     A                      A                      A
 Frequencies --  3271.5237              3273.0497              3278.6651
 Red. masses --     1.0803                 1.0820                 1.0811
 Frc consts  --     6.8121                 6.8294                 6.8474
 IR Inten    --    79.5851                 3.0072                77.2448
 Raman Activ --   113.5965               107.8266                96.8528

                   115                    116                    117
                     A                      A                      A
 Frequencies --  3285.7097              3289.1572              3293.0914
 Red. masses --     1.0853                 1.0853                 1.0864
 Frc consts  --     6.9032                 6.9178                 6.9412
 IR Inten    --    11.0839                 0.7931                14.8794
 Raman Activ --    38.9646                34.4380                17.9571

                   118                    119                    120
                     A                      A                      A
 Frequencies --  3297.7535              3304.0573              3304.5659
 Red. masses --     1.0880                 1.0964                 1.0899
 Frc consts  --     6.9715                 7.0519                 7.0124
 IR Inten    --    23.2289                27.5210                 2.1050
 Raman Activ --    78.0330                38.0236                47.4927

                   121                    122                    123
                     A                      A                      A
 Frequencies --  3307.8482              3310.0285              3325.3913
 Red. masses --     1.0935                 1.0999                 1.0678
 Frc consts  --     7.0496                 7.1001                 6.9570
 IR Inten    --    58.0777               115.2673               353.9915
 Raman Activ --    13.7400                28.8143               152.1620

                   124                    125                    126
                     A                      A                      A
 Frequencies --  3363.7183              3365.9806              3370.9959
 Red. masses --     1.0666                 1.0675                 1.0675
 Frc consts  --     7.1104                 7.1259                 7.1470
 IR Inten    --    55.5273                59.3459                40.2981
 Raman Activ --   112.4672               137.6305                91.9317

                   127                    128                    129
                     A                      A                      A
 Frequencies --  3371.4644              3888.8890              3893.3966
 Red. masses --     1.0685                 1.0676                 1.0673
 Frc consts  --     7.1558                 9.5128                 9.5321
 IR Inten    --    89.0403                75.7441                67.4649
 Raman Activ --   237.9084                78.4771               132.7748

 - Thermochemistry -
 -------------------
 Temperature   298.150 Kelvin.  Pressure   1.00000 Atm.
 Atom     1 has atomic number  8 and mass  15.99491

 Molecular mass:   342.11621 amu.
 Principal axes and moments of inertia in atomic units:
                           1         2         3
     Eigenvalues --  4472.98912********************
           X            0.99997   0.00712  -0.00002
           Y           -0.00712   0.99997   0.00063
           Z            0.00003  -0.00063   1.00000
 This molecule is an asymmetric top.
 Rotational symmetry number  1.
 Warning -- assumption of classical behavior for rotation
           may cause significant error
 Rotational temperatures (Kelvin)      0.01936     0.00692     0.00524
 Rotational constants (GHZ):           0.40348     0.14429     0.10928
    7 imaginary frequencies ignored.
 Zero-point vibrational energy     971828.2 (Joules/Mol)
                                  232.27253 (Kcal/Mol)
 Warning -- explicit consideration of  32 degrees of freedom as
           vibrations may cause significant error
 Vibrational temperatures:     73.21    88.56    94.54   145.48   167.67
          (Kelvin)            183.31   244.18   265.80   269.12   330.44
                              352.73   388.18   409.44   415.38   440.67
                              444.69   452.24   461.06   519.66   547.57
                              572.36   591.67   625.45   644.27   674.24
                              702.28   743.31   766.13   800.93   823.47
                              831.50   876.43   905.08   920.84   990.20
                             1027.69  1028.61  1030.72  1184.70  1208.10
                             1216.45  1232.03  1306.64  1351.75  1400.00
                             1408.52  1419.26  1424.16  1443.87  1463.54
                             1483.91  1515.06  1523.88  1540.94  1547.13
                             1551.40  1574.47  1576.76  1589.50  1594.88
                             1615.75  1623.75  1639.12  1649.51  1664.93
                             1672.77  1687.16  1703.35  1708.28  1731.87
                             1744.96  1767.56  1773.41  1809.92  1813.56
                             1832.97  1842.35  1852.29  1867.43  1879.81
                             1889.95  1895.28  1907.12  1918.97  1931.13
                             1943.58  1959.55  1965.35  1979.05  1988.48
                             2000.38  2001.13  2034.82  2048.87  2083.93
                             2108.54  2109.28  2124.34  2178.43  2187.78
                             4674.01  4685.14  4691.39  4703.81  4706.99
                             4709.18  4717.26  4727.40  4732.36  4738.02
                             4744.73  4753.80  4754.53  4759.25  4762.39
                             4784.49  4839.63  4842.89  4850.11  4850.78
                             5595.24  5601.72

 Zero-point correction=                           0.370150 (Hartree/Particle)
 Thermal correction to Energy=                    0.388774
 Thermal correction to Enthalpy=                  0.389718
 Thermal correction to Gibbs Free Energy=         0.324212
 Sum of electronic and zero-point Energies=          -1297.600647
 Sum of electronic and thermal Energies=             -1297.582023
 Sum of electronic and thermal Enthalpies=           -1297.581079
 Sum of electronic and thermal Free Energies=        -1297.646586

                     E (Thermal)             CV                S
                      KCal/Mol        Cal/Mol-Kelvin    Cal/Mol-Kelvin
 Total                  243.959             76.571            137.870
 Electronic               0.000              0.000              0.000
 Translational            0.889              2.981             43.384
 Rotational               0.889              2.981             35.179
 Vibrational            242.182             70.610             59.307
 Vibration     1          0.595              1.977              4.783
 Vibration     2          0.597              1.973              4.407
 Vibration     3          0.597              1.971              4.278
 Vibration     4          0.604              1.948              3.433
 Vibration     5          0.608              1.936              3.157
 Vibration     6          0.611              1.926              2.985
 Vibration     7          0.625              1.880              2.439
 Vibration     8          0.631              1.861              2.280
 Vibration     9          0.632              1.858              2.257
 Vibration    10          0.652              1.796              1.882
 Vibration    11          0.660              1.771              1.765
 Vibration    12          0.674              1.729              1.598
 Vibration    13          0.683              1.702              1.506
 Vibration    14          0.685              1.695              1.482
 Vibration    15          0.697              1.662              1.382
 Vibration    16          0.698              1.656              1.367
 Vibration    17          0.702              1.646              1.339
 Vibration    18          0.706              1.634              1.308
 Vibration    19          0.735              1.552              1.117
 Vibration    20          0.750              1.512              1.037
 Vibration    21          0.764              1.475              0.971
 Vibration    22          0.775              1.446              0.922
 Vibration    23          0.795              1.395              0.843
 Vibration    24          0.807              1.366              0.802
 Vibration    25          0.826              1.320              0.741
 Vibration    26          0.844              1.276              0.689
 Vibration    27          0.872              1.213              0.618
 Vibration    28          0.887              1.178              0.582
 Vibration    29          0.912              1.125              0.531
 Vibration    30          0.929              1.091              0.500
 Vibration    31          0.934              1.079              0.489
 Vibration    32          0.968              1.012              0.434

 Normal termination of Gaussian 09 at Thu Mar 31 02:17:49 2016.
