 Gaussian 09, Revision B.01,
 Gaussian 09:  EM64L-G09RevB.01 12-Aug-2010

 -------------------------------------------------
 # freq=raman b3lyp/6-31+g(2d,p) geom=connectivity
 -------------------------------------------------

 -----------------
 450 9144/9144.com
 -----------------
 Symbolic Z-matrix:
 Charge =  0 Multiplicity = 1

                         Standard orientation:
 ---------------------------------------------------------------------
 Center     Atomic      Atomic             Coordinates (Angstroms)
 Number     Number       Type             X           Y           Z
 ---------------------------------------------------------------------
      1          8           0       -5.070860   -0.485175    0.817623
      2          6           0       -3.935678   -0.116178    0.020595
      3          6           0       -3.434671    1.282693    0.340315
      4          8           0       -4.291049    2.255591   -0.273937
      5          1           0       -5.245654    2.057298   -0.050925
      6          6           0       -2.044730    1.580072   -0.197566
      7          8           0       -1.516389    2.782712    0.379708
      8          1           0       -2.293656    3.409921    0.327415
      9          6           0       -3.399125   -2.416078   -0.395114
     10          8           0       -2.541306   -3.558041   -0.530665
     11          1           0       -3.052813   -4.396127   -0.715718
     12          6           0       -2.832411   -1.143772    0.214766
     13          8           0       -1.548805   -0.824750   -0.341838
     14          6           0       -1.027831    0.467589    0.002402
     15          8           0        0.243878    0.540948   -0.658171
     16          6           0        1.371411    0.224190    0.171722
     17          6           0        1.907664   -1.155704   -0.172655
     18          8           0        1.020053   -2.118113    0.415584
     19          1           0        0.217431   -1.932088   -0.150888
     20          6           0        3.245542   -1.488429    0.465803
     21          8           0        3.707991   -2.743867   -0.053032
     22          1           0        3.590958   -3.373961    0.715051
     23          6           0        2.053566    2.566651    0.061288
     24          8           0        2.821130    3.706647   -0.353925
     25          1           0        3.040670    3.743296   -1.329490
     26          6           0        2.507696    1.147336   -0.235164
     27          8           0        3.792754    0.825228    0.316257
     28          6           0        4.189015   -0.470329   -0.156551
     29          8           0        5.519529   -0.699587    0.329771
     30          1           0       -5.876559   -0.212202    0.372725
     31          1           0       -3.763349   -2.170191   -1.370707
     32          1           0       -4.236975   -2.712501    0.200739
     33          1           0       -2.707259   -1.303267    1.265384
     34          1           0       -4.231242   -0.135726   -1.007588
     35          1           0       -3.440943    1.425921    1.400667
     36          1           0       -2.138312    1.742721   -1.250983
     37          1           0       -0.819579    0.442917    1.051651
     38          1           0        6.154878   -0.351356   -0.300044
     39          1           0        4.155892   -0.516618   -1.225036
     40          1           0        3.229049   -1.448769    1.534941
     41          1           0        1.953696   -1.288416   -1.233394
     42          1           0        1.140621    0.313804    1.212685
     43          1           0        2.603597    1.068597   -1.297945
     44          1           0        1.941233    2.639779    1.122860
     45          1           0        1.080210    2.675979   -0.369437
 ---------------------------------------------------------------------

 SCF Done:  E(RB3LYP) =  -1297.98104421     A.U. after   13 cycles

 The electronic state is 1-A.
 Alpha  occ. eigenvalues --  -19.19609 -19.19202 -19.18512 -19.18360 -19.17459
 Alpha  occ. eigenvalues --  -19.16046 -19.15689 -19.15150 -19.14804 -19.14124
 Alpha  occ. eigenvalues --  -19.13593 -10.31102 -10.28166 -10.27287 -10.26876
 Alpha  occ. eigenvalues --  -10.26609 -10.26374 -10.24710 -10.24564 -10.23642
 Alpha  occ. eigenvalues --  -10.23425 -10.22938 -10.21733  -1.09898  -1.07897
 Alpha  occ. eigenvalues --   -1.06855  -1.06072  -1.04294  -1.03774  -1.02518
 Alpha  occ. eigenvalues --   -1.02272  -1.00915  -1.00174  -0.99719  -0.82829
 Alpha  occ. eigenvalues --   -0.81586  -0.78789  -0.77257  -0.71984  -0.69303
 Alpha  occ. eigenvalues --   -0.67742  -0.64645  -0.63596  -0.62096  -0.61184
 Alpha  occ. eigenvalues --   -0.60179  -0.57614  -0.56715  -0.55010  -0.53999
 Alpha  occ. eigenvalues --   -0.53419  -0.52904  -0.52715  -0.51777  -0.50618
 Alpha  occ. eigenvalues --   -0.50336  -0.49208  -0.48164  -0.47291  -0.47028
 Alpha  occ. eigenvalues --   -0.45995  -0.45068  -0.44494  -0.43743  -0.43286
 Alpha  occ. eigenvalues --   -0.42138  -0.41567  -0.40632  -0.40140  -0.39703
 Alpha  occ. eigenvalues --   -0.39214  -0.37418  -0.37060  -0.36729  -0.36409
 Alpha  occ. eigenvalues --   -0.35872  -0.35091  -0.34879  -0.34153  -0.33630
 Alpha  occ. eigenvalues --   -0.32407  -0.31373  -0.31221  -0.30038  -0.29957
 Alpha  occ. eigenvalues --   -0.29232  -0.28914  -0.28395  -0.27342  -0.26090
 Alpha  occ. eigenvalues --   -0.24998
 Alpha virt. eigenvalues --   -0.04432  -0.01693  -0.00350  -0.00209   0.00681
 Alpha virt. eigenvalues --    0.01157   0.01575   0.02026   0.02143   0.03171
 Alpha virt. eigenvalues --    0.03922   0.04127   0.04781   0.05382   0.05914

 Mulliken atomic charges:
              1
     1  O   -0.519142
     2  C   -0.283771
     3  C    0.395361
     4  O   -0.560880
     5  H    0.324661
     6  C   -0.034649
     7  O   -0.539825
     8  H    0.357310
     9  C   -0.363722
    10  O   -0.536160
    11  H    0.339387
    12  C    0.344202
    13  O   -0.285430
    14  C    0.146596
    15  O   -0.209668
    16  C    0.400977
    17  C    0.007347
    18  O   -0.545593
    19  H    0.364018
    20  C   -0.095870
    21  O   -0.477800
    22  H    0.332927
    23  C   -0.250804
    24  O   -0.515567
    25  H    0.314772
    26  C   -0.087904
    27  O   -0.281955
    28  C    0.262024
    29  O   -0.525179
    30  H    0.328960
    31  H    0.126841
    32  H    0.164711
    33  H    0.122886
    34  H    0.127687
    35  H    0.140714
    36  H    0.137133
    37  H    0.102107
    38  H    0.321736
    39  H    0.127435
    40  H    0.138416
    41  H    0.140302
    42  H    0.119686
    43  H    0.100681
    44  H    0.146790
    45  H    0.178253
 Sum of Mulliken atomic charges =   0.00000

 Dipole moment (field-independent basis, Debye):
    X=             -8.3430    Y=             -0.5004    Z=             -2.0248  Tot=              8.5997
 Quadrupole moment (field-independent basis, Debye-Ang):
   XX=           -110.1945   YY=           -147.6476   ZZ=           -134.5923
   XY=              0.4855   XZ=             -6.4599   YZ=             -4.6167

  Exact polarizability: 227.247  -2.562 199.845  -2.012  -1.379 145.298
 Approx polarizability: 269.378  -2.254 257.215  -1.764  -3.137 243.372

 ******    8 imaginary frequencies (negative Signs) ******

                     1                      2                      3
                     A                      A                      A
 Frequencies --  -277.1059              -209.1916              -204.0775
 Red. masses --     1.7692                 1.4395                 1.1728
 Frc consts  --     0.0800                 0.0371                 0.0288
 IR Inten    --     5.5308                29.9842                68.7192
 Raman Activ --     0.1118                 0.3872                 1.0279

                     4                      5                      6
                     A                      A                      A
 Frequencies --  -182.0416               -73.0435               -59.9079
 Red. masses --     1.2278                 6.5456                 6.4209
 Frc consts  --     0.0240                 0.0206                 0.0136
 IR Inten    --   104.5301                 0.2007                 1.5408
 Raman Activ --     0.7369                 0.0308                 0.0607

                     7                      8                      9
                     A                      A                      A
 Frequencies --   -33.7800               -27.1629                40.2722
 Red. masses --     6.3027                 6.0198                 7.1308
 Frc consts  --     0.0042                 0.0026                 0.0068
 IR Inten    --     0.8545                 1.9804                 0.0464
 Raman Activ --     0.1241                 0.0249                 0.0482

                    10                     11                     12
                     A                      A                      A
 Frequencies --    64.5916                93.1140               117.2831
 Red. masses --     6.8182                 6.3968                 6.6745
 Frc consts  --     0.0168                 0.0327                 0.0541
 IR Inten    --     0.7370                 0.5793                 1.2429
 Raman Activ --     0.0705                 0.0355                 0.6489

                    13                     14                     15
                     A                      A                      A
 Frequencies --   143.0529               152.5707               182.7888
 Red. masses --     5.9076                 6.7425                 7.2803
 Frc consts  --     0.0712                 0.0925                 0.1433
 IR Inten    --     2.1527                 0.9731                 1.2792
 Raman Activ --     0.1588                 0.5708                 2.0965

                    16                     17                     18
                     A                      A                      A
 Frequencies --   195.8963               215.0214               250.2220
 Red. masses --     5.6129                 6.7982                 5.0594
 Frc consts  --     0.1269                 0.1852                 0.1866
 IR Inten    --     4.2272                 0.9139                 6.7910
 Raman Activ --     0.1097                 1.5833                 0.2685

                    19                     20                     21
                     A                      A                      A
 Frequencies --   273.2792               292.0525               300.2354
 Red. masses --     4.8966                 4.0752                 6.3602
 Frc consts  --     0.2155                 0.2048                 0.3378
 IR Inten    --     6.0213                12.2272                 0.4259
 Raman Activ --     0.0754                 0.2822                 0.5397

                    22                     23                     24
                     A                      A                      A
 Frequencies --   307.4763               324.7170               335.7442
 Red. masses --     4.9257                 6.4460                 6.2438
 Frc consts  --     0.2744                 0.4005                 0.4147
 IR Inten    --     0.8769                 1.7762                 0.3520
 Raman Activ --     0.2107                 1.1604                 4.8474

                    25                     26                     27
                     A                      A                      A
 Frequencies --   345.2704               374.2715               383.8368
 Red. masses --     6.0361                 6.8411                 4.0950
 Frc consts  --     0.4240                 0.5646                 0.3555
 IR Inten    --     4.4049                 1.0442                 2.8340
 Raman Activ --     4.9022                 0.3613                 1.0737

                    28                     29                     30
                     A                      A                      A
 Frequencies --   420.4962               435.8571               438.8442
 Red. masses --     5.7498                 5.7815                 3.9517
 Frc consts  --     0.5990                 0.6471                 0.4484
 IR Inten    --     2.2014                 1.6320                11.4434
 Raman Activ --     5.0026                 0.1685                 4.4993

                    31                     32                     33
                     A                      A                      A
 Frequencies --   444.4178               483.9356               495.0425
 Red. masses --     5.8987                 3.8982                 4.3339
 Frc consts  --     0.6864                 0.5379                 0.6258
 IR Inten    --     1.0391                14.1678                 6.6957
 Raman Activ --     1.6436                 0.6440                 0.8521

                    34                     35                     36
                     A                      A                      A
 Frequencies --   543.0919               551.3471               560.5014
 Red. masses --     4.0343                 4.1865                 5.2439
 Frc consts  --     0.7011                 0.7498                 0.9706
 IR Inten    --    12.9592                10.6602                 6.0955
 Raman Activ --     0.7561                 8.0637                 0.9279

                    37                     38                     39
                     A                      A                      A
 Frequencies --   591.6856               600.8589               610.1651
 Red. masses --     3.2065                 2.6971                 3.2692
 Frc consts  --     0.6614                 0.5737                 0.7171
 IR Inten    --    11.5966                16.5920                 5.9956
 Raman Activ --     0.7372                 0.2114                 0.2753

                    40                     41                     42
                     A                      A                      A
 Frequencies --   646.0444               651.7850               656.5072
 Red. masses --     3.0864                 1.8544                 1.0858
 Frc consts  --     0.7590                 0.4642                 0.2757
 IR Inten    --     7.5028               129.8812               125.0655
 Raman Activ --     0.4387                 0.2816                 2.0944

                    43                     44                     45
                     A                      A                      A
 Frequencies --   664.6953               666.2632               717.9934
 Red. masses --     1.3168                 1.4389                 1.0701
 Frc consts  --     0.3428                 0.3763                 0.3250
 IR Inten    --    23.7359                83.6856                94.2078
 Raman Activ --     1.5725                 0.7395                 1.7664

                    46                     47                     48
                     A                      A                      A
 Frequencies --   761.1033               821.3535               826.3495
 Red. masses --     1.0865                 1.3559                 2.7122
 Frc consts  --     0.3708                 0.5389                 1.0912
 IR Inten    --    99.4721                97.6257                 1.2890
 Raman Activ --     1.3106                 5.6542                 2.0354

                    49                     50                     51
                     A                      A                      A
 Frequencies --   841.3205               942.1720               967.2222
 Red. masses --     1.8577                 6.8051                 5.1424
 Frc consts  --     0.7747                 3.5592                 2.8345
 IR Inten    --    19.0329               207.5553               189.3718
 Raman Activ --     3.3439                 2.1599                 0.2770

                    52                     53                     54
                     A                      A                      A
 Frequencies --   972.4623               973.8810               990.1114
 Red. masses --     5.4658                 5.4757                 6.3212
 Frc consts  --     3.0454                 3.0599                 3.6511
 IR Inten    --    35.0262               175.6152               337.4851
 Raman Activ --     3.1761                 3.6842                 1.7106

                    55                     56                     57
                     A                      A                      A
 Frequencies --  1001.3306              1008.8723              1018.0380
 Red. masses --     6.3542                 6.0811                 4.0487
 Frc consts  --     3.7537                 3.6468                 2.4723
 IR Inten    --    45.0221               122.2009               268.8105
 Raman Activ --     2.8227                 1.1238                 1.9137

                    58                     59                     60
                     A                      A                      A
 Frequencies --  1031.6057              1037.0900              1056.9294
 Red. masses --     2.4516                 2.1572                 4.0161
 Frc consts  --     1.5372                 1.3670                 2.6433
 IR Inten    --   111.6660               109.7378                19.7570
 Raman Activ --     3.0682                 4.0755                 8.9788

                    61                     62                     63
                     A                      A                      A
 Frequencies --  1063.8011              1066.5148              1068.3917
 Red. masses --     5.7290                 4.3531                 4.9213
 Frc consts  --     3.8199                 2.9173                 3.3097
 IR Inten    --    46.4333                46.6873                42.4738
 Raman Activ --    13.2144                 7.8672                 2.7671

                    64                     65                     66
                     A                      A                      A
 Frequencies --  1085.4717              1089.6141              1098.2018
 Red. masses --     2.8851                 3.3474                 3.5399
 Frc consts  --     2.0028                 2.3416                 2.5154
 IR Inten    --     7.5104                57.5095                28.6572
 Raman Activ --     3.6376                12.9283                 4.5355

                    67                     68                     69
                     A                      A                      A
 Frequencies --  1108.1354              1109.0140              1124.3048
 Red. masses --     2.4143                 2.5594                 1.6212
 Frc consts  --     1.7467                 1.8546                 1.2074
 IR Inten    --    16.6382                 4.7167                19.1227
 Raman Activ --     5.0642                 3.7837                 0.5280

                    70                     71                     72
                     A                      A                      A
 Frequencies --  1139.2650              1144.4722              1147.6807
 Red. masses --     2.4307                 3.0274                 2.2872
 Frc consts  --     1.8588                 2.3363                 1.7750
 IR Inten    --    44.8114                15.5098                 7.0072
 Raman Activ --     3.4470                 2.5483                 0.4011

                    73                     74                     75
                     A                      A                      A
 Frequencies --  1157.6604              1170.4090              1178.6310
 Red. masses --     2.1487                 2.1069                 1.8801
 Frc consts  --     1.6966                 1.7005                 1.5388
 IR Inten    --    19.1477                 5.7453                24.7129
 Raman Activ --     2.5542                 3.5837                 2.6666

                    76                     77                     78
                     A                      A                      A
 Frequencies --  1195.2839              1211.7953              1219.6486
 Red. masses --     1.5376                 1.3020                 1.3013
 Frc consts  --     1.2943                 1.1265                 1.1405
 IR Inten    --    12.0246                10.6991                15.5943
 Raman Activ --     1.7198                 1.7071                 0.9697

                    79                     80                     81
                     A                      A                      A
 Frequencies --  1236.9928              1246.2244              1262.8292
 Red. masses --     1.2649                 1.2046                 1.2707
 Frc consts  --     1.1403                 1.1022                 1.1939
 IR Inten    --    17.6260                19.6281                10.1860
 Raman Activ --     1.3028                 2.0426                 2.3907

                    82                     83                     84
                     A                      A                      A
 Frequencies --  1266.2979              1274.5567              1280.1412
 Red. masses --     1.3038                 1.2429                 1.2831
 Frc consts  --     1.2318                 1.1896                 1.2389
 IR Inten    --    26.4576                 2.5575                 2.9085
 Raman Activ --     1.1689                 1.3665                 4.0953

                    85                     86                     87
                     A                      A                      A
 Frequencies --  1282.5355              1289.2119              1310.4193
 Red. masses --     1.2003                 1.1828                 1.4461
 Frc consts  --     1.1633                 1.1583                 1.4631
 IR Inten    --    20.9677                 8.1720                20.9541
 Raman Activ --     2.3301                 2.8621                 4.5685

                    88                     89                     90
                     A                      A                      A
 Frequencies --  1313.2038              1317.2984              1327.9825
 Red. masses --     1.6342                 1.3229                 1.4023
 Frc consts  --     1.6604                 1.3526                 1.4570
 IR Inten    --    25.8931                 8.5475                13.9374
 Raman Activ --     5.5945                 7.5935                 7.4072

                    91                     92                     93
                     A                      A                      A
 Frequencies --  1332.5421              1340.2326              1349.2754
 Red. masses --     1.2659                 1.2183                 1.1680
 Frc consts  --     1.3243                 1.2893                 1.2528
 IR Inten    --    41.1922                18.9929                18.7698
 Raman Activ --     1.2880                 3.8609                 1.8887

                    94                     95                     96
                     A                      A                      A
 Frequencies --  1360.9904              1362.2648              1389.4484
 Red. masses --     1.2635                 1.5272                 1.4056
 Frc consts  --     1.3789                 1.6699                 1.5988
 IR Inten    --    10.2721                30.6107                 4.4168
 Raman Activ --     6.4862                 2.1784                 7.2211

                    97                     98                     99
                     A                      A                      A
 Frequencies --  1389.6390              1395.3599              1405.0204
 Red. masses --     1.3978                 1.3346                 1.2477
 Frc consts  --     1.5903                 1.5310                 1.4511
 IR Inten    --     3.9267                12.4551                70.6482
 Raman Activ --     1.7813                 1.8554                 2.3996

                   100                    101                    102
                     A                      A                      A
 Frequencies --  1422.8503              1425.6331              1450.9651
 Red. masses --     1.4564                 1.2234                 1.3686
 Frc consts  --     1.7372                 1.4650                 1.6976
 IR Inten    --    40.1278                17.9758                 7.8471
 Raman Activ --     2.7214                 8.8545                 0.7002

                   103                    104                    105
                     A                      A                      A
 Frequencies --  1457.1908              1465.1361              1474.5587
 Red. masses --     1.0854                 1.0746                 1.2774
 Frc consts  --     1.3579                 1.3591                 1.6364
 IR Inten    --     7.2610                 2.5040                26.8081
 Raman Activ --     5.1974                 4.6062                 3.9914

                   106                    107                    108
                     A                      A                      A
 Frequencies --  1492.0366              1530.2981              3254.4747
 Red. masses --     1.3959                 1.2757                 1.0603
 Frc consts  --     1.8309                 1.7601                 6.6165
 IR Inten    --    73.0982                44.1675                38.5131
 Raman Activ --     1.5509                 0.8263                71.5208

                   109                    110                    111
                     A                      A                      A
 Frequencies --  3258.6881              3262.6566              3273.8989
 Red. masses --     1.0807                 1.0829                 1.0821
 Frc consts  --     6.7617                 6.7916                 6.8334
 IR Inten    --    17.4959                 3.4323                 3.7408
 Raman Activ --    51.9179                59.8674               120.6430

                   112                    113                    114
                     A                      A                      A
 Frequencies --  3276.7602              3281.2085              3282.4925
 Red. masses --     1.0593                 1.0830                 1.0858
 Frc consts  --     6.7015                 6.8699                 6.8928
 IR Inten    --    21.1460                 6.7462                17.4544
 Raman Activ --    75.2338                80.2804                11.3563

                   115                    116                    117
                     A                      A                      A
 Frequencies --  3284.2578              3293.5920              3298.3282
 Red. masses --     1.0845                 1.0855                 1.0867
 Frc consts  --     6.8919                 6.9377                 6.9654
 IR Inten    --     2.5142                 7.7581                28.3891
 Raman Activ --    13.1738               157.1956                14.6799

                   118                    119                    120
                     A                      A                      A
 Frequencies --  3301.5775              3315.0402              3315.4512
 Red. masses --     1.0862                 1.1017                 1.0884
 Frc consts  --     6.9757                 7.1334                 7.0489
 IR Inten    --    33.3138                24.1150                46.1597
 Raman Activ --     5.3951                45.3247                14.0014

                   121                    122                    123
                     A                      A                      A
 Frequencies --  3331.0541              3350.4201              3359.1398
 Red. masses --     1.1011                 1.0651                 1.0717
 Frc consts  --     7.1984                 7.0443                 7.1248
 IR Inten    --    23.6225               208.8514                16.4238
 Raman Activ --    53.7858               139.0825                72.0204

                   124                    125                    126
                     A                      A                      A
 Frequencies --  3363.8134              3369.8552              3376.3375
 Red. masses --     1.0662                 1.0654                 1.0669
 Frc consts  --     7.1082                 7.1284                 7.1661
 IR Inten    --    20.8932                55.9897                42.5040
 Raman Activ --   133.1030                87.8346               104.1917

                   127                    128                    129
                     A                      A                      A
 Frequencies --  3379.9907              3883.4582              3885.7026
 Red. masses --     1.0679                 1.0674                 1.0671
 Frc consts  --     7.1880                 9.4841                 9.4925
 IR Inten    --    51.6981                55.1533                51.8081
 Raman Activ --   191.2696               102.7607               140.3059

 - Thermochemistry -
 -------------------
 Temperature   298.150 Kelvin.  Pressure   1.00000 Atm.
 Atom     1 has atomic number  8 and mass  15.99491

 Molecular mass:   342.11621 amu.
 Principal axes and moments of inertia in atomic units:
                           1         2         3
     Eigenvalues --  4667.51450********************
           X            0.99999   0.00432  -0.00133
           Y           -0.00432   0.99999  -0.00064
           Z            0.00133   0.00065   1.00000
 This molecule is an asymmetric top.
 Rotational symmetry number  1.
 Warning -- assumption of classical behavior for rotation
           may cause significant error
 Rotational temperatures (Kelvin)      0.01856     0.00704     0.00525
 Rotational constants (GHZ):           0.38666     0.14670     0.10942
    8 imaginary frequencies ignored.
 Zero-point vibrational energy     972855.3 (Joules/Mol)
                                  232.51799 (Kcal/Mol)
 Warning -- explicit consideration of  31 degrees of freedom as
           vibrations may cause significant error
 Vibrational temperatures:     57.94    92.93   133.97   168.74   205.82
          (Kelvin)            219.52   262.99   281.85   309.37   360.01
                              393.19   420.20   431.97   442.39   467.19
                              483.06   496.77   538.49   552.25   605.00
                              627.10   631.40   639.42   696.27   712.25
                              781.39   793.26   806.44   851.30   864.50
                              877.89   929.51   937.77   944.57   956.35
                              958.60  1033.03  1095.06  1181.74  1188.93
                             1210.47  1355.57  1391.62  1399.15  1401.20
                             1424.55  1440.69  1451.54  1464.73  1484.25
                             1492.14  1520.68  1530.57  1534.47  1537.18
                             1561.75  1567.71  1580.07  1594.36  1595.62
                             1617.62  1639.15  1646.64  1651.25  1665.61
                             1683.96  1695.79  1719.74  1743.50  1754.80
                             1779.75  1793.04  1816.93  1821.92  1833.80
                             1841.84  1845.28  1854.89  1885.40  1889.40
                             1895.30  1910.67  1917.23  1928.29  1941.30
                             1958.16  1959.99  1999.10  1999.38  2007.61
                             2021.51  2047.16  2051.17  2087.61  2096.57
                             2108.00  2121.56  2146.71  2201.75  4682.46
                             4688.52  4694.23  4710.40  4714.52  4720.92
                             4722.77  4725.31  4738.74  4745.55  4750.23
                             4769.60  4770.19  4792.64  4820.50  4833.05
                             4839.77  4848.46  4857.79  4863.05  5587.42
                             5590.65

 Zero-point correction=                           0.370541 (Hartree/Particle)
 Thermal correction to Energy=                    0.388224
 Thermal correction to Enthalpy=                  0.389168
 Thermal correction to Gibbs Free Energy=         0.325788
 Sum of electronic and zero-point Energies=          -1297.610503
 Sum of electronic and thermal Energies=             -1297.592820
 Sum of electronic and thermal Enthalpies=           -1297.591876
 Sum of electronic and thermal Free Energies=        -1297.655256

                     E (Thermal)             CV                S
                      KCal/Mol        Cal/Mol-Kelvin    Cal/Mol-Kelvin
 Total                  243.614             74.398            133.395
 Electronic               0.000              0.000              0.000
 Translational            0.889              2.981             43.384
 Rotational               0.889              2.981             35.203
 Vibrational            241.837             68.436             54.807
 Vibration     1          0.594              1.981              5.246
 Vibration     2          0.597              1.971              4.312
 Vibration     3          0.602              1.954              3.594
 Vibration     4          0.608              1.935              3.145
 Vibration     5          0.616              1.910              2.763
 Vibration     6          0.619              1.900              2.640
 Vibration     7          0.630              1.863              2.300
 Vibration     8          0.636              1.846              2.171
 Vibration     9          0.645              1.818              2.001
 Vibration    10          0.663              1.762              1.729
 Vibration    11          0.676              1.723              1.575
 Vibration    12          0.687              1.689              1.462
 Vibration    13          0.693              1.673              1.416
 Vibration    14          0.697              1.659              1.376
 Vibration    15          0.709              1.626              1.286
 Vibration    16          0.717              1.604              1.232
 Vibration    17          0.724              1.585              1.188
 Vibration    18          0.745              1.525              1.062
 Vibration    19          0.753              1.505              1.024
 Vibration    20          0.783              1.426              0.890
 Vibration    21          0.796              1.392              0.840
 Vibration    22          0.799              1.385              0.830
 Vibration    23          0.804              1.373              0.813
 Vibration    24          0.840              1.286              0.700
 Vibration    25          0.851              1.261              0.671
 Vibration    26          0.898              1.155              0.559
 Vibration    27          0.907              1.137              0.541
 Vibration    28          0.916              1.117              0.523
 Vibration    29          0.949              1.049              0.464
 Vibration    30          0.959              1.030              0.448
 Vibration    31          0.969              1.010              0.433

 Normal termination of Gaussian 09 at Mon Mar 28 12:51:33 2016.
