 Gaussian 09, Revision B.01,
 Gaussian 09:  EM64L-G09RevB.01 12-Aug-2010

 ------------------------------------------------
 # freq=raman b3lyp/6-31+g(d,p) geom=connectivity
 ------------------------------------------------

 ------------
 290 6000.com
 ------------
 Symbolic Z-matrix:
 Charge =  0 Multiplicity = 1

                         Standard orientation:
 ---------------------------------------------------------------------
 Center     Atomic      Atomic             Coordinates (Angstroms)
 Number     Number       Type             X           Y           Z
 ---------------------------------------------------------------------
      1          8           0       -5.063146   -0.492428    0.405027
      2          6           0       -3.769543   -0.200097   -0.142623
      3          6           0       -3.308875    1.193006    0.255496
      4          8           0       -4.254791    2.231541   -0.033928
      5          1           0       -5.151249    1.789324   -0.021925
      6          6           0       -1.917375    1.573327   -0.225131
      7          8           0       -1.561459    2.937453    0.039728
      8          1           0       -0.594234    3.022066   -0.198561
      9          6           0       -2.830258   -2.619772   -0.249395
     10          8           0       -3.883969   -3.463269    0.238956
     11          1           0       -3.639582   -4.375384   -0.089819
     12          6           0       -2.686385   -1.191226    0.251889
     13          8           0       -1.416479   -0.695432   -0.193048
     14          6           0       -0.909270    0.558383    0.288771
     15          8           0        0.267881    0.562822   -0.531308
     16          6           0        1.457716    0.204849    0.186724
     17          6           0        1.968114   -1.109676   -0.381692
     18          8           0        1.062417   -2.193585   -0.131531
     19          1           0        0.104880   -1.946281   -0.280137
     20          6           0        3.355245   -1.436743    0.145124
     21          8           0        3.929589   -2.674119   -0.300998
     22          1           0        4.702125   -2.815542    0.317184
     23          6           0        2.308551    2.627257    0.243042
     24          8           0        1.200636    3.267217   -0.406293
     25          1           0        1.107462    4.242273   -0.205017
     26          6           0        2.559325    1.187448   -0.175664
     27          8           0        3.829570    0.851609    0.402039
     28          6           0        4.366137   -0.347785   -0.174184
     29          8           0        5.562206   -0.553461    0.591281
     30          1           0        6.307922   -0.662473   -0.003383
     31          1           0        4.556458   -0.250486   -1.222617
     32          1           0        3.277818   -1.493146    1.210827
     33          1           0        2.045460   -0.993042   -1.442500
     34          1           0        1.295106    0.151668    1.242958
     35          1           0        2.669546    1.171653   -1.239855
     36          1           0        3.191755    3.195248    0.037522
     37          1           0        2.134418    2.644349    1.298639
     38          1           0       -5.690988   -0.623111   -0.309352
     39          1           0       -1.907048   -3.119359   -0.042041
     40          1           0       -2.936038   -2.569748   -1.312978
     41          1           0       -2.662276   -1.228707    1.320960
     42          1           0       -3.856993   -0.222133   -1.208816
     43          1           0       -3.238743    1.167019    1.322879
     44          1           0       -1.929554    1.471060   -1.290163
     45          1           0       -0.726175    0.584152    1.342674
 ---------------------------------------------------------------------

 SCF Done:  E(RB3LYP) =  -1297.93702460     A.U. after   13 cycles

 The electronic state is 1-A.
 Alpha  occ. eigenvalues --  -19.19238 -19.19222 -19.19213 -19.19144 -19.18539
 Alpha  occ. eigenvalues --  -19.18530 -19.17572 -19.16713 -19.16080 -19.14851
 Alpha  occ. eigenvalues --  -19.14664 -10.31699 -10.31173 -10.26355 -10.26305
 Alpha  occ. eigenvalues --  -10.26225 -10.26112 -10.25603 -10.25049 -10.24976
 Alpha  occ. eigenvalues --  -10.24972 -10.24651 -10.24617  -1.10784  -1.09483
 Alpha  occ. eigenvalues --   -1.05858  -1.05024  -1.04009  -1.03568  -1.03232
 Alpha  occ. eigenvalues --   -1.02676  -1.02277  -1.00652  -1.00318  -0.82860
 Alpha  occ. eigenvalues --   -0.80482  -0.79413  -0.78952  -0.72039  -0.70414
 Alpha  occ. eigenvalues --   -0.67616  -0.65322  -0.63375  -0.62741  -0.61838
 Alpha  occ. eigenvalues --   -0.60703  -0.57015  -0.56235  -0.55244  -0.54339
 Alpha  occ. eigenvalues --   -0.54235  -0.53713  -0.53609  -0.51695  -0.51048
 Alpha  occ. eigenvalues --   -0.50484  -0.50441  -0.49725  -0.48792  -0.47008
 Alpha  occ. eigenvalues --   -0.46177  -0.45334  -0.45167  -0.44122  -0.43661
 Alpha  occ. eigenvalues --   -0.42847  -0.41850  -0.41362  -0.40754  -0.38924
 Alpha  occ. eigenvalues --   -0.38510  -0.38095  -0.37307  -0.36868  -0.36604
 Alpha  occ. eigenvalues --   -0.35831  -0.35358  -0.34870  -0.34447  -0.33737
 Alpha  occ. eigenvalues --   -0.33075  -0.31675  -0.31340  -0.30484  -0.29673
 Alpha  occ. eigenvalues --   -0.29508  -0.28920  -0.27973  -0.27416  -0.26799
 Alpha  occ. eigenvalues --   -0.26513
 Alpha virt. eigenvalues --   -0.02277  -0.01790  -0.01675  -0.00764  -0.00038
 Alpha virt. eigenvalues --    0.00810   0.01502   0.02147   0.02624   0.03106
 Alpha virt. eigenvalues --    0.03733   0.04270   0.04592   0.05152   0.05665

 Mulliken atomic charges:
              1
     1  O   -0.521271
     2  C   -0.243449
     3  C    0.179242
     4  O   -0.487582
     5  H    0.350063
     6  C   -0.045869
     7  O   -0.531267
     8  H    0.416014
     9  C   -0.087672
    10  O   -0.511244
    11  H    0.349847
    12  C    0.114265
    13  O   -0.432346
    14  C    0.235946
    15  O   -0.239960
    16  C    0.068843
    17  C   -0.066132
    18  O   -0.531886
    19  H    0.405497
    20  C    0.095839
    21  O   -0.486119
    22  H    0.355082
    23  C    0.096709
    24  O   -0.617917
    25  H    0.386943
    26  C   -0.216000
    27  O   -0.310791
    28  C    0.228994
    29  O   -0.573698
    30  H    0.364147
    31  H    0.135162
    32  H    0.147842
    33  H    0.135984
    34  H    0.127677
    35  H    0.136579
    36  H    0.144369
    37  H    0.140901
    38  H    0.367801
    39  H    0.133445
    40  H    0.132289
    41  H    0.133915
    42  H    0.128078
    43  H    0.121913
    44  H    0.141856
    45  H    0.127962
 Sum of Mulliken atomic charges =   0.00000

 Dipole moment (field-independent basis, Debye):
    X=              2.4031    Y=             -0.2199    Z=             -1.6814  Tot=              2.9411
 Quadrupole moment (field-independent basis, Debye-Ang):
   XX=           -122.4031   YY=           -141.4191   ZZ=           -138.7879
   XY=             16.6033   XZ=              4.8506   YZ=              2.9185

  Exact polarizability: 229.508  -1.407 192.975   0.940   1.022 141.200
 Approx polarizability: 266.746  -1.060 247.837   1.222   1.342 231.837

 ******    6 imaginary frequencies (negative Signs) ******

                     1                      2                      3
                     A                      A                      A
 Frequencies --  -303.1908              -259.2545              -248.5542
 Red. masses --     1.7126                 1.1525                 1.2395
 Frc consts  --     0.0928                 0.0456                 0.0451
 IR Inten    --     9.9191               114.5035               113.4805
 Raman Activ --     0.1033                 0.8771                 0.8255

                     4                      5                      6
                     A                      A                      A
 Frequencies --  -243.5147               -73.7584               -48.3805
 Red. masses --     1.8770                 7.0118                 6.2131
 Frc consts  --     0.0656                 0.0225                 0.0086
 IR Inten    --     6.9855                 1.0469                 0.5768
 Raman Activ --     0.0969                 0.0281                 0.0254

                     7                      8                      9
                     A                      A                      A
 Frequencies --    13.2869                24.7801                50.8186
 Red. masses --     6.3305                 6.2257                 6.2872
 Frc consts  --     0.0007                 0.0023                 0.0096
 IR Inten    --     1.1963                 0.9168                 0.3436
 Raman Activ --     0.0282                 0.0022                 0.0450

                    10                     11                     12
                     A                      A                      A
 Frequencies --    74.3451                77.0672               132.3705
 Red. masses --     6.8609                 7.0220                 5.6873
 Frc consts  --     0.0223                 0.0246                 0.0587
 IR Inten    --     0.3587                 2.1654                 1.5865
 Raman Activ --     0.2230                 0.0686                 0.0762

                    13                     14                     15
                     A                      A                      A
 Frequencies --   141.3143               172.5335               184.3692
 Red. masses --     6.1594                 6.3842                 6.9280
 Frc consts  --     0.0725                 0.1120                 0.1388
 IR Inten    --     2.6970                 1.8063                 4.1102
 Raman Activ --     0.2298                 0.2177                 1.1113

                    16                     17                     18
                     A                      A                      A
 Frequencies --   197.7416               232.1227               242.6689
 Red. masses --     6.9152                 6.0654                 3.9377
 Frc consts  --     0.1593                 0.1926                 0.1366
 IR Inten    --     0.8751                 4.0652                19.5332
 Raman Activ --     1.2154                 0.7970                 0.0760

                    19                     20                     21
                     A                      A                      A
 Frequencies --   278.7977               285.5444               292.4581
 Red. masses --     4.0405                 6.1223                 4.6407
 Frc consts  --     0.1850                 0.2941                 0.2339
 IR Inten    --     3.9612                 3.1478                 1.2806
 Raman Activ --     0.1583                 0.2020                 0.2446

                    22                     23                     24
                     A                      A                      A
 Frequencies --   301.4969               315.9506               321.2483
 Red. masses --     6.2304                 4.6912                 6.2482
 Frc consts  --     0.3337                 0.2759                 0.3799
 IR Inten    --     1.9691                 1.1378                 2.0452
 Raman Activ --     1.5398                 1.5661                 2.5273

                    25                     26                     27
                     A                      A                      A
 Frequencies --   336.5505               353.9377               378.1431
 Red. masses --     6.4964                 4.5533                 7.3550
 Frc consts  --     0.4335                 0.3361                 0.6196
 IR Inten    --     6.2948                 9.0766                 2.1334
 Raman Activ --     4.3042                 0.1645                 2.4932

                    28                     29                     30
                     A                      A                      A
 Frequencies --   393.1329               413.9740               420.4617
 Red. masses --     4.0247                 5.3095                 5.7330
 Frc consts  --     0.3665                 0.5361                 0.5972
 IR Inten    --    12.9417                 5.6458                 0.2094
 Raman Activ --     1.6375                 4.4039                 5.6328

                    31                     32                     33
                     A                      A                      A
 Frequencies --   444.0952               475.5018               486.6654
 Red. masses --     4.4224                 5.0413                 3.9005
 Frc consts  --     0.5139                 0.6716                 0.5443
 IR Inten    --     1.0439                 8.2672                21.9247
 Raman Activ --     2.6728                 3.3436                 1.2299

                    34                     35                     36
                     A                      A                      A
 Frequencies --   510.3379               519.4853               578.2725
 Red. masses --     4.0227                 2.9638                 4.3534
 Frc consts  --     0.6173                 0.4712                 0.8577
 IR Inten    --    11.0293                 3.6205                11.7564
 Raman Activ --     2.5626                 3.1648                 1.4819

                    37                     38                     39
                     A                      A                      A
 Frequencies --   590.0044               606.2002               630.8536
 Red. masses --     2.8749                 6.0709                 4.5539
 Frc consts  --     0.5896                 1.3144                 1.0678
 IR Inten    --    46.9257                 3.9570                11.8988
 Raman Activ --     0.1019                 0.7867                 0.5248

                    40                     41                     42
                     A                      A                      A
 Frequencies --   636.0565               677.8026               695.0231
 Red. masses --     4.3177                 1.0748                 1.7190
 Frc consts  --     1.0292                 0.2909                 0.4892
 IR Inten    --    42.3967                97.4774                24.5161
 Raman Activ --     1.1956                 1.2691                 1.6908

                    43                     44                     45
                     A                      A                      A
 Frequencies --   698.6642               703.7135               733.0904
 Red. masses --     1.1357                 1.7432                 1.1113
 Frc consts  --     0.3266                 0.5086                 0.3519
 IR Inten    --   123.7183                43.7785               107.5289
 Raman Activ --     1.5283                 1.5116                 1.6599

                    46                     47                     48
                     A                      A                      A
 Frequencies --   751.3121               823.3174               841.0714
 Red. masses --     1.0562                 1.0722                 1.8377
 Frc consts  --     0.3513                 0.4282                 0.7659
 IR Inten    --    93.5479               129.2522                 3.0493
 Raman Activ --     1.6566                 1.8492                 0.8978

                    49                     50                     51
                     A                      A                      A
 Frequencies --   869.0872               912.3836               958.9103
 Red. masses --     1.6766                 5.4893                 4.4191
 Frc consts  --     0.7461                 2.6923                 2.3941
 IR Inten    --     4.4935                84.8615                68.0173
 Raman Activ --     0.9357                 3.1081                 1.3182

                    52                     53                     54
                     A                      A                      A
 Frequencies --   983.1479               992.0413               999.4031
 Red. masses --     5.7232                 4.7660                 4.4420
 Frc consts  --     3.2593                 2.7635                 2.6140
 IR Inten    --    42.7724               104.3324               113.9371
 Raman Activ --     2.7871                 4.9372                 0.8549

                    55                     56                     57
                     A                      A                      A
 Frequencies --  1014.5398              1016.4037              1023.3501
 Red. masses --     5.2084                 6.3400                 5.0556
 Frc consts  --     3.1586                 3.8590                 3.1194
 IR Inten    --    14.9669               155.3384                92.4067
 Raman Activ --     1.3282                 2.1202                 3.5763

                    58                     59                     60
                     A                      A                      A
 Frequencies --  1051.2603              1060.7871              1068.4271
 Red. masses --     3.2640                 3.1899                 3.4199
 Frc consts  --     2.1253                 2.1149                 2.3002
 IR Inten    --   395.7312                81.6679               100.7731
 Raman Activ --     1.8404                 6.9576                 4.8511

                    61                     62                     63
                     A                      A                      A
 Frequencies --  1083.9760              1089.7043              1094.3474
 Red. masses --     3.5642                 5.7441                 3.0563
 Frc consts  --     2.4674                 4.0188                 2.1565
 IR Inten    --    73.6235                27.0576                37.4045
 Raman Activ --    14.0486                 1.5794                 5.3324

                    64                     65                     66
                     A                      A                      A
 Frequencies --  1098.9117              1110.1613              1115.0284
 Red. masses --     2.7071                 3.2531                 2.2909
 Frc consts  --     1.9261                 2.3622                 1.6782
 IR Inten    --    78.3560                72.4983                37.9980
 Raman Activ --     2.1383                15.9490                10.3610

                    67                     68                     69
                     A                      A                      A
 Frequencies --  1122.3457              1131.4427              1140.6877
 Red. masses --     1.9841                 2.8613                 2.4984
 Frc consts  --     1.4726                 2.1582                 1.9153
 IR Inten    --    40.7434               123.5140                20.4763
 Raman Activ --     1.2060                 4.6385                 7.3705

                    70                     71                     72
                     A                      A                      A
 Frequencies --  1145.7945              1152.9414              1163.4651
 Red. masses --     2.5636                 1.9217                 2.0728
 Frc consts  --     1.9830                 1.5051                 1.6532
 IR Inten    --    99.9584                 6.9027                15.8275
 Raman Activ --     1.8176                 3.3128                 2.6964

                    73                     74                     75
                     A                      A                      A
 Frequencies --  1165.1685              1175.7273              1186.8408
 Red. masses --     2.4534                 2.0256                 1.7292
 Frc consts  --     1.9625                 1.6497                 1.4351
 IR Inten    --    14.1234                 2.0854                24.7904
 Raman Activ --     5.1246                 2.7464                 3.2952

                    76                     77                     78
                     A                      A                      A
 Frequencies --  1202.4842              1206.1658              1218.5809
 Red. masses --     1.6027                 1.3979                 1.4240
 Frc consts  --     1.3654                 1.1982                 1.2458
 IR Inten    --     6.7874                10.2278                 7.0035
 Raman Activ --     4.7051                 1.3564                 2.5321

                    79                     80                     81
                     A                      A                      A
 Frequencies --  1222.2252              1241.3552              1257.2758
 Red. masses --     1.3292                 1.3853                 1.3106
 Frc consts  --     1.1699                 1.2578                 1.2206
 IR Inten    --    22.1531                 1.5638                18.2500
 Raman Activ --     2.3995                 0.8376                 5.1813

                    82                     83                     84
                     A                      A                      A
 Frequencies --  1260.5660              1283.0387              1286.8111
 Red. masses --     1.2777                 1.2628                 1.2975
 Frc consts  --     1.1963                 1.2248                 1.2659
 IR Inten    --     7.5481                 2.2258                 3.6036
 Raman Activ --     6.0645                 2.3259                 1.9422

                    85                     86                     87
                     A                      A                      A
 Frequencies --  1294.9790              1297.8111              1304.7233
 Red. masses --     1.3199                 1.3405                 1.2351
 Frc consts  --     1.3042                 1.3303                 1.2388
 IR Inten    --    37.8151                26.1069                 4.5333
 Raman Activ --     0.7109                 2.5117                 3.6988

                    88                     89                     90
                     A                      A                      A
 Frequencies --  1313.4178              1330.8632              1336.8767
 Red. masses --     1.2576                 1.3649                 1.2301
 Frc consts  --     1.2782                 1.4244                 1.2954
 IR Inten    --     7.9732                68.2705                 8.6476
 Raman Activ --     3.3209                 2.6209                 9.2137

                    91                     92                     93
                     A                      A                      A
 Frequencies --  1342.6465              1350.8076              1354.0671
 Red. masses --     1.2834                 1.1163                 1.1813
 Frc consts  --     1.3632                 1.2001                 1.2761
 IR Inten    --    18.3058                35.3099                51.0453
 Raman Activ --    10.1036                 2.6221                 5.2530

                    94                     95                     96
                     A                      A                      A
 Frequencies --  1359.9966              1362.1030              1365.4413
 Red. masses --     1.2440                 1.3302                 1.5406
 Frc consts  --     1.3556                 1.4541                 1.6924
 IR Inten    --     7.8643                25.7314                 9.1168
 Raman Activ --     1.4607                 8.7505                 7.3223

                    97                     98                     99
                     A                      A                      A
 Frequencies --  1370.9482              1391.6238              1401.2956
 Red. masses --     1.4467                 1.5275                 1.5126
 Frc consts  --     1.6020                 1.7429                 1.7500
 IR Inten    --    20.4758                 6.2671                 7.4144
 Raman Activ --     6.6783                 5.8382                 4.8554

                   100                    101                    102
                     A                      A                      A
 Frequencies --  1426.0509              1433.9628              1445.9116
 Red. masses --     1.3991                 1.5098                 1.4883
 Frc consts  --     1.6764                 1.8291                 1.8332
 IR Inten    --    28.2604                 9.4104                31.5882
 Raman Activ --     1.5516                 2.8311                 1.0758

                   103                    104                    105
                     A                      A                      A
 Frequencies --  1468.6269              1476.4186              1482.7675
 Red. masses --     1.4739                 1.0871                 1.3744
 Frc consts  --     1.8730                 1.3961                 1.7804
 IR Inten    --    37.1210                 4.3611                 8.2660
 Raman Activ --     2.1077                 5.4749                 0.3399

                   106                    107                    108
                     A                      A                      A
 Frequencies --  1484.5127              1529.7163              3263.3075
 Red. masses --     1.0796                 1.2527                 1.0705
 Frc consts  --     1.4018                 1.7271                 6.7170
 IR Inten    --     3.7451                32.8431                30.3203
 Raman Activ --     5.4623                 0.3688                 6.4063

                   109                    110                    111
                     A                      A                      A
 Frequencies --  3265.0916              3271.9111              3280.4121
 Red. masses --     1.0677                 1.0588                 1.0823
 Frc consts  --     6.7064                 6.6783                 6.8619
 IR Inten    --    17.5827                70.7108                23.7895
 Raman Activ --   194.6693                76.5537                35.1037

                   112                    113                    114
                     A                      A                      A
 Frequencies --  3281.8944              3288.5226              3291.6928
 Red. masses --     1.0824                 1.0836                 1.0833
 Frc consts  --     6.8691                 6.9045                 6.9158
 IR Inten    --     2.0608                37.4264                 9.8402
 Raman Activ --    72.6668                76.0135               139.5190

                   115                    116                    117
                     A                      A                      A
 Frequencies --  3296.8611              3299.1809              3311.6528
 Red. masses --     1.0851                 1.0872                 1.0879
 Frc consts  --     6.9489                 6.9724                 7.0298
 IR Inten    --     3.8860                57.4444                10.0049
 Raman Activ --    16.4200                33.1889                33.9532

                   118                    119                    120
                     A                      A                      A
 Frequencies --  3313.7457              3316.5386              3318.1220
 Red. masses --     1.0697                 1.0880                 1.1045
 Frc consts  --     6.9207                 7.0510                 7.1648
 IR Inten    --   449.6346                27.5733                61.9180
 Raman Activ --   225.9008                47.0605                33.9641

                   121                    122                    123
                     A                      A                      A
 Frequencies --  3323.4520              3333.4880              3347.1392
 Red. masses --     1.0873                 1.1074                 1.0681
 Frc consts  --     7.0761                 7.2505                 7.0505
 IR Inten    --    65.6212                56.0978               494.4353
 Raman Activ --    42.4055                54.1650               157.4962

                   124                    125                    126
                     A                      A                      A
 Frequencies --  3389.5068              3389.6137              3392.4784
 Red. masses --     1.0659                 1.0666                 1.0667
 Frc consts  --     7.2152                 7.2203                 7.2334
 IR Inten    --    58.8609                40.4492                47.7500
 Raman Activ --   155.5357                86.3787               135.6617

                   127                    128                    129
                     A                      A                      A
 Frequencies --  3397.4121              3917.3372              3924.0432
 Red. masses --     1.0656                 1.0679                 1.0675
 Frc consts  --     7.2468                 9.6553                 9.6844
 IR Inten    --    41.3966                76.4842                74.4789
 Raman Activ --   112.1379                91.9236               126.5945

 - Thermochemistry -
 -------------------
 Temperature   298.150 Kelvin.  Pressure   1.00000 Atm.
 Atom     1 has atomic number  8 and mass  15.99491

 Molecular mass:   342.11621 amu.
 Principal axes and moments of inertia in atomic units:
                           1         2         3
     Eigenvalues --  4472.72619********************
           X            0.99997   0.00778   0.00075
           Y           -0.00778   0.99997   0.00305
           Z           -0.00073  -0.00305   1.00000
 This molecule is an asymmetric top.
 Rotational symmetry number  1.
 Warning -- assumption of classical behavior for rotation
           may cause significant error
 Rotational temperatures (Kelvin)      0.01936     0.00704     0.00528
 Rotational constants (GHZ):           0.40350     0.14677     0.10995
    6 imaginary frequencies ignored.
 Zero-point vibrational energy     976633.3 (Joules/Mol)
                                  233.42096 (Kcal/Mol)
 Warning -- explicit consideration of  32 degrees of freedom as
           vibrations may cause significant error
 Vibrational temperatures:     19.12    35.65    73.12   106.97   110.88
          (Kelvin)            190.45   203.32   248.24   265.27   284.51
                              333.97   349.15   401.13   410.83   420.78
                              433.79   454.58   462.20   484.22   509.24
                              544.06   565.63   595.62   604.95   638.95
                              684.14   700.20   734.26   747.42   832.00
                              848.88   872.19   907.66   915.14   975.21
                              999.98  1005.22  1012.49  1054.75  1080.97
                             1184.57  1210.11  1250.42  1312.71  1379.66
                             1414.53  1427.32  1437.92  1459.69  1462.38
                             1472.37  1512.53  1526.23  1537.23  1559.60
                             1567.84  1574.52  1581.09  1597.27  1604.28
                             1614.80  1627.89  1641.19  1648.54  1658.82
                             1673.96  1676.42  1691.61  1707.60  1730.10
                             1735.40  1753.26  1758.51  1786.03  1808.94
                             1813.67  1846.00  1851.43  1863.18  1867.26
                             1877.20  1889.71  1914.81  1923.47  1931.77
                             1943.51  1948.20  1956.73  1959.76  1964.56
                             1972.49  2002.23  2016.15  2051.77  2063.15
                             2080.34  2113.02  2124.23  2133.37  2135.88
                             2200.92  4695.17  4697.73  4707.54  4719.78
                             4721.91  4731.44  4736.01  4743.44  4746.78
                             4764.72  4767.73  4771.75  4774.03  4781.70
                             4796.14  4815.78  4876.74  4876.89  4881.01
                             4888.11  5636.17  5645.82

 Zero-point correction=                           0.371980 (Hartree/Particle)
 Thermal correction to Energy=                    0.391458
 Thermal correction to Enthalpy=                  0.392402
 Thermal correction to Gibbs Free Energy=         0.322799
 Sum of electronic and zero-point Energies=          -1297.565045
 Sum of electronic and thermal Energies=             -1297.545566
 Sum of electronic and thermal Enthalpies=           -1297.544622
 Sum of electronic and thermal Free Energies=        -1297.614225

                     E (Thermal)             CV                S
                      KCal/Mol        Cal/Mol-Kelvin    Cal/Mol-Kelvin
 Total                  245.644             78.104            146.492
 Electronic               0.000              0.000              0.000
 Translational            0.889              2.981             43.384
 Rotational               0.889              2.981             35.156
 Vibrational            243.866             72.142             67.952
 Vibration     1          0.593              1.987              7.446
 Vibration     2          0.593              1.985              6.209
 Vibration     3          0.595              1.977              4.785
 Vibration     4          0.599              1.966              4.035
 Vibration     5          0.599              1.964              3.964
 Vibration     6          0.612              1.921              2.911
 Vibration     7          0.615              1.912              2.786
 Vibration     8          0.626              1.876              2.408
 Vibration     9          0.631              1.861              2.284
 Vibration    10          0.637              1.843              2.154
 Vibration    11          0.653              1.792              1.862
 Vibration    12          0.659              1.775              1.783
 Vibration    13          0.679              1.713              1.541
 Vibration    14          0.683              1.701              1.500
 Vibration    15          0.688              1.688              1.460
 Vibration    16          0.693              1.671              1.409
 Vibration    17          0.703              1.643              1.331
 Vibration    18          0.707              1.633              1.304
 Vibration    19          0.717              1.602              1.228
 Vibration    20          0.730              1.567              1.149
 Vibration    21          0.748              1.517              1.047
 Vibration    22          0.760              1.485              0.988
 Vibration    23          0.778              1.440              0.913
 Vibration    24          0.783              1.426              0.890
 Vibration    25          0.804              1.374              0.814
 Vibration    26          0.832              1.304              0.722
 Vibration    27          0.843              1.280              0.692
 Vibration    28          0.865              1.227              0.633
 Vibration    29          0.874              1.207              0.611
 Vibration    30          0.935              1.078              0.489
 Vibration    31          0.947              1.053              0.467
 Vibration    32          0.965              1.019              0.439

 Normal termination of Gaussian 09 at Tue Mar  1 03:28:01 2016.
