 Gaussian 09, Revision B.01,
 Gaussian 09:  EM64L-G09RevB.01 12-Aug-2010

 ------------------------------------------------
 # freq=raman b3lyp/6-31+g(d,p) geom=connectivity
 ------------------------------------------------

 ------------
 350 5000.com
 ------------
 Symbolic Z-matrix:
 Charge =  0 Multiplicity = 1

                         Standard orientation:
 ---------------------------------------------------------------------
 Center     Atomic      Atomic             Coordinates (Angstroms)
 Number     Number       Type             X           Y           Z
 ---------------------------------------------------------------------
      1          8           0        4.987677   -0.461005   -0.412631
      2          6           0        3.736819   -0.109091    0.196144
      3          6           0        3.240149    1.247477   -0.276707
      4          8           0        4.128988    2.332051    0.028294
      5          1           0        5.056857    1.960451    0.019005
      6          6           0        1.840543    1.525708    0.245530
      7          8           0        1.415018    2.770040   -0.326636
      8          1           0        0.459334    2.871962   -0.049210
      9          6           0        2.956605   -2.564952    0.122197
     10          8           0        4.184333   -3.294837   -0.014617
     11          1           0        4.049283   -4.285067    0.007197
     12          6           0        2.700631   -1.119391   -0.271131
     13          8           0        1.433878   -0.865350    0.352919
     14          6           0        0.920003    0.380159   -0.141350
     15          8           0       -0.237924    0.375623    0.707192
     16          6           0       -1.474970    0.229713   -0.004642
     17          6           0       -2.085652   -1.148454    0.193043
     18          8           0       -1.264057   -2.213417   -0.306535
     19          1           0       -0.327488   -1.869369   -0.371306
     20          6           0       -3.497099   -1.555414   -0.200936
     21          8           0       -3.963085   -2.756138    0.431937
     22          1           0       -4.845114   -3.072577    0.083100
     23          6           0       -2.113771    2.581841   -0.281444
     24          8           0       -1.134494    3.341096    0.442124
     25          1           0       -1.219370    4.328918    0.310890
     26          6           0       -2.517614    1.268945    0.371344
     27          8           0       -3.784850    0.984875   -0.239994
     28          6           0       -4.281874   -0.302959    0.152490
     29          8           0       -5.445919   -0.405854   -0.679965
     30          1           0       -6.222691   -0.530834   -0.129869
     31          1           0       -4.558545   -0.305454    1.186099
     32          1           0       -3.530989   -1.693635   -1.261429
     33          1           0       -2.072571   -1.272802    1.255712
     34          1           0       -1.263296    0.344962   -1.047145
     35          1           0       -2.607746    1.371684    1.432580
     36          1           0       -2.990377    3.184791   -0.395080
     37          1           0       -1.722258    2.367683   -1.253943
     38          1           0        5.623547   -0.686881    0.270193
     39          1           0        2.711807   -2.620221    1.162350
     40          1           0        2.593452   -1.053432   -1.333705
     41          1           0        3.820934   -0.126295    1.262694
     42          1           0        3.169482    1.196299   -1.343144
     43          1           0        1.869299    1.615124    1.311399
     44          1           0        0.677777    0.351900   -1.183188
     45          1           0        2.229530   -3.135385   -0.417124
 ---------------------------------------------------------------------

 SCF Done:  E(RB3LYP) =  -1297.91515054     A.U. after   13 cycles

 The electronic state is 1-A.
 Alpha  occ. eigenvalues --  -19.19879 -19.19585 -19.19371 -19.19370 -19.17945
 Alpha  occ. eigenvalues --  -19.17705 -19.17637 -19.16520 -19.15857 -19.15136
 Alpha  occ. eigenvalues --  -19.14598 -10.31418 -10.30590 -10.26721 -10.26590
 Alpha  occ. eigenvalues --  -10.25818 -10.25798 -10.25498 -10.25421 -10.24641
 Alpha  occ. eigenvalues --  -10.24319 -10.24319 -10.24098  -1.11064  -1.09440
 Alpha  occ. eigenvalues --   -1.05672  -1.05235  -1.04042  -1.03778  -1.02614
 Alpha  occ. eigenvalues --   -1.02245  -1.01971  -1.01006  -1.00326  -0.82548
 Alpha  occ. eigenvalues --   -0.80510  -0.79838  -0.78469  -0.72199  -0.70058
 Alpha  occ. eigenvalues --   -0.67275  -0.65860  -0.64058  -0.62299  -0.61774
 Alpha  occ. eigenvalues --   -0.60551  -0.56869  -0.56514  -0.55229  -0.54684
 Alpha  occ. eigenvalues --   -0.53903  -0.53715  -0.53314  -0.52151  -0.51267
 Alpha  occ. eigenvalues --   -0.50968  -0.50240  -0.49208  -0.48550  -0.46491
 Alpha  occ. eigenvalues --   -0.46087  -0.45478  -0.43955  -0.43624  -0.42662
 Alpha  occ. eigenvalues --   -0.42544  -0.41649  -0.40689  -0.40594  -0.39477
 Alpha  occ. eigenvalues --   -0.39192  -0.37825  -0.37545  -0.36226  -0.36108
 Alpha  occ. eigenvalues --   -0.35463  -0.35202  -0.35153  -0.34850  -0.33848
 Alpha  occ. eigenvalues --   -0.32474  -0.31746  -0.31376  -0.30869  -0.30010
 Alpha  occ. eigenvalues --   -0.28861  -0.28806  -0.28173  -0.27685  -0.26946
 Alpha  occ. eigenvalues --   -0.26104
 Alpha virt. eigenvalues --   -0.01990  -0.01819  -0.01787  -0.00633   0.00055
 Alpha virt. eigenvalues --    0.00448   0.01783   0.02381   0.02679   0.03248
 Alpha virt. eigenvalues --    0.03875   0.04262   0.04597   0.05112   0.05824

 Mulliken atomic charges:
              1
     1  O   -0.519568
     2  C   -0.147217
     3  C    0.022618
     4  O   -0.500266
     5  H    0.350620
     6  C   -0.009733
     7  O   -0.531633
     8  H    0.438297
     9  C   -0.137852
    10  O   -0.580944
    11  H    0.366234
    12  C    0.300756
    13  O   -0.393762
    14  C   -0.137294
    15  O   -0.277926
    16  C    0.177898
    17  C    0.263290
    18  O   -0.525221
    19  H    0.381411
    20  C    0.011774
    21  O   -0.528656
    22  H    0.358860
    23  C    0.027102
    24  O   -0.634799
    25  H    0.394296
    26  C   -0.267402
    27  O   -0.278801
    28  C    0.266518
    29  O   -0.565189
    30  H    0.358347
    31  H    0.135491
    32  H    0.159666
    33  H    0.144541
    34  H    0.109265
    35  H    0.156431
    36  H    0.145250
    37  H    0.136622
    38  H    0.369214
    39  H    0.144516
    40  H    0.130392
    41  H    0.141384
    42  H    0.131596
    43  H    0.149807
    44  H    0.136672
    45  H    0.127395
 Sum of Mulliken atomic charges =   0.00000

 Dipole moment (field-independent basis, Debye):
    X=             -2.9400    Y=             -0.2909    Z=              1.3507  Tot=              3.2485
 Quadrupole moment (field-independent basis, Debye-Ang):
   XX=           -120.8036   YY=           -135.8853   ZZ=           -140.6633
   XY=            -13.3305   XZ=              0.8926   YZ=              1.5324

  Exact polarizability: 227.032   2.538 194.772   0.710   0.088 140.501
 Approx polarizability: 263.259   2.795 251.441   1.223  -0.415 231.210

 ******    7 imaginary frequencies (negative Signs) ******

                     1                      2                      3
                     A                      A                      A
 Frequencies --  -350.3195              -337.4764              -307.1980
 Red. masses --     1.1530                 1.5776                 1.1840
 Frc consts  --     0.0834                 0.1059                 0.0658
 IR Inten    --   117.9109                24.0359               101.9418
 Raman Activ --     1.6403                 0.1621                 0.8150

                     4                      5                      6
                     A                      A                      A
 Frequencies --  -200.5286              -105.4099               -60.2860
 Red. masses --     2.0299                 5.8843                 6.1230
 Frc consts  --     0.0481                 0.0385                 0.0131
 IR Inten    --     6.7303                 0.6908                 0.4359
 Raman Activ --     0.0645                 0.0657                 0.0145

                     7                      8                      9
                     A                      A                      A
 Frequencies --   -32.6394                24.6299                59.8977
 Red. masses --     5.8546                 7.0902                 6.4087
 Frc consts  --     0.0037                 0.0025                 0.0135
 IR Inten    --     1.7498                 0.3252                 0.3543
 Raman Activ --     0.0669                 0.0622                 0.1231

                    10                     11                     12
                     A                      A                      A
 Frequencies --    77.8770               100.5530               111.4685
 Red. masses --     6.6710                 6.5129                 6.2273
 Frc consts  --     0.0238                 0.0388                 0.0456
 IR Inten    --     2.9604                 1.0076                 0.8907
 Raman Activ --     0.0969                 0.1952                 0.0994

                    13                     14                     15
                     A                      A                      A
 Frequencies --   144.5895               162.5267               180.4832
 Red. masses --     6.7387                 6.0113                 7.5739
 Frc consts  --     0.0830                 0.0936                 0.1454
 IR Inten    --     3.9617                 3.5811                 2.6401
 Raman Activ --     0.4462                 0.4244                 0.3484

                    16                     17                     18
                     A                      A                      A
 Frequencies --   203.1260               236.7319               265.0188
 Red. masses --     7.0053                 5.7167                 4.8601
 Frc consts  --     0.1703                 0.1888                 0.2011
 IR Inten    --     0.4339                 0.9512                 6.7276
 Raman Activ --     1.5338                 0.9815                 0.1956

                    19                     20                     21
                     A                      A                      A
 Frequencies --   278.9891               285.0451               298.9275
 Red. masses --     5.2848                 4.6370                 5.4274
 Frc consts  --     0.2424                 0.2220                 0.2857
 IR Inten    --     5.4573                 8.9993                 1.4246
 Raman Activ --     0.2195                 0.6003                 0.5560

                    22                     23                     24
                     A                      A                      A
 Frequencies --   301.6964               320.2081               327.2059
 Red. masses --     6.5485                 6.1557                 6.6224
 Frc consts  --     0.3512                 0.3719                 0.4177
 IR Inten    --     7.9958                 1.2427                 4.6823
 Raman Activ --     0.9893                 0.7583                 4.0273

                    25                     26                     27
                     A                      A                      A
 Frequencies --   341.6875               360.4636               367.5865
 Red. masses --     6.7826                 4.5622                 6.9897
 Frc consts  --     0.4666                 0.3493                 0.5565
 IR Inten    --    10.3308                 3.5521                 2.6452
 Raman Activ --     3.0225                 0.6981                 3.8134

                    28                     29                     30
                     A                      A                      A
 Frequencies --   413.5263               429.0509               434.8102
 Red. masses --     4.5475                 5.3069                 6.0397
 Frc consts  --     0.4582                 0.5756                 0.6728
 IR Inten    --    17.2724                 6.8911                 2.8310
 Raman Activ --     2.0741                 1.0066                 4.0082

                    31                     32                     33
                     A                      A                      A
 Frequencies --   464.1675               482.4522               498.2777
 Red. masses --     4.3256                 4.6532                 5.0403
 Frc consts  --     0.5491                 0.6381                 0.7373
 IR Inten    --     4.2379                 8.1765                10.5199
 Raman Activ --     4.1657                 3.1662                 1.4586

                    34                     35                     36
                     A                      A                      A
 Frequencies --   520.5199               538.4548               566.8097
 Red. masses --     3.1114                 3.1130                 4.0216
 Frc consts  --     0.4967                 0.5318                 0.7612
 IR Inten    --    12.1643                10.3243                15.9926
 Raman Activ --     1.9296                 3.2806                 1.4437

                    37                     38                     39
                     A                      A                      A
 Frequencies --   590.2581               597.6398               621.7597
 Red. masses --     3.5398                 3.7725                 1.1063
 Frc consts  --     0.7266                 0.7939                 0.2520
 IR Inten    --    19.3119                21.6241                98.8090
 Raman Activ --     0.3067                 0.7168                 2.1492

                    40                     41                     42
                     A                      A                      A
 Frequencies --   632.5704               647.1423               663.2597
 Red. masses --     4.5731                 3.9875                 1.0500
 Frc consts  --     1.0781                 0.9839                 0.2722
 IR Inten    --     6.2936                47.2722               106.3245
 Raman Activ --     0.3458                 1.4048                 2.3300

                    43                     44                     45
                     A                      A                      A
 Frequencies --   691.7702               697.7771               703.4769
 Red. masses --     1.1034                 1.0835                 1.1135
 Frc consts  --     0.3111                 0.3108                 0.3247
 IR Inten    --    33.4775               110.6965               156.2091
 Raman Activ --     1.3849                 1.7263                 1.9411

                    46                     47                     48
                     A                      A                      A
 Frequencies --   715.8970               846.2211               869.5260
 Red. masses --     4.6372                 1.7619                 1.5056
 Frc consts  --     1.4003                 0.7434                 0.6707
 IR Inten    --     5.9633                 2.9761                 9.9980
 Raman Activ --     2.4107                 1.7748                 0.4175

                    49                     50                     51
                     A                      A                      A
 Frequencies --   911.5767               944.6593               965.1012
 Red. masses --     1.1835                 5.5534                 4.6108
 Frc consts  --     0.5794                 2.9199                 2.5303
 IR Inten    --    59.7078               105.9770               107.4850
 Raman Activ --     0.2836                 2.4621                 0.3915

                    52                     53                     54
                     A                      A                      A
 Frequencies --   980.9695              1003.0365              1006.7194
 Red. masses --     5.3533                 4.6495                 7.0084
 Frc consts  --     3.0351                 2.7561                 4.1849
 IR Inten    --    18.0047                94.7604                21.1911
 Raman Activ --     2.6785                 1.0302                 2.5306

                    55                     56                     57
                     A                      A                      A
 Frequencies --  1012.9573              1020.1676              1032.0929
 Red. masses --     4.5634                 5.4900                 4.7701
 Frc consts  --     2.7588                 3.3664                 2.9938
 IR Inten    --   295.7674                40.2700                67.8994
 Raman Activ --     4.9368                 0.9220                 2.7948

                    58                     59                     60
                     A                      A                      A
 Frequencies --  1052.3144              1060.9264              1069.6260
 Red. masses --     4.3270                 3.6767                 2.8382
 Frc consts  --     2.8231                 2.4383                 1.9132
 IR Inten    --   267.3575                79.5859               139.2104
 Raman Activ --     3.8720                 5.1470                13.3606

                    61                     62                     63
                     A                      A                      A
 Frequencies --  1080.3505              1087.6918              1094.1482
 Red. masses --     4.1810                 4.7611                 4.6652
 Frc consts  --     2.8751                 3.3187                 3.2905
 IR Inten    --    58.2179                93.5918                22.4218
 Raman Activ --     7.9124                 1.9723                 3.2654

                    64                     65                     66
                     A                      A                      A
 Frequencies --  1096.5608              1103.2475              1109.0389
 Red. masses --     2.4678                 2.6575                 2.0941
 Frc consts  --     1.7483                 1.9058                 1.5176
 IR Inten    --    80.2451                33.4937                73.0912
 Raman Activ --     1.5947                11.8133                 2.1478

                    67                     68                     69
                     A                      A                      A
 Frequencies --  1113.2256              1128.6159              1137.6309
 Red. masses --     2.6940                 2.5429                 2.1440
 Frc consts  --     1.9670                 1.9084                 1.6348
 IR Inten    --     9.7390                39.3067                71.1985
 Raman Activ --    15.6993                 4.9892                 7.5518

                    70                     71                     72
                     A                      A                      A
 Frequencies --  1141.2882              1148.0935              1155.4359
 Red. masses --     2.1971                 1.7520                 2.5264
 Frc consts  --     1.6861                 1.3607                 1.9872
 IR Inten    --    12.5957                11.4321                11.5962
 Raman Activ --     2.1982                 3.8483                 3.1301

                    73                     74                     75
                     A                      A                      A
 Frequencies --  1166.1466              1176.3015              1182.0578
 Red. masses --     2.2576                 2.7580                 1.8627
 Frc consts  --     1.8089                 2.2484                 1.5335
 IR Inten    --     1.4310                 7.0253                49.5235
 Raman Activ --     5.3944                 3.1865                 1.1175

                    76                     77                     78
                     A                      A                      A
 Frequencies --  1202.7668              1207.2709              1224.3602
 Red. masses --     1.3678                 1.3711                 1.3096
 Frc consts  --     1.1658                 1.1774                 1.1567
 IR Inten    --    36.0158                17.2009                18.5760
 Raman Activ --     6.2423                 1.0234                 1.3599

                    79                     80                     81
                     A                      A                      A
 Frequencies --  1227.7764              1235.9645              1244.4674
 Red. masses --     1.2692                 1.3592                 1.2617
 Frc consts  --     1.1273                 1.2233                 1.1513
 IR Inten    --    14.1148                 3.4796                29.9169
 Raman Activ --     1.8256                 1.3927                 1.2856

                    82                     83                     84
                     A                      A                      A
 Frequencies --  1268.5353              1274.0037              1283.7828
 Red. masses --     1.2376                 1.2015                 1.4019
 Frc consts  --     1.1734                 1.1490                 1.3613
 IR Inten    --    10.0340                 7.3170                16.2405
 Raman Activ --     2.2874                 3.7862                 0.8472

                    85                     86                     87
                     A                      A                      A
 Frequencies --  1295.0682              1300.9916              1304.0230
 Red. masses --     1.2281                 1.3140                 1.3334
 Frc consts  --     1.2136                 1.3104                 1.3359
 IR Inten    --    62.5198                21.4195                30.1459
 Raman Activ --     6.4395                 4.0927                 2.8447

                    88                     89                     90
                     A                      A                      A
 Frequencies --  1310.0402              1315.9931              1324.7112
 Red. masses --     1.1940                 1.2596                 1.3013
 Frc consts  --     1.2074                 1.2853                 1.3454
 IR Inten    --    10.0010                 0.9522                21.5206
 Raman Activ --     9.8229                 5.6082                 4.7622

                    91                     92                     93
                     A                      A                      A
 Frequencies --  1338.0743              1341.1902              1351.9869
 Red. masses --     1.2367                 1.4166                 1.2356
 Frc consts  --     1.3046                 1.5014                 1.3307
 IR Inten    --    58.5558                12.7894                20.3026
 Raman Activ --     3.8404                 1.6074                 3.3264

                    94                     95                     96
                     A                      A                      A
 Frequencies --  1353.5809              1360.5570              1369.3875
 Red. masses --     1.5074                 1.1946                 1.6410
 Frc consts  --     1.6272                 1.3028                 1.8130
 IR Inten    --    15.4487                18.4390                17.6122
 Raman Activ --     7.1922                 6.2368                 6.6133

                    97                     98                     99
                     A                      A                      A
 Frequencies --  1373.2032              1391.1067              1396.9218
 Red. masses --     1.4454                 1.3543                 1.6966
 Frc consts  --     1.6059                 1.5441                 1.9507
 IR Inten    --     9.3239                12.5654                10.5557
 Raman Activ --     6.4021                 2.8576                 3.1863

                   100                    101                    102
                     A                      A                      A
 Frequencies --  1409.0487              1429.5226              1433.9770
 Red. masses --     1.3247                 1.4983                 1.4508
 Frc consts  --     1.5496                 1.8040                 1.7577
 IR Inten    --     1.0174                46.0072                 9.7879
 Raman Activ --    13.7286                 1.0729                 0.7862

                   103                    104                    105
                     A                      A                      A
 Frequencies --  1452.4544              1469.4593              1485.1720
 Red. masses --     1.2523                 1.1488                 1.3195
 Frc consts  --     1.5565                 1.4615                 1.7148
 IR Inten    --     2.7326                 1.6638                42.9508
 Raman Activ --     3.5876                 2.7820                 1.3615

                   106                    107                    108
                     A                      A                      A
 Frequencies --  1491.9333              1520.2706              3261.2488
 Red. masses --     1.0878                 1.2355                 1.0579
 Frc consts  --     1.4265                 1.6824                 6.6291
 IR Inten    --     5.2270                46.8966                25.5164
 Raman Activ --     4.7509                 0.4290                85.5603

                   109                    110                    111
                     A                      A                      A
 Frequencies --  3265.0587              3268.6355              3279.2348
 Red. masses --     1.0676                 1.0763                 1.0694
 Frc consts  --     6.7054                 6.7754                 6.7753
 IR Inten    --   310.9614               216.4553               222.9153
 Raman Activ --    42.4658                49.2673               233.2643

                   112                    113                    114
                     A                      A                      A
 Frequencies --  3282.7613              3286.0973              3290.4876
 Red. masses --     1.0834                 1.0802                 1.0845
 Frc consts  --     6.8791                 6.8728                 6.9181
 IR Inten    --    37.4424                64.8821                 4.0306
 Raman Activ --    11.8883                93.5149               109.5000

                   115                    116                    117
                     A                      A                      A
 Frequencies --  3299.2223              3304.9912              3309.0883
 Red. masses --     1.0859                 1.0860                 1.0872
 Frc consts  --     6.9642                 6.9893                 7.0141
 IR Inten    --    11.6230                11.5455                 5.2035
 Raman Activ --    99.3209                29.1159               122.4523

                   118                    119                    120
                     A                      A                      A
 Frequencies --  3310.5320              3315.1764              3317.1542
 Red. masses --     1.0862                 1.0871                 1.0915
 Frc consts  --     7.0136                 7.0395                 7.0762
 IR Inten    --     3.8364                32.8421                42.0358
 Raman Activ --    33.5305                12.9216                12.8561

                   121                    122                    123
                     A                      A                      A
 Frequencies --  3322.6105              3336.7005              3369.8267
 Red. masses --     1.0993                 1.1075                 1.0668
 Frc consts  --     7.1506                 7.2650                 7.1373
 IR Inten    --    94.5668                39.5589               201.0457
 Raman Activ --    19.5282                34.5517               177.0559

                   124                    125                    126
                     A                      A                      A
 Frequencies --  3391.4135              3392.2924              3395.3709
 Red. masses --     1.0661                 1.0683                 1.0673
 Frc consts  --     7.2245                 7.2432                 7.2496
 IR Inten    --    23.5706                59.9891                63.0777
 Raman Activ --    88.6131               194.6659               170.6400

                   127                    128                    129
                     A                      A                      A
 Frequencies --  3396.8352              3918.6366              3921.2584
 Red. masses --     1.0683                 1.0676                 1.0677
 Frc consts  --     7.2627                 9.6585                 9.6728
 IR Inten    --    59.0451                54.3852                72.7626
 Raman Activ --   169.8565               121.2671                96.0404

 - Thermochemistry -
 -------------------
 Temperature   298.150 Kelvin.  Pressure   1.00000 Atm.
 Atom     1 has atomic number  8 and mass  15.99491

 Molecular mass:   342.11621 amu.
 Principal axes and moments of inertia in atomic units:
                           1         2         3
     Eigenvalues --  4468.20248********************
           X            0.99998  -0.00651   0.00004
           Y            0.00651   0.99998  -0.00114
           Z           -0.00003   0.00114   1.00000
 This molecule is an asymmetric top.
 Rotational symmetry number  1.
 Warning -- assumption of classical behavior for rotation
           may cause significant error
 Rotational temperatures (Kelvin)      0.01938     0.00707     0.00531
 Rotational constants (GHZ):           0.40391     0.14729     0.11064
    7 imaginary frequencies ignored.
 Zero-point vibrational energy     976609.1 (Joules/Mol)
                                  233.41518 (Kcal/Mol)
 Warning -- explicit consideration of  31 degrees of freedom as
           vibrations may cause significant error
 Vibrational temperatures:     35.44    86.18   112.05   144.67   160.38
          (Kelvin)            208.03   233.84   259.67   292.25   340.60
                              381.30   401.40   410.12   430.09   434.07
                              460.71   470.78   491.61   518.63   528.87
                              594.97   617.31   625.59   667.83   694.14
                              716.91   748.91   774.72   815.51   849.25
                              859.87   894.57   910.13   931.09   954.28
                              995.30  1003.94  1012.15  1030.01  1217.52
                             1251.05  1311.55  1359.15  1388.56  1411.39
                             1443.14  1448.44  1457.42  1467.79  1484.95
                             1514.04  1526.43  1538.95  1554.38  1564.94
                             1574.23  1577.70  1587.33  1595.66  1601.68
                             1623.82  1636.80  1642.06  1651.85  1662.41
                             1677.82  1692.43  1700.72  1730.51  1736.99
                             1761.58  1766.49  1778.27  1790.51  1825.14
                             1833.00  1847.07  1863.31  1871.83  1876.20
                             1884.85  1893.42  1905.96  1925.19  1929.67
                             1945.21  1947.50  1957.54  1970.24  1975.73
                             2001.49  2009.86  2027.30  2056.76  2063.17
                             2089.76  2114.22  2136.83  2146.56  2187.33
                             4692.20  4697.69  4702.83  4718.08  4723.16
                             4727.96  4734.27  4746.84  4755.14  4761.03
                             4763.11  4769.79  4772.64  4780.49  4800.76
                             4848.42  4879.48  4880.75  4885.18  4887.28
                             5638.04  5641.81

 Zero-point correction=                           0.371971 (Hartree/Particle)
 Thermal correction to Energy=                    0.390404
 Thermal correction to Enthalpy=                  0.391348
 Thermal correction to Gibbs Free Energy=         0.325768
 Sum of electronic and zero-point Energies=          -1297.543180
 Sum of electronic and thermal Energies=             -1297.524747
 Sum of electronic and thermal Enthalpies=           -1297.523803
 Sum of electronic and thermal Free Energies=        -1297.589382

                     E (Thermal)             CV                S
                      KCal/Mol        Cal/Mol-Kelvin    Cal/Mol-Kelvin
 Total                  244.982             75.993            138.024
 Electronic               0.000              0.000              0.000
 Translational            0.889              2.981             43.384
 Rotational               0.889              2.981             35.145
 Vibrational            243.205             70.032             59.494
 Vibration     1          0.593              1.985              6.221
 Vibration     2          0.597              1.973              4.461
 Vibration     3          0.599              1.964              3.944
 Vibration     4          0.604              1.949              3.444
 Vibration     5          0.607              1.940              3.243
 Vibration     6          0.616              1.909              2.742
 Vibration     7          0.623              1.888              2.520
 Vibration     8          0.629              1.866              2.323
 Vibration     9          0.639              1.835              2.105
 Vibration    10          0.656              1.784              1.827
 Vibration    11          0.671              1.737              1.628
 Vibration    12          0.679              1.712              1.540
 Vibration    13          0.683              1.701              1.503
 Vibration    14          0.692              1.676              1.423
 Vibration    15          0.694              1.670              1.407
 Vibration    16          0.706              1.635              1.309
 Vibration    17          0.711              1.621              1.274
 Vibration    18          0.721              1.592              1.204
 Vibration    19          0.735              1.554              1.120
 Vibration    20          0.740              1.539              1.090
 Vibration    21          0.777              1.441              0.914
 Vibration    22          0.790              1.407              0.862
 Vibration    23          0.795              1.394              0.843
 Vibration    24          0.822              1.330              0.754
 Vibration    25          0.839              1.289              0.703
 Vibration    26          0.854              1.254              0.662
 Vibration    27          0.875              1.205              0.609
 Vibration    28          0.893              1.165              0.569
 Vibration    29          0.923              1.103              0.510
 Vibration    30          0.948              1.053              0.467
 Vibration    31          0.956              1.037              0.454

 Normal termination of Gaussian 09 at Thu Jan 21 17:48:51 2016.
