 Gaussian 09, Revision B.01,
 Gaussian 09:  EM64L-G09RevB.01 12-Aug-2010

 ------------------------------------------------
 # freq=raman b3lyp/6-31+g(d,p) geom=connectivity
 ------------------------------------------------

 ------------
 550 8000.com
 ------------
 Symbolic Z-matrix:
 Charge =  0 Multiplicity = 1

                         Standard orientation:
 ---------------------------------------------------------------------
 Center     Atomic      Atomic             Coordinates (Angstroms)
 Number     Number       Type             X           Y           Z
 ---------------------------------------------------------------------
      1          8           0       -5.124124    0.295281   -0.587269
      2          6           0       -3.874567    0.050805    0.073488
      3          6           0       -3.283944   -1.226405   -0.500493
      4          8           0       -3.884983   -2.400461    0.063088
      5          1           0       -4.835703   -2.097277    0.126023
      6          6           0       -1.862860   -1.512187   -0.042923
      7          8           0       -1.325119   -2.482782   -0.952916
      8          1           0       -1.875401   -3.316286   -1.014157
      9          6           0       -3.380573    2.510794    0.335619
     10          8           0       -2.588716    3.698555    0.191897
     11          1           0       -3.190276    4.495435    0.252738
     12          6           0       -2.848865    1.157599   -0.106312
     13          8           0       -1.668536    0.741857    0.597162
     14          6           0       -0.895958   -0.345578    0.067217
     15          8           0        0.289810   -0.736127    0.775354
     16          6           0        1.525234   -0.292243    0.195301
     17          6           0        1.950423    1.164906    0.281463
     18          8           0        0.944652    2.097001   -0.141246
     19          1           0        0.037272    1.817606    0.171520
     20          6           0        3.241108    1.453045   -0.467146
     21          8           0        3.576154    2.824955   -0.212053
     22          1           0        2.651791    3.204728   -0.193483
     23          6           0        2.271446   -2.578590    0.837411
     24          8           0        1.559913   -3.389587   -0.108448
     25          1           0        0.627496   -3.040185   -0.203556
     26          6           0        2.659879   -1.110257    0.790648
     27          8           0        3.786582   -0.825321   -0.050678
     28          6           0        4.354111    0.493188   -0.077658
     29          8           0        5.491479    0.325934   -0.935958
     30          1           0        6.161799   -0.190034   -0.482031
     31          1           0        4.696957    0.743595    0.904509
     32          1           0        3.054283    1.341839   -1.514824
     33          1           0        2.141788    1.366546    1.314720
     34          1           0        1.477025   -0.534969   -0.845689
     35          1           0        2.862559   -0.765647    1.783152
     36          1           0        1.707479   -2.672961    1.741808
     37          1           0        3.199553   -3.091979    0.978652
     38          1           0       -5.845683    0.002793   -0.025662
     39          1           0       -3.628795    2.424893    1.372878
     40          1           0       -4.292598    2.677285   -0.198601
     41          1           0       -2.608881    1.221649   -1.147084
     42          1           0       -4.055751   -0.088498    1.118796
     43          1           0       -3.351542   -1.238230   -1.568290
     44          1           0       -1.922752   -1.970105    0.922283
     45          1           0       -0.600136   -0.075103   -0.924868
 ---------------------------------------------------------------------

 SCF Done:  E(RB3LYP) =  -1297.92390986     A.U. after   14 cycles

 The electronic state is 1-A.
 Alpha  occ. eigenvalues --  -19.20976 -19.20713 -19.20513 -19.20023 -19.18691
 Alpha  occ. eigenvalues --  -19.18207 -19.17226 -19.16746 -19.16315 -19.15597
 Alpha  occ. eigenvalues --  -19.14801 -10.32485 -10.30029 -10.28711 -10.28512
 Alpha  occ. eigenvalues --  -10.26980 -10.26478 -10.26226 -10.25432 -10.25333
 Alpha  occ. eigenvalues --  -10.25325 -10.24772 -10.22691  -1.10717  -1.08650
 Alpha  occ. eigenvalues --   -1.07431  -1.06775  -1.05932  -1.04258  -1.03814
 Alpha  occ. eigenvalues --   -1.03778  -1.01209  -1.00930  -1.00021  -0.83601
 Alpha  occ. eigenvalues --   -0.81875  -0.79393  -0.78352  -0.73188  -0.70399
 Alpha  occ. eigenvalues --   -0.68852  -0.65314  -0.65235  -0.62899  -0.61936
 Alpha  occ. eigenvalues --   -0.60444  -0.58129  -0.57510  -0.56112  -0.54828
 Alpha  occ. eigenvalues --   -0.54721  -0.54014  -0.53317  -0.52890  -0.51343
 Alpha  occ. eigenvalues --   -0.50471  -0.50021  -0.49283  -0.47829  -0.47338
 Alpha  occ. eigenvalues --   -0.46380  -0.45785  -0.45515  -0.45146  -0.44335
 Alpha  occ. eigenvalues --   -0.43799  -0.43041  -0.41541  -0.41005  -0.39870
 Alpha  occ. eigenvalues --   -0.39291  -0.38534  -0.38122  -0.37304  -0.37161
 Alpha  occ. eigenvalues --   -0.36041  -0.35649  -0.34949  -0.34093  -0.33661
 Alpha  occ. eigenvalues --   -0.32776  -0.32313  -0.31354  -0.30936  -0.30666
 Alpha  occ. eigenvalues --   -0.29925  -0.29724  -0.28860  -0.27928  -0.27389
 Alpha  occ. eigenvalues --   -0.26048
 Alpha virt. eigenvalues --   -0.04843  -0.02397  -0.00585   0.00055   0.00460
 Alpha virt. eigenvalues --    0.01194   0.01568   0.02006   0.02947   0.03110
 Alpha virt. eigenvalues --    0.03797   0.03984   0.04785   0.05181   0.05587

 Mulliken atomic charges:
              1
     1  O   -0.513856
     2  C   -0.438109
     3  C    0.067426
     4  O   -0.500515
     5  H    0.323477
     6  C    0.268528
     7  O   -0.592742
     8  H    0.392629
     9  C   -0.179397
    10  O   -0.529303
    11  H    0.356485
    12  C    0.580540
    13  O   -0.397090
    14  C    0.015952
    15  O   -0.357429
    16  C   -0.481066
    17  C   -0.107000
    18  O   -0.556306
    19  H    0.415642
    20  C    0.171553
    21  O   -0.482578
    22  H    0.371859
    23  C   -0.262612
    24  O   -0.511332
    25  H    0.401495
    26  C    0.364732
    27  O   -0.354541
    28  C    0.279962
    29  O   -0.483802
    30  H    0.354013
    31  H    0.116802
    32  H    0.149533
    33  H    0.142250
    34  H    0.157356
    35  H    0.129486
    36  H    0.134048
    37  H    0.142105
    38  H    0.360686
    39  H    0.133590
    40  H    0.155273
    41  H    0.140267
    42  H    0.155713
    43  H    0.171466
    44  H    0.167887
    45  H    0.126924
 Sum of Mulliken atomic charges =   0.00000

 Dipole moment (field-independent basis, Debye):
    X=             -9.2199    Y=              0.3420    Z=              3.4258  Tot=              9.8417
 Quadrupole moment (field-independent basis, Debye-Ang):
   XX=           -110.4052   YY=           -150.9997   ZZ=           -141.2974
   XY=            -10.8110   XZ=              7.1628   YZ=             -0.1396

  Exact polarizability: 225.053   1.116 193.707  -0.447  -0.621 142.929
 Approx polarizability: 266.045   0.109 251.078  -1.423  -0.947 229.171

 ******    8 imaginary frequencies (negative Signs) ******

                     1                      2                      3
                     A                      A                      A
 Frequencies --  -338.2635              -298.5378              -287.4812
 Red. masses --     1.0765                 1.2286                 1.6904
 Frc consts  --     0.0726                 0.0645                 0.0823
 IR Inten    --   142.5751               106.2085                 5.8543
 Raman Activ --     1.5930                 0.8241                 0.0727

                     4                      5                      6
                     A                      A                      A
 Frequencies --  -265.6441              -105.3635               -78.9548
 Red. masses --     1.4886                 5.5848                 6.4729
 Frc consts  --     0.0619                 0.0365                 0.0238
 IR Inten    --     1.4822                 1.0672                 0.0409
 Raman Activ --     0.0226                 0.0277                 0.1236

                     7                      8                      9
                     A                      A                      A
 Frequencies --   -61.0111               -27.0192                36.2393
 Red. masses --     6.0916                 6.5073                 6.4271
 Frc consts  --     0.0134                 0.0028                 0.0050
 IR Inten    --     1.1659                 1.1432                 4.8358
 Raman Activ --     0.0332                 0.0285                 0.0625

                    10                     11                     12
                     A                      A                      A
 Frequencies --    41.5894                80.1894                95.4455
 Red. masses --     6.8722                 6.4256                 6.4522
 Frc consts  --     0.0070                 0.0243                 0.0346
 IR Inten    --     0.2827                 2.7150                 0.1085
 Raman Activ --     0.1593                 0.0950                 0.1692

                    13                     14                     15
                     A                      A                      A
 Frequencies --   123.8693               144.0304               174.0018
 Red. masses --     6.6011                 7.1618                 6.4843
 Frc consts  --     0.0597                 0.0875                 0.1157
 IR Inten    --     1.9913                 1.5101                 1.2080
 Raman Activ --     0.7639                 0.6615                 0.2117

                    16                     17                     18
                     A                      A                      A
 Frequencies --   186.1259               227.7048               237.4547
 Red. masses --     5.9106                 5.5113                 5.9968
 Frc consts  --     0.1206                 0.1684                 0.1992
 IR Inten    --     5.6815                 1.8253                 3.8922
 Raman Activ --     0.2205                 1.6741                 2.0444

                    19                     20                     21
                     A                      A                      A
 Frequencies --   241.8234               259.3367               273.3059
 Red. masses --     5.5073                 4.2636                 5.0512
 Frc consts  --     0.1898                 0.1689                 0.2223
 IR Inten    --    13.9013                12.9602                 3.3750
 Raman Activ --     1.5796                 0.3089                 0.7005

                    22                     23                     24
                     A                      A                      A
 Frequencies --   295.0014               310.5365               330.4293
 Red. masses --     6.9690                 5.2019                 6.0388
 Frc consts  --     0.3573                 0.2956                 0.3885
 IR Inten    --     4.1193                 0.9266                 7.1899
 Raman Activ --     1.6550                 0.2489                 1.2306

                    25                     26                     27
                     A                      A                      A
 Frequencies --   340.4306               367.4655               384.5619
 Red. masses --     5.8175                 4.8168                 4.9072
 Frc consts  --     0.3972                 0.3832                 0.4276
 IR Inten    --     3.2958                 0.6819                17.1880
 Raman Activ --     6.7765                 0.3806                 4.0520

                    28                     29                     30
                     A                      A                      A
 Frequencies --   391.7688               427.8586               439.9429
 Red. masses --     6.0000                 5.8967                 5.1015
 Frc consts  --     0.5426                 0.6360                 0.5818
 IR Inten    --     9.7833                 1.6920                 0.1104
 Raman Activ --     2.3097                 3.0761                 1.5149

                    31                     32                     33
                     A                      A                      A
 Frequencies --   458.9907               474.2812               498.1278
 Red. masses --     6.3295                 4.2085                 4.7868
 Frc consts  --     0.7856                 0.5578                 0.6998
 IR Inten    --     7.2054                 9.6021                 7.5604
 Raman Activ --     1.2219                 2.0916                 4.8717

                    34                     35                     36
                     A                      A                      A
 Frequencies --   526.2127               552.9958               565.9057
 Red. masses --     4.0568                 4.0405                 4.1730
 Frc consts  --     0.6618                 0.7280                 0.7874
 IR Inten    --    19.6731                30.6989                11.2534
 Raman Activ --     2.1047                 1.3883                 0.4854

                    37                     38                     39
                     A                      A                      A
 Frequencies --   575.4166               592.4007               628.1054
 Red. masses --     5.2321                 3.4900                 4.3287
 Frc consts  --     1.0207                 0.7216                 1.0062
 IR Inten    --     4.9492                12.5963                27.1647
 Raman Activ --     5.3162                 0.4312                 0.4677

                    40                     41                     42
                     A                      A                      A
 Frequencies --   659.4133               665.0630               690.5406
 Red. masses --     3.0626                 1.0842                 3.2885
 Frc consts  --     0.7846                 0.2825                 0.9239
 IR Inten    --    27.9601               113.4607                16.2180
 Raman Activ --     0.4911                 2.0872                 0.9156

                    43                     44                     45
                     A                      A                      A
 Frequencies --   699.2103               737.8752               753.4543
 Red. masses --     1.1527                 1.0741                 1.0938
 Frc consts  --     0.3320                 0.3446                 0.3658
 IR Inten    --   102.5130                49.0482               116.0506
 Raman Activ --     1.6166                 0.9937                 0.9951

                    46                     47                     48
                     A                      A                      A
 Frequencies --   787.1572               816.3206               822.3484
 Red. masses --     1.0664                 2.6393                 2.8002
 Frc consts  --     0.3893                 1.0362                 1.1157
 IR Inten    --    46.4371                 8.1350                 9.9448
 Raman Activ --     0.5262                 1.5397                 3.1304

                    49                     50                     51
                     A                      A                      A
 Frequencies --   840.3268               887.0621               951.9718
 Red. masses --     1.0769                 2.7759                 6.6800
 Frc consts  --     0.4480                 1.2869                 3.5668
 IR Inten    --   136.8172                14.3310               241.9409
 Raman Activ --     0.7510                 1.5888                 1.7932

                    52                     53                     54
                     A                      A                      A
 Frequencies --   969.6625               986.8274              1002.4969
 Red. masses --     6.6314                 4.6169                 4.8230
 Frc consts  --     3.6736                 2.6490                 2.8558
 IR Inten    --   141.1512                64.7957               110.2841
 Raman Activ --     2.2790                 0.5768                 2.0931

                    55                     56                     57
                     A                      A                      A
 Frequencies --  1013.4356              1023.6085              1028.9888
 Red. masses --     4.6690                 3.0566                 3.2625
 Frc consts  --     2.8253                 1.8869                 2.0353
 IR Inten    --    32.7232               300.9819               164.2373
 Raman Activ --     2.3453                 1.1632                 0.7682

                    58                     59                     60
                     A                      A                      A
 Frequencies --  1038.2153              1040.7362              1059.8528
 Red. masses --     4.9248                 3.2623                 4.6915
 Frc consts  --     3.1276                 2.0818                 3.1050
 IR Inten    --   123.0050               162.2843                93.3427
 Raman Activ --     3.9959                 6.8069                 1.6646

                    61                     62                     63
                     A                      A                      A
 Frequencies --  1062.7071              1078.5185              1082.4460
 Red. masses --     4.7086                 4.0461                 4.4558
 Frc consts  --     3.1331                 2.7729                 3.0760
 IR Inten    --   134.2319                26.1422               124.3357
 Raman Activ --     3.1832                 8.5707                 5.8380

                    64                     65                     66
                     A                      A                      A
 Frequencies --  1093.9933              1098.4430              1108.0528
 Red. masses --     4.0030                 3.0563                 3.2111
 Frc consts  --     2.8227                 2.1727                 2.3229
 IR Inten    --    26.6425                35.7098                37.9234
 Raman Activ --     1.8204                 4.9312                 6.1653

                    67                     68                     69
                     A                      A                      A
 Frequencies --  1118.3012              1129.0668              1141.0705
 Red. masses --     3.4814                 2.2275                 2.4874
 Frc consts  --     2.5652                 1.6730                 1.9081
 IR Inten    --    33.4373                 3.1627                52.6801
 Raman Activ --     6.1658                 6.0412                 2.3982

                    70                     71                     72
                     A                      A                      A
 Frequencies --  1147.2760              1154.4057              1159.8975
 Red. masses --     2.8769                 1.7131                 2.0779
 Frc consts  --     2.2310                 1.3451                 1.6471
 IR Inten    --    22.8217                27.5675                10.0885
 Raman Activ --     2.0498                 7.1847                 1.8730

                    73                     74                     75
                     A                      A                      A
 Frequencies --  1179.4974              1183.7263              1189.4810
 Red. masses --     2.5419                 1.7786                 1.9179
 Frc consts  --     2.0835                 1.4684                 1.5988
 IR Inten    --    60.4060                 5.1417                16.3256
 Raman Activ --     1.3446                 1.8152                 2.8332

                    76                     77                     78
                     A                      A                      A
 Frequencies --  1208.4497              1216.4486              1232.7635
 Red. masses --     1.3527                 1.4487                 1.3285
 Frc consts  --     1.1639                 1.2631                 1.1895
 IR Inten    --     5.2669                 7.5106                11.2802
 Raman Activ --     3.0471                 2.3941                 2.0008

                    79                     80                     81
                     A                      A                      A
 Frequencies --  1240.6159              1260.4068              1267.7383
 Red. masses --     1.1988                 1.2834                 1.3765
 Frc consts  --     1.0871                 1.2012                 1.3034
 IR Inten    --     1.7472                19.3758                22.0957
 Raman Activ --     1.6347                 1.4054                 1.4428

                    82                     83                     84
                     A                      A                      A
 Frequencies --  1279.2479              1284.0312              1293.9550
 Red. masses --     1.1439                 1.2618                 1.2673
 Frc consts  --     1.1029                 1.2258                 1.2501
 IR Inten    --     8.8145                22.1512                 0.3233
 Raman Activ --     4.5798                 1.8312                 4.2488

                    85                     86                     87
                     A                      A                      A
 Frequencies --  1307.8981              1313.6519              1316.5206
 Red. masses --     1.2441                 1.2789                 1.2787
 Frc consts  --     1.2538                 1.3003                 1.3057
 IR Inten    --    17.6207                17.6352                17.5861
 Raman Activ --     1.5289                 4.6049                 3.6322

                    88                     89                     90
                     A                      A                      A
 Frequencies --  1317.9754              1321.3339              1337.6307
 Red. masses --     1.2900                 1.3300                 1.2394
 Frc consts  --     1.3202                 1.3682                 1.3065
 IR Inten    --    11.2865                 6.8995                34.9432
 Raman Activ --     2.1173                 8.5707                 2.5143

                    91                     92                     93
                     A                      A                      A
 Frequencies --  1346.7507              1351.4053              1357.2513
 Red. masses --     1.1806                 1.3728                 1.3584
 Frc consts  --     1.2617                 1.4772                 1.4743
 IR Inten    --    19.3283                50.4356                11.6209
 Raman Activ --     3.3309                 3.0828                 7.9699

                    94                     95                     96
                     A                      A                      A
 Frequencies --  1366.6029              1381.6727              1391.9131
 Red. masses --     1.5991                 1.2786                 1.4393
 Frc consts  --     1.7596                 1.4382                 1.6430
 IR Inten    --    11.1955                21.3534                 2.9937
 Raman Activ --     2.4541                 2.2033                 8.1131

                    97                     98                     99
                     A                      A                      A
 Frequencies --  1401.3934              1404.1536              1409.2542
 Red. masses --     1.3734                 1.2446                 1.3124
 Frc consts  --     1.5892                 1.4458                 1.5357
 IR Inten    --     7.4199                23.3976                18.8082
 Raman Activ --     6.2724                 4.3906                 2.2890

                   100                    101                    102
                     A                      A                      A
 Frequencies --  1430.8940              1433.6286              1443.4943
 Red. masses --     1.1642                 1.4107                 1.4594
 Frc consts  --     1.4044                 1.7083                 1.7916
 IR Inten    --    16.0084                14.4324                10.6643
 Raman Activ --     5.7916                 3.0443                 1.9711

                   103                    104                    105
                     A                      A                      A
 Frequencies --  1452.8016              1463.6374              1464.7122
 Red. masses --     1.3957                 1.1423                 1.0886
 Frc consts  --     1.7356                 1.4417                 1.3760
 IR Inten    --     3.5780                73.6452                 9.2185
 Raman Activ --     0.4482                 5.4176                 7.1477

                   106                    107                    108
                     A                      A                      A
 Frequencies --  1469.9325              1536.4408              3267.5822
 Red. masses --     1.3579                 1.2893                 1.0627
 Frc consts  --     1.7286                 1.7933                 6.6850
 IR Inten    --    62.4129               108.6268                35.3994
 Raman Activ --     1.7340                 2.0838               103.5961

                   109                    110                    111
                     A                      A                      A
 Frequencies --  3270.4027              3275.3577              3286.6828
 Red. masses --     1.0599                 1.0816                 1.0840
 Frc consts  --     6.6789                 6.8365                 6.8992
 IR Inten    --    35.5515                 6.8046                 2.0131
 Raman Activ --   106.8895                41.9594                48.9845

                   112                    113                    114
                     A                      A                      A
 Frequencies --  3287.2785              3290.3644              3292.8171
 Red. masses --     1.0842                 1.0827                 1.0829
 Frc consts  --     6.9028                 6.9065                 6.9180
 IR Inten    --    24.9336                 5.4637                11.3546
 Raman Activ --    57.2905                55.8173               199.6429

                   115                    116                    117
                     A                      A                      A
 Frequencies --  3300.7994              3303.8072              3305.3703
 Red. masses --     1.0848                 1.0861                 1.0853
 Frc consts  --     6.9635                 6.9849                 6.9859
 IR Inten    --    10.6620                 4.0048                 5.0886
 Raman Activ --    41.4671                21.8487                69.7293

                   118                    119                    120
                     A                      A                      A
 Frequencies --  3309.6481              3319.8089              3325.9634
 Red. masses --     1.0859                 1.0883                 1.1021
 Frc consts  --     7.0079                 7.0670                 7.1828
 IR Inten    --   105.5981                17.0005                44.9715
 Raman Activ --     7.0350                20.0544                40.9383

                   121                    122                    123
                     A                      A                      A
 Frequencies --  3329.7629              3352.6338              3363.9083
 Red. masses --     1.1015                 1.0692                 1.0696
 Frc consts  --     7.1953                 7.0810                 7.1313
 IR Inten    --    57.5744               354.3947               298.7212
 Raman Activ --   119.3142               174.1586               168.9776

                   124                    125                    126
                     A                      A                      A
 Frequencies --  3378.4434              3383.7137              3388.6450
 Red. masses --     1.0655                 1.0649                 1.0679
 Frc consts  --     7.1651                 7.1839                 7.2250
 IR Inten    --    29.4600                12.0558                56.8494
 Raman Activ --    21.3219               105.6618               172.1553

                   127                    128                    129
                     A                      A                      A
 Frequencies --  3392.8595              3912.3557              3920.1335
 Red. masses --     1.0668                 1.0678                 1.0671
 Frc consts  --     7.2352                 9.6302                 9.6614
 IR Inten    --    60.9492                61.3663                75.2778
 Raman Activ --    96.0104               101.2914               121.4320

 - Thermochemistry -
 -------------------
 Temperature   298.150 Kelvin.  Pressure   1.00000 Atm.
 Atom     1 has atomic number  8 and mass  15.99491

 Molecular mass:   342.11621 amu.
 Principal axes and moments of inertia in atomic units:
                           1         2         3
     Eigenvalues --  4647.47387********************
           X            0.99997  -0.00711   0.00245
           Y            0.00712   0.99997  -0.00185
           Z           -0.00244   0.00186   1.00000
 This molecule is an asymmetric top.
 Rotational symmetry number  1.
 Warning -- assumption of classical behavior for rotation
           may cause significant error
 Rotational temperatures (Kelvin)      0.01864     0.00729     0.00547
 Rotational constants (GHZ):           0.38833     0.15184     0.11403
    8 imaginary frequencies ignored.
 Zero-point vibrational energy     976427.6 (Joules/Mol)
                                  233.37179 (Kcal/Mol)
 Warning -- explicit consideration of  30 degrees of freedom as
           vibrations may cause significant error
 Vibrational temperatures:     52.14    59.84   115.37   137.32   178.22
          (Kelvin)            207.23   250.35   267.79   327.62   341.64
                              347.93   373.13   393.23   424.44   446.79
                              475.41   489.80   528.70   553.30   563.67
                              615.59   632.98   660.38   682.38   716.69
                              757.10   795.64   814.21   827.90   852.33
                              903.70   948.75   956.88   993.53  1006.01
                             1061.64  1084.05  1132.54  1174.50  1183.17
                             1209.04  1276.28  1369.67  1395.13  1419.82
                             1442.37  1458.11  1472.74  1480.48  1493.76
                             1497.39  1524.89  1529.00  1551.75  1557.40
                             1574.01  1580.41  1594.24  1608.98  1624.47
                             1641.74  1650.67  1660.93  1668.83  1697.03
                             1703.12  1711.40  1738.69  1750.20  1773.67
                             1784.97  1813.44  1823.99  1840.55  1847.43
                             1861.71  1881.77  1890.05  1894.18  1896.27
                             1901.10  1924.55  1937.67  1944.37  1952.78
                             1966.23  1987.92  2002.65  2016.29  2020.26
                             2027.60  2058.73  2062.67  2076.86  2090.25
                             2105.85  2107.39  2114.90  2210.59  4701.32
                             4705.37  4712.50  4728.80  4729.65  4734.09
                             4737.62  4749.11  4753.44  4755.68  4761.84
                             4776.46  4785.31  4790.78  4823.69  4839.91
                             4860.82  4868.40  4875.50  4881.56  5629.00
                             5640.19

 Zero-point correction=                           0.371902 (Hartree/Particle)
 Thermal correction to Energy=                    0.389885
 Thermal correction to Enthalpy=                  0.390829
 Thermal correction to Gibbs Free Energy=         0.326086
 Sum of electronic and zero-point Energies=          -1297.552008
 Sum of electronic and thermal Energies=             -1297.534025
 Sum of electronic and thermal Enthalpies=           -1297.533081
 Sum of electronic and thermal Free Energies=        -1297.597823

                     E (Thermal)             CV                S
                      KCal/Mol        Cal/Mol-Kelvin    Cal/Mol-Kelvin
 Total                  244.656             74.172            136.262
 Electronic               0.000              0.000              0.000
 Translational            0.889              2.981             43.384
 Rotational               0.889              2.981             35.124
 Vibrational            242.879             68.210             57.754
 Vibration     1          0.594              1.982              5.455
 Vibration     2          0.594              1.981              5.182
 Vibration     3          0.600              1.963              3.886
 Vibration     4          0.603              1.952              3.545
 Vibration     5          0.610              1.929              3.039
 Vibration     6          0.616              1.909              2.750
 Vibration     7          0.627              1.874              2.392
 Vibration     8          0.632              1.859              2.266
 Vibration     9          0.651              1.799              1.897
 Vibration    10          0.656              1.783              1.822
 Vibration    11          0.658              1.776              1.789
 Vibration    12          0.668              1.747              1.666
 Vibration    13          0.676              1.723              1.575
 Vibration    14          0.689              1.683              1.445
 Vibration    15          0.699              1.654              1.359
 Vibration    16          0.713              1.615              1.258
 Vibration    17          0.720              1.595              1.210
 Vibration    18          0.740              1.539              1.090
 Vibration    19          0.754              1.503              1.021
 Vibration    20          0.759              1.488              0.993
 Vibration    21          0.789              1.410              0.866
 Vibration    22          0.800              1.383              0.827
 Vibration    23          0.817              1.341              0.769
 Vibration    24          0.831              1.307              0.726
 Vibration    25          0.854              1.254              0.663
 Vibration    26          0.881              1.192              0.596
 Vibration    27          0.908              1.133              0.538
 Vibration    28          0.922              1.105              0.512
 Vibration    29          0.932              1.084              0.494
 Vibration    30          0.950              1.048              0.463

 Normal termination of Gaussian 09 at Thu Jan 21 18:16:06 2016.
