 Gaussian 09, Revision B.01,
 Gaussian 09:  EM64L-G09RevB.01 12-Aug-2010

 ------------------------------------------------
 # freq=raman b3lyp/6-31+g(d,p) geom=connectivity
 ------------------------------------------------

 -------------
 320 10000.com
 -------------
 Symbolic Z-matrix:
 Charge =  0 Multiplicity = 1

                         Standard orientation:
 ---------------------------------------------------------------------
 Center     Atomic      Atomic             Coordinates (Angstroms)
 Number     Number       Type             X           Y           Z
 ---------------------------------------------------------------------
      1          8           0        5.094513   -0.358036   -0.181571
      2          6           0        3.785329   -0.013649    0.295653
      3          6           0        3.192841    1.231743   -0.343925
      4          8           0        4.058903    2.375634   -0.320011
      5          1           0        4.869095    1.928082   -0.698551
      6          6           0        1.811533    1.564890    0.195119
      7          8           0        1.275938    2.749326   -0.411894
      8          1           0        0.356823    2.833737   -0.027907
      9          6           0        3.028551   -2.486246    0.229856
     10          8           0        4.212078   -3.151687   -0.235026
     11          1           0        4.175693   -4.150686   -0.246659
     12          6           0        2.843086   -1.062644   -0.270772
     13          8           0        1.535892   -0.816973    0.267819
     14          6           0        0.867627    0.405582   -0.078196
     15          8           0       -0.300412    0.566908    0.740219
     16          6           0       -1.511347    0.217637    0.055083
     17          6           0       -2.012677   -1.175787    0.397739
     18          8           0       -1.001325   -2.174684    0.198365
     19          1           0       -0.163970   -1.739225    0.527941
     20          6           0       -3.273036   -1.534978   -0.372018
     21          8           0       -3.656173   -2.830183    0.114183
     22          1           0       -4.439483   -3.148536   -0.419949
     23          6           0       -2.560014    2.624341    0.153343
     24          8           0       -1.291963    3.295692    0.196124
     25          1           0       -1.458096    4.277453    0.100992
     26          6           0       -2.647478    1.139549    0.465797
     27          8           0       -3.901577    0.855053   -0.170973
     28          6           0       -4.316278   -0.504717    0.026526
     29          8           0       -5.407936   -0.685014   -0.886737
     30          1           0       -6.208983   -0.877492   -0.393912
     31          1           0        5.660239   -0.573590    0.563473
     32          1           0        2.179342   -3.061629   -0.074575
     33          1           0        3.054770   -2.464434    1.299312
     34          1           0        2.826226   -1.030500   -1.340156
     35          1           0        3.740650    0.023318    1.364081
     36          1           0        3.054589    0.991248   -1.377341
     37          1           0        1.878709    1.716471    1.252195
     38          1           0        0.592157    0.393045   -1.112052
     39          1           0       -3.208185    3.129863    0.838341
     40          1           0       -2.958243    2.764079   -0.829910
     41          1           0       -2.782579    1.034582    1.522031
     42          1           0       -1.356982    0.291050   -1.001176
     43          1           0       -2.262566   -1.177584    1.438149
     44          1           0       -3.103042   -1.541139   -1.428410
     45          1           0       -4.638496   -0.660731    1.034859
 ---------------------------------------------------------------------

 SCF Done:  E(RB3LYP) =  -1297.94277631     A.U. after   14 cycles

 The electronic state is 1-A.
 Alpha  occ. eigenvalues --  -19.20077 -19.19311 -19.19232 -19.18787 -19.18539
 Alpha  occ. eigenvalues --  -19.17756 -19.17507 -19.16112 -19.15527 -19.14970
 Alpha  occ. eigenvalues --  -19.13819 -10.31092 -10.30779 -10.26753 -10.26364
 Alpha  occ. eigenvalues --  -10.25647 -10.25512 -10.25443 -10.25342 -10.24588
 Alpha  occ. eigenvalues --  -10.24162 -10.24114 -10.23962  -1.10068  -1.09401
 Alpha  occ. eigenvalues --   -1.05629  -1.05084  -1.04247  -1.03981  -1.03148
 Alpha  occ. eigenvalues --   -1.02103  -1.01531  -1.00862  -0.99908  -0.82529
 Alpha  occ. eigenvalues --   -0.80525  -0.79877  -0.78469  -0.71974  -0.69830
 Alpha  occ. eigenvalues --   -0.67162  -0.64839  -0.63159  -0.62106  -0.61861
 Alpha  occ. eigenvalues --   -0.60528  -0.56748  -0.55777  -0.55160  -0.54840
 Alpha  occ. eigenvalues --   -0.53731  -0.53456  -0.52587  -0.52201  -0.50924
 Alpha  occ. eigenvalues --   -0.50785  -0.49462  -0.48907  -0.48322  -0.46833
 Alpha  occ. eigenvalues --   -0.45524  -0.45366  -0.44066  -0.43595  -0.43231
 Alpha  occ. eigenvalues --   -0.42355  -0.41827  -0.40995  -0.40379  -0.39414
 Alpha  occ. eigenvalues --   -0.38709  -0.38297  -0.37709  -0.36871  -0.36309
 Alpha  occ. eigenvalues --   -0.35789  -0.35241  -0.34400  -0.34198  -0.33422
 Alpha  occ. eigenvalues --   -0.32896  -0.31423  -0.30820  -0.30551  -0.30181
 Alpha  occ. eigenvalues --   -0.29079  -0.28801  -0.28207  -0.27022  -0.26695
 Alpha  occ. eigenvalues --   -0.26190
 Alpha virt. eigenvalues --   -0.01947  -0.01909  -0.01482  -0.00146   0.00384
 Alpha virt. eigenvalues --    0.00902   0.01835   0.02132   0.02777   0.03671
 Alpha virt. eigenvalues --    0.04067   0.04228   0.04775   0.05604   0.05630

 Mulliken atomic charges:
              1
     1  O   -0.529413
     2  C    0.014895
     3  C   -0.100022
     4  O   -0.465131
     5  H    0.351404
     6  C   -0.093296
     7  O   -0.528762
     8  H    0.442546
     9  C   -0.055813
    10  O   -0.587334
    11  H    0.370635
    12  C    0.195793
    13  O   -0.423913
    14  C    0.301800
    15  O   -0.315326
    16  C   -0.068708
    17  C   -0.051462
    18  O   -0.484208
    19  H    0.392594
    20  C    0.079625
    21  O   -0.498743
    22  H    0.348732
    23  C   -0.062620
    24  O   -0.635096
    25  H    0.395366
    26  C   -0.003384
    27  O   -0.286144
    28  C    0.214964
    29  O   -0.560685
    30  H    0.360693
    31  H    0.366339
    32  H    0.144217
    33  H    0.134197
    34  H    0.136883
    35  H    0.137520
    36  H    0.116934
    37  H    0.140460
    38  H    0.121035
    39  H    0.138098
    40  H    0.157340
    41  H    0.137509
    42  H    0.125893
    43  H    0.133145
    44  H    0.154086
    45  H    0.137356
 Sum of Mulliken atomic charges =   0.00000

 Dipole moment (field-independent basis, Debye):
    X=             -3.6839    Y=             -0.9273    Z=              2.0870  Tot=              4.3344
 Quadrupole moment (field-independent basis, Debye-Ang):
   XX=           -119.1800   YY=           -137.7521   ZZ=           -137.3793
   XY=            -15.4162   XZ=              1.9619   YZ=              3.8392

  Exact polarizability: 226.136   0.100 192.646   0.657   0.073 140.577
 Approx polarizability: 262.621  -1.029 248.687   0.499   0.033 229.460

 ******    8 imaginary frequencies (negative Signs) ******

                     1                      2                      3
                     A                      A                      A
 Frequencies --  -347.4965              -290.9276              -271.4929
 Red. masses --     1.1041                 1.8546                 1.1551
 Frc consts  --     0.0785                 0.0925                 0.0502
 IR Inten    --   108.8052                 2.4201               117.2581
 Raman Activ --     1.0126                 0.1127                 1.1860

                     4                      5                      6
                     A                      A                      A
 Frequencies --  -232.1856               -74.3067               -61.1469
 Red. masses --     1.8735                 6.6913                 6.4696
 Frc consts  --     0.0595                 0.0218                 0.0143
 IR Inten    --     5.8180                 0.0093                 0.6896
 Raman Activ --     0.1447                 0.0430                 0.0642

                     7                      8                      9
                     A                      A                      A
 Frequencies --   -40.7354               -22.0105                64.4781
 Red. masses --     6.9024                 6.4850                 6.5780
 Frc consts  --     0.0067                 0.0019                 0.0161
 IR Inten    --     0.0823                 0.8224                 0.6788
 Raman Activ --     0.0140                 0.0233                 0.1127

                    10                     11                     12
                     A                      A                      A
 Frequencies --    73.3891               110.9549               111.1476
 Red. masses --     6.5012                 5.8384                 5.8110
 Frc consts  --     0.0206                 0.0423                 0.0423
 IR Inten    --     0.1684                 0.9288                 1.6069
 Raman Activ --     0.2370                 0.0728                 0.0495

                    13                     14                     15
                     A                      A                      A
 Frequencies --   157.4571               181.4675               186.4408
 Red. masses --     6.3225                 5.9908                 7.5885
 Frc consts  --     0.0924                 0.1162                 0.1554
 IR Inten    --     2.3237                 3.9150                 0.4678
 Raman Activ --     0.5524                 0.5526                 0.6077

                    16                     17                     18
                     A                      A                      A
 Frequencies --   214.1616               227.3227               251.4710
 Red. masses --     6.6138                 6.0965                 5.3821
 Frc consts  --     0.1787                 0.1856                 0.2005
 IR Inten    --     1.2634                 0.8936                 4.7034
 Raman Activ --     2.0785                 0.5641                 0.2225

                    19                     20                     21
                     A                      A                      A
 Frequencies --   265.2933               280.3307               305.9208
 Red. masses --     4.0445                 4.9412                 4.8217
 Frc consts  --     0.1677                 0.2288                 0.2659
 IR Inten    --    16.5142                 2.7043                 2.1719
 Raman Activ --     0.3008                 0.1292                 0.1974

                    22                     23                     24
                     A                      A                      A
 Frequencies --   315.1033               320.4385               335.4555
 Red. masses --     5.5962                 5.6431                 6.2111
 Frc consts  --     0.3274                 0.3414                 0.4118
 IR Inten    --     2.6547                 4.0158                 0.9773
 Raman Activ --     0.7484                 1.9485                 1.9879

                    25                     26                     27
                     A                      A                      A
 Frequencies --   349.4597               365.5766               387.0341
 Red. masses --     6.2523                 4.5540                 8.3508
 Frc consts  --     0.4499                 0.3586                 0.7370
 IR Inten    --    15.4804                 0.5068                 2.3205
 Raman Activ --     2.5054                 1.8792                 3.1572

                    28                     29                     30
                     A                      A                      A
 Frequencies --   405.2738               425.4487               429.7593
 Red. masses --     5.7458                 5.0383                 4.8131
 Frc consts  --     0.5560                 0.5373                 0.5238
 IR Inten    --     9.6082                 4.0081                 7.2460
 Raman Activ --     2.1081                 5.6358                 0.5870

                    31                     32                     33
                     A                      A                      A
 Frequencies --   450.2487               498.5372               504.5237
 Red. masses --     5.7847                 3.5856                 4.7116
 Frc consts  --     0.6909                 0.5251                 0.7066
 IR Inten    --     5.1424                22.1223                 4.5034
 Raman Activ --     1.9290                 0.4213                 3.6647

                    34                     35                     36
                     A                      A                      A
 Frequencies --   512.0743               541.2525               579.9434
 Red. masses --     4.0436                 3.1675                 3.6484
 Frc consts  --     0.6247                 0.5467                 0.7230
 IR Inten    --     4.7244                10.6400                16.5628
 Raman Activ --     4.0735                 2.6553                 1.4571

                    37                     38                     39
                     A                      A                      A
 Frequencies --   605.1234               614.0978               616.6980
 Red. masses --     3.6200                 3.2564                 3.7770
 Frc consts  --     0.7810                 0.7235                 0.8463
 IR Inten    --    26.3674                38.2690                17.2391
 Raman Activ --     0.1872                 0.7542                 1.3796

                    40                     41                     42
                     A                      A                      A
 Frequencies --   635.5284               646.8936               677.4089
 Red. masses --     1.4753                 2.8642                 5.1040
 Frc consts  --     0.3511                 0.7062                 1.3800
 IR Inten    --    85.8066                40.4643                 9.3270
 Raman Activ --     1.5556                 1.0398                 0.4298

                    43                     44                     45
                     A                      A                      A
 Frequencies --   695.8381               730.0031               754.2853
 Red. masses --     1.0772                 1.0840                 1.1416
 Frc consts  --     0.3073                 0.3404                 0.3827
 IR Inten    --   114.3634               105.7668               102.7970
 Raman Activ --     1.9820                 1.9333                 1.9489

                    46                     47                     48
                     A                      A                      A
 Frequencies --   788.7156               842.9603               857.3081
 Red. masses --     1.0946                 1.0955                 1.6921
 Frc consts  --     0.4012                 0.4586                 0.7327
 IR Inten    --   118.8306                79.4710                 7.7246
 Raman Activ --     3.5564                 1.1964                 0.8742

                    49                     50                     51
                     A                      A                      A
 Frequencies --   879.1817               943.2585               960.8365
 Red. masses --     1.7418                 5.2481                 4.8096
 Frc consts  --     0.7932                 2.7511                 2.6161
 IR Inten    --     6.1562                74.8173                19.5551
 Raman Activ --     2.2814                 3.1281                 0.4889

                    52                     53                     54
                     A                      A                      A
 Frequencies --   989.5251               992.7857               996.5060
 Red. masses --     5.2308                 6.0613                 4.0593
 Frc consts  --     3.0177                 3.5199                 2.3750
 IR Inten    --   104.5062               136.3012                39.1324
 Raman Activ --     1.7508                 3.3487                 0.7940

                    55                     56                     57
                     A                      A                      A
 Frequencies --  1013.9209              1017.0913              1026.7699
 Red. masses --     5.5255                 5.4774                 4.8155
 Frc consts  --     3.3468                 3.3384                 2.9912
 IR Inten    --   328.8778                72.2167                62.1475
 Raman Activ --     0.9260                 1.4933                 2.5311

                    58                     59                     60
                     A                      A                      A
 Frequencies --  1051.2879              1060.3710              1074.0843
 Red. masses --     3.6454                 3.2437                 3.8612
 Frc consts  --     2.3738                 2.1488                 2.6245
 IR Inten    --   236.0202               154.5890               103.7441
 Raman Activ --     8.7228                16.5954                 2.6157

                    61                     62                     63
                     A                      A                      A
 Frequencies --  1077.7420              1080.6036              1090.5805
 Red. masses --     3.2197                 3.7822                 3.3119
 Frc consts  --     2.2034                 2.6021                 2.3208
 IR Inten    --    93.7635                 4.3279               200.2462
 Raman Activ --     3.1899                 3.6257                 0.7379

                    64                     65                     66
                     A                      A                      A
 Frequencies --  1091.4478              1100.1539              1107.4144
 Red. masses --     2.4139                 4.0674                 2.3488
 Frc consts  --     1.6942                 2.9005                 1.6972
 IR Inten    --    11.6691                32.5389                74.1613
 Raman Activ --     8.3378                10.7742                 8.4299

                    67                     68                     69
                     A                      A                      A
 Frequencies --  1115.9809              1126.4829              1136.1248
 Red. masses --     2.4224                 1.9170                 2.1663
 Frc consts  --     1.7775                 1.4332                 1.6474
 IR Inten    --    44.8460                83.5597                15.1765
 Raman Activ --     7.4202                 5.5200                 3.6015

                    70                     71                     72
                     A                      A                      A
 Frequencies --  1143.1487              1143.6546              1160.4879
 Red. masses --     2.6399                 2.4078                 3.1084
 Frc consts  --     2.0325                 1.8555                 2.4664
 IR Inten    --    29.9908                29.6005                13.5438
 Raman Activ --     2.5569                 3.3746                 9.6140

                    73                     74                     75
                     A                      A                      A
 Frequencies --  1172.8829              1178.0129              1197.3880
 Red. masses --     2.0100                 1.9240                 1.6625
 Frc consts  --     1.6291                 1.5731                 1.4044
 IR Inten    --    24.8015                 0.4892                37.6088
 Raman Activ --     3.4970                 1.1632                 2.1118

                    76                     77                     78
                     A                      A                      A
 Frequencies --  1202.2953              1207.1641              1225.7312
 Red. masses --     1.6244                 1.3643                 1.4561
 Frc consts  --     1.3835                 1.1714                 1.2889
 IR Inten    --    29.7045                33.5386                 1.6650
 Raman Activ --     0.9253                 2.9877                 1.8756

                    79                     80                     81
                     A                      A                      A
 Frequencies --  1243.5362              1245.5850              1250.6172
 Red. masses --     1.3969                 1.2494                 1.3552
 Frc consts  --     1.2727                 1.1420                 1.2489
 IR Inten    --    14.8886                12.1394                 9.4327
 Raman Activ --     5.2081                 2.4108                 1.6605

                    82                     83                     84
                     A                      A                      A
 Frequencies --  1252.2162              1273.8121              1280.2613
 Red. masses --     1.1751                 1.2836                 1.4021
 Frc consts  --     1.0857                 1.2272                 1.3540
 IR Inten    --    12.1613                 3.1323                30.6097
 Raman Activ --     8.1104                 0.5323                 0.6996

                    85                     86                     87
                     A                      A                      A
 Frequencies --  1298.4237              1301.1152              1307.9269
 Red. masses --     1.1536                 1.2540                 1.2861
 Frc consts  --     1.1459                 1.2507                 1.2963
 IR Inten    --    35.1198                12.5356                31.0756
 Raman Activ --     5.3790                 3.8920                 1.9215

                    88                     89                     90
                     A                      A                      A
 Frequencies --  1314.9776              1320.4111              1324.2214
 Red. masses --     1.3638                 1.2865                 1.3166
 Frc consts  --     1.3894                 1.3216                 1.3603
 IR Inten    --     3.6775                16.9910                27.6683
 Raman Activ --     5.2479                 2.2534                 6.6564

                    91                     92                     93
                     A                      A                      A
 Frequencies --  1338.1403              1352.8914              1355.5790
 Red. masses --     1.2657                 1.2607                 1.1712
 Frc consts  --     1.3353                 1.3596                 1.2680
 IR Inten    --    14.4231                50.8933                12.7873
 Raman Activ --    10.1601                 2.7300                 0.7995

                    94                     95                     96
                     A                      A                      A
 Frequencies --  1365.0581              1373.2828              1385.7514
 Red. masses --     1.5001                 1.5212                 1.5838
 Frc consts  --     1.6469                 1.6903                 1.7919
 IR Inten    --     8.0441                14.1153                 5.2958
 Raman Activ --     6.6270                 7.0370                 2.4176

                    97                     98                     99
                     A                      A                      A
 Frequencies --  1387.7583              1410.7211              1416.2754
 Red. masses --     1.5761                 1.1380                 1.3775
 Frc consts  --     1.7884                 1.3343                 1.6280
 IR Inten    --    15.8152                20.8021                16.8909
 Raman Activ --    11.0430                 1.4277                 4.9076

                   100                    101                    102
                     A                      A                      A
 Frequencies --  1418.6639              1425.3603              1477.4785
 Red. masses --     1.4511                 1.5340                 1.3821
 Frc consts  --     1.7207                 1.8363                 1.7776
 IR Inten    --    23.6433                 0.3223                23.3565
 Raman Activ --     4.0413                 1.6189                 0.8693

                   103                    104                    105
                     A                      A                      A
 Frequencies --  1478.8909              1487.5332              1499.9498
 Red. masses --     1.0914                 1.0878                 1.3121
 Frc consts  --     1.4064                 1.4182                 1.7393
 IR Inten    --     1.9772                 1.8313                46.7870
 Raman Activ --     5.2103                 5.4295                 1.9465

                   106                    107                    108
                     A                      A                      A
 Frequencies --  1502.5429              1522.8554              3267.4217
 Red. masses --     1.2136                 1.3626                 1.0812
 Frc consts  --     1.6143                 1.8618                 6.8011
 IR Inten    --    31.9170                69.4636                20.4573
 Raman Activ --     1.2261                 1.1832                20.2598

                   109                    110                    111
                     A                      A                      A
 Frequencies --  3270.5782              3271.8451              3277.1837
 Red. masses --     1.0584                 1.0609                 1.0823
 Frc consts  --     6.6702                 6.6914                 6.8483
 IR Inten    --    24.8333               100.8864                 0.2003
 Raman Activ --   103.9897                71.7968                 5.7785

                   112                    113                    114
                     A                      A                      A
 Frequencies --  3284.2614              3293.8920              3300.7080
 Red. masses --     1.0826                 1.0834                 1.0863
 Frc consts  --     6.8803                 6.9253                 6.9731
 IR Inten    --    22.8590                47.4352                58.9555
 Raman Activ --    99.1240               123.3696                21.7079

                   115                    116                    117
                     A                      A                      A
 Frequencies --  3305.7312              3306.2022              3308.8423
 Red. masses --     1.0858                 1.0865                 1.0814
 Frc consts  --     6.9907                 6.9973                 6.9756
 IR Inten    --    31.5271                20.1929               148.0615
 Raman Activ --    35.9064               206.3804                28.1692

                   118                    119                    120
                     A                      A                      A
 Frequencies --  3312.8897              3319.1483              3323.1294
 Red. masses --     1.0756                 1.0886                 1.0880
 Frc consts  --     6.9554                 7.0661                 7.0791
 IR Inten    --   352.9216                86.3950                39.0264
 Raman Activ --   163.2917                13.3919                18.7896

                   121                    122                    123
                     A                      A                      A
 Frequencies --  3327.9645              3331.9781              3359.8704
 Red. masses --     1.1059                 1.1059                 1.0667
 Frc consts  --     7.2162                 7.2341                 7.0945
 IR Inten    --    54.4067                49.4968               404.9802
 Raman Activ --    55.8420                25.7078               142.3433

                   124                    125                    126
                     A                      A                      A
 Frequencies --  3385.0522              3391.2426              3391.3338
 Red. masses --     1.0646                 1.0685                 1.0666
 Frc consts  --     7.1873                 7.2404                 7.2274
 IR Inten    --    31.8635                32.1047                44.1754
 Raman Activ --    76.7588               147.8952               206.5551

                   127                    128                    129
                     A                      A                      A
 Frequencies --  3393.0265              3919.3004              3924.0867
 Red. masses --     1.0667                 1.0676                 1.0677
 Frc consts  --     7.2358                 9.6621                 9.6865
 IR Inten    --    59.2222                67.2035                81.5522
 Raman Activ --   165.2075               121.4051                98.8968

 - Thermochemistry -
 -------------------
 Temperature   298.150 Kelvin.  Pressure   1.00000 Atm.
 Atom     1 has atomic number  8 and mass  15.99491

 Molecular mass:   342.11621 amu.
 Principal axes and moments of inertia in atomic units:
                           1         2         3
     Eigenvalues --  4416.52386********************
           X            0.99997  -0.00816  -0.00039
           Y            0.00816   0.99997   0.00061
           Z            0.00039  -0.00061   1.00000
 This molecule is an asymmetric top.
 Rotational symmetry number  1.
 Warning -- assumption of classical behavior for rotation
           may cause significant error
 Rotational temperatures (Kelvin)      0.01961     0.00703     0.00532
 Rotational constants (GHZ):           0.40863     0.14654     0.11083
    8 imaginary frequencies ignored.
 Zero-point vibrational energy     979474.0 (Joules/Mol)
                                  234.09990 (Kcal/Mol)
 Warning -- explicit consideration of  31 degrees of freedom as
           vibrations may cause significant error
 Vibrational temperatures:     92.77   105.59   159.64   159.92   226.55
          (Kelvin)            261.09   268.25   308.13   327.07   361.81
                              381.70   403.33   440.15   453.36   461.04
                              482.64   502.79   525.98   556.86   583.10
                              612.12   618.33   647.81   717.28   725.90
                              736.76   778.74   834.41   870.64   883.55
                              887.29   914.38   930.73   974.64  1001.15
                             1050.31  1085.25  1134.78  1212.83  1233.47
                             1264.94  1357.14  1382.43  1423.70  1428.40
                             1433.75  1458.80  1463.37  1477.29  1512.57
                             1525.64  1545.37  1550.63  1554.75  1569.10
                             1570.35  1582.87  1593.32  1605.65  1620.76
                             1634.63  1644.73  1645.46  1669.68  1687.51
                             1694.90  1722.77  1729.83  1736.84  1763.55
                             1789.17  1792.12  1799.36  1801.66  1832.73
                             1842.01  1868.14  1872.01  1881.81  1891.96
                             1899.77  1905.26  1925.28  1946.51  1950.37
                             1964.01  1975.85  1993.78  1996.67  2029.71
                             2037.70  2041.14  2050.77  2125.76  2127.79
                             2140.23  2158.09  2161.82  2191.05  4701.09
                             4705.63  4707.45  4715.13  4725.31  4739.17
                             4748.98  4756.20  4756.88  4760.68  4766.50
                             4775.51  4781.24  4788.19  4793.97  4834.10
                             4870.33  4879.24  4879.37  4881.80  5638.99
                             5645.88

 Zero-point correction=                           0.373062 (Hartree/Particle)
 Thermal correction to Energy=                    0.390427
 Thermal correction to Enthalpy=                  0.391371
 Thermal correction to Gibbs Free Energy=         0.329195
 Sum of electronic and zero-point Energies=          -1297.569714
 Sum of electronic and thermal Energies=             -1297.552350
 Sum of electronic and thermal Enthalpies=           -1297.551406
 Sum of electronic and thermal Free Energies=        -1297.613581

                     E (Thermal)             CV                S
                      KCal/Mol        Cal/Mol-Kelvin    Cal/Mol-Kelvin
 Total                  244.996             73.510            130.860
 Electronic               0.000              0.000              0.000
 Translational            0.889              2.981             43.384
 Rotational               0.889              2.981             35.137
 Vibrational            243.219             67.548             52.339
 Vibration     1          0.597              1.971              4.315
 Vibration     2          0.599              1.967              4.060
 Vibration     3          0.607              1.940              3.252
 Vibration     4          0.607              1.940              3.249
 Vibration     5          0.621              1.894              2.580
 Vibration     6          0.630              1.865              2.313
 Vibration     7          0.632              1.858              2.263
 Vibration     8          0.644              1.819              2.008
 Vibration     9          0.651              1.799              1.900
 Vibration    10          0.663              1.760              1.720
 Vibration    11          0.671              1.737              1.627
 Vibration    12          0.680              1.710              1.532
 Vibration    13          0.696              1.662              1.384
 Vibration    14          0.702              1.645              1.335
 Vibration    15          0.706              1.634              1.308
 Vibration    16          0.717              1.605              1.234
 Vibration    17          0.727              1.576              1.169
 Vibration    18          0.739              1.543              1.098
 Vibration    19          0.755              1.498              1.012
 Vibration    20          0.770              1.459              0.943
 Vibration    21          0.787              1.415              0.874
 Vibration    22          0.791              1.405              0.859
 Vibration    23          0.809              1.360              0.795
 Vibration    24          0.854              1.253              0.662
 Vibration    25          0.860              1.240              0.647
 Vibration    26          0.867              1.223              0.629
 Vibration    27          0.896              1.159              0.563
 Vibration    28          0.937              1.075              0.485
 Vibration    29          0.964              1.021              0.441
 Vibration    30          0.974              1.002              0.426
 Vibration    31          0.976              0.997              0.422

 Normal termination of Gaussian 09 at Thu Jan 21 05:06:18 2016.
