 Gaussian 09, Revision B.01,
 Gaussian 09:  EM64L-G09RevB.01 12-Aug-2010

 -------------------------------------------------
 # freq=raman b3lyp/6-31+g(2d,p) geom=connectivity
 -------------------------------------------------

 -----------------
 493 9682/9682.com
 -----------------
 Symbolic Z-matrix:
 Charge =  0 Multiplicity = 1

                         Standard orientation:
 ---------------------------------------------------------------------
 Center     Atomic      Atomic             Coordinates (Angstroms)
 Number     Number       Type             X           Y           Z
 ---------------------------------------------------------------------
      1          8           0       -4.953682   -0.341739    0.536076
      2          6           0       -3.717465   -0.154244   -0.167499
      3          6           0       -3.302136    1.252989    0.228604
      4          8           0       -4.234210    2.304883   -0.064558
      5          1           0       -5.170622    2.030943    0.155568
      6          6           0       -1.876316    1.579687   -0.183006
      7          8           0       -1.324039    2.806075    0.317103
      8          1           0       -0.355085    2.829579    0.072242
      9          6           0       -3.135280   -2.558334   -0.385690
     10          8           0       -4.211562   -3.298838    0.208125
     11          1           0       -4.092626   -4.291110    0.180355
     12          6           0       -2.749251   -1.241847    0.269912
     13          8           0       -1.472644   -0.753235   -0.165467
     14          6           0       -0.974076    0.484663    0.362137
     15          8           0        0.266542    0.596135   -0.350775
     16          6           0        1.512300    0.113990    0.174782
     17          6           0        2.036141   -1.144789   -0.497375
     18          8           0        0.928013   -2.052211   -0.407027
     19          1           0        0.099723   -1.493273   -0.444997
     20          6           0        3.364678   -1.576727    0.102458
     21          8           0        4.062694   -2.723890   -0.401622
     22          1           0        4.804582   -2.970295    0.221586
     23          6           0        2.390618    2.607469   -0.124520
     24          8           0        1.253749    3.340613   -0.604699
     25          1           0        1.537949    4.298065   -0.653469
     26          6           0        2.606904    1.104468   -0.186939
     27          8           0        3.850904    0.789173    0.453750
     28          6           0        4.400391   -0.466687    0.025999
     29          8           0        5.503560   -0.555727    0.939446
     30          1           0        6.315175   -0.701210    0.447799
     31          1           0        4.765711   -0.379367   -0.975907
     32          1           0        3.181443   -1.761837    1.140272
     33          1           0        2.199532   -0.925728   -1.531887
     34          1           0        1.455298   -0.016437    1.235273
     35          1           0        2.785201    0.915222   -1.224868
     36          1           0        2.468660    2.859011    0.912561
     37          1           0        3.232320    3.032960   -0.629886
     38          1           0       -5.654346   -0.529885   -0.092630
     39          1           0       -2.269586   -3.187174   -0.391497
     40          1           0       -3.401152   -2.352410   -1.401469
     41          1           0       -2.762947   -1.340912    1.335228
     42          1           0       -3.882402   -0.207740   -1.223356
     43          1           0       -3.269197    1.224512    1.297717
     44          1           0       -1.815359    1.581595   -1.251267
     45          1           0       -0.865929    0.491746    1.426634
 ---------------------------------------------------------------------

 SCF Done:  E(RB3LYP) =  -1297.95264672     A.U. after   13 cycles

 The electronic state is 1-A.
 Alpha  occ. eigenvalues --  -19.18534 -19.18245 -19.18118 -19.18046 -19.17374
 Alpha  occ. eigenvalues --  -19.16681 -19.16512 -19.16506 -19.15151 -19.13276
 Alpha  occ. eigenvalues --  -19.13090 -10.31078 -10.30623 -10.25899 -10.25806
 Alpha  occ. eigenvalues --  -10.25603 -10.25489 -10.24923 -10.24873 -10.24786
 Alpha  occ. eigenvalues --  -10.24694 -10.24000 -10.23903  -1.10425  -1.09212
 Alpha  occ. eigenvalues --   -1.05377  -1.04827  -1.03915  -1.03579  -1.02762
 Alpha  occ. eigenvalues --   -1.02535  -1.01529  -1.00648  -0.99746  -0.82773
 Alpha  occ. eigenvalues --   -0.80092  -0.79347  -0.78681  -0.72310  -0.70208
 Alpha  occ. eigenvalues --   -0.67335  -0.64476  -0.63218  -0.62408  -0.61892
 Alpha  occ. eigenvalues --   -0.60445  -0.56650  -0.56072  -0.55332  -0.54687
 Alpha  occ. eigenvalues --   -0.54018  -0.53327  -0.52857  -0.51554  -0.51104
 Alpha  occ. eigenvalues --   -0.50734  -0.50290  -0.49363  -0.48312  -0.47189
 Alpha  occ. eigenvalues --   -0.46441  -0.45426  -0.44551  -0.43791  -0.43759
 Alpha  occ. eigenvalues --   -0.43279  -0.41693  -0.41334  -0.40678  -0.38399
 Alpha  occ. eigenvalues --   -0.37983  -0.37931  -0.37056  -0.36105  -0.35580
 Alpha  occ. eigenvalues --   -0.35057  -0.34656  -0.34279  -0.33706  -0.33446
 Alpha  occ. eigenvalues --   -0.32953  -0.31101  -0.30213  -0.30047  -0.29600
 Alpha  occ. eigenvalues --   -0.29351  -0.29073  -0.28233  -0.27223  -0.26481
 Alpha  occ. eigenvalues --   -0.26077
 Alpha virt. eigenvalues --   -0.01921  -0.01846  -0.01770  -0.00276   0.00034
 Alpha virt. eigenvalues --    0.00893   0.01682   0.02064   0.02727   0.03307
 Alpha virt. eigenvalues --    0.03935   0.04293   0.04617   0.05450   0.05591

 Mulliken atomic charges:
              1
     1  O   -0.547249
     2  C   -0.009467
     3  C    0.214423
     4  O   -0.574882
     5  H    0.341439
     6  C    0.106852
     7  O   -0.579329
     8  H    0.411672
     9  C   -0.291734
    10  O   -0.541380
    11  H    0.346245
    12  C    0.109969
    13  O   -0.206896
    14  C    0.209315
    15  O   -0.288193
    16  C    0.031672
    17  C    0.252615
    18  O   -0.614935
    19  H    0.418749
    20  C    0.118282
    21  O   -0.539198
    22  H    0.342245
    23  C   -0.427426
    24  O   -0.552568
    25  H    0.359057
    26  C    0.172030
    27  O   -0.259803
    28  C    0.043281
    29  O   -0.522043
    30  H    0.334310
    31  H    0.130442
    32  H    0.127033
    33  H    0.115308
    34  H    0.121807
    35  H    0.103321
    36  H    0.150643
    37  H    0.141463
    38  H    0.335574
    39  H    0.151230
    40  H    0.135984
    41  H    0.125898
    42  H    0.118430
    43  H    0.110229
    44  H    0.130098
    45  H    0.145486
 Sum of Mulliken atomic charges =   0.00000

 Dipole moment (field-independent basis, Debye):
    X=              2.2861    Y=             -1.0500    Z=             -1.3254  Tot=              2.8435
 Quadrupole moment (field-independent basis, Debye-Ang):
   XX=           -113.7477   YY=           -137.3439   ZZ=           -140.1886
   XY=             15.7463   XZ=              1.8276   YZ=             -4.7023

  Exact polarizability: 236.847  -1.912 198.192   0.637  -0.129 144.587
 Approx polarizability: 277.835  -1.814 257.301   0.008  -0.357 239.234

 ******    6 imaginary frequencies (negative Signs) ******

                     1                      2                      3
                     A                      A                      A
 Frequencies --  -336.6913              -261.4164              -208.4290
 Red. masses --     1.6860                 1.6983                 1.2597
 Frc consts  --     0.1126                 0.0684                 0.0322
 IR Inten    --     2.0038                26.8221                65.9835
 Raman Activ --     0.0685                 0.1697                 0.9219

                     4                      5                      6
                     A                      A                      A
 Frequencies --  -204.9636               -85.2390               -71.7377
 Red. masses --     1.2137                 7.0331                 5.2472
 Frc consts  --     0.0300                 0.0301                 0.0159
 IR Inten    --   124.6594                 1.1201                 3.7980
 Raman Activ --     0.5561                 0.0185                 0.0857

                     7                      8                      9
                     A                      A                      A
 Frequencies --    18.0305                41.3485                65.3165
 Red. masses --     6.5626                 6.6446                 6.3030
 Frc consts  --     0.0013                 0.0067                 0.0158
 IR Inten    --     1.0076                 0.0498                 1.7624
 Raman Activ --     0.0685                 0.0822                 0.1554

                    10                     11                     12
                     A                      A                      A
 Frequencies --    74.5285                94.9986               109.3707
 Red. masses --     6.8444                 7.0869                 5.8937
 Frc consts  --     0.0224                 0.0377                 0.0415
 IR Inten    --     2.3888                 1.7379                 1.2169
 Raman Activ --     0.1656                 0.0612                 0.0620

                    13                     14                     15
                     A                      A                      A
 Frequencies --   141.5910               170.1906               178.8032
 Red. masses --     6.1788                 6.8101                 5.7889
 Frc consts  --     0.0730                 0.1162                 0.1090
 IR Inten    --     4.9976                 1.4286                 1.1023
 Raman Activ --     0.3976                 0.5503                 0.2173

                    16                     17                     18
                     A                      A                      A
 Frequencies --   200.8822               228.0458               253.2727
 Red. masses --     7.2807                 6.4181                 4.6159
 Frc consts  --     0.1731                 0.1967                 0.1745
 IR Inten    --     0.3246                 2.7681                20.6396
 Raman Activ --     2.8314                 0.4822                 0.2090

                    19                     20                     21
                     A                      A                      A
 Frequencies --   272.7384               289.9341               299.0624
 Red. masses --     5.2119                 4.7963                 5.5711
 Frc consts  --     0.2284                 0.2375                 0.2936
 IR Inten    --     3.6255                 1.3039                 2.6061
 Raman Activ --     0.3276                 0.5765                 0.9622

                    22                     23                     24
                     A                      A                      A
 Frequencies --   305.9781               311.1522               314.4100
 Red. masses --     6.0637                 4.7641                 5.2451
 Frc consts  --     0.3345                 0.2718                 0.3055
 IR Inten    --     2.1330                 5.3681                 1.3572
 Raman Activ --     3.4541                 0.2921                 3.2175

                    25                     26                     27
                     A                      A                      A
 Frequencies --   334.6477               368.5284               379.4419
 Red. masses --     6.4589                 5.4753                 6.5755
 Frc consts  --     0.4262                 0.4381                 0.5578
 IR Inten    --     6.0204                 8.5434                 1.4548
 Raman Activ --     3.9862                 0.3376                 1.9129

                    28                     29                     30
                     A                      A                      A
 Frequencies --   396.7170               414.5525               429.7061
 Red. masses --     5.8299                 4.6254                 5.9777
 Frc consts  --     0.5406                 0.4683                 0.6503
 IR Inten    --     4.0983                19.3689                 4.2061
 Raman Activ --     2.6727                 9.0905                 1.0288

                    31                     32                     33
                     A                      A                      A
 Frequencies --   451.4042               469.7323               489.6387
 Red. masses --     3.8277                 4.0111                 5.3812
 Frc consts  --     0.4595                 0.5215                 0.7601
 IR Inten    --     3.9499                 8.3694                13.8782
 Raman Activ --     0.5732                 4.9089                 0.7206

                    34                     35                     36
                     A                      A                      A
 Frequencies --   519.8135               530.9602               572.2698
 Red. masses --     2.9570                 4.5988                 3.4450
 Frc consts  --     0.4708                 0.7639                 0.6647
 IR Inten    --    12.2139                11.0254                13.0291
 Raman Activ --     1.8911                 3.0110                 1.0363

                    37                     38                     39
                     A                      A                      A
 Frequencies --   587.2560               606.5378               621.0589
 Red. masses --     2.9622                 4.7942                 4.0724
 Frc consts  --     0.6019                 1.0392                 0.9255
 IR Inten    --    41.4493                16.1322                 1.5292
 Raman Activ --     0.7281                 0.5655                 0.5243

                    40                     41                     42
                     A                      A                      A
 Frequencies --   626.3041               643.5272               694.3674
 Red. masses --     2.5636                 1.5787                 4.2110
 Frc consts  --     0.5925                 0.3852                 1.1962
 IR Inten    --    20.1908               112.8640                 1.9734
 Raman Activ --     0.6578                 2.0285                 0.9497

                    43                     44                     45
                     A                      A                      A
 Frequencies --   702.3047               718.5146               723.6397
 Red. masses --     1.1070                 1.0825                 1.0536
 Frc consts  --     0.3217                 0.3293                 0.3251
 IR Inten    --    92.5266                93.6177               107.7114
 Raman Activ --     1.9579                 1.3910                 2.0425

                    46                     47                     48
                     A                      A                      A
 Frequencies --   801.6060               831.5125               852.6322
 Red. masses --     1.1133                 1.0967                 1.7551
 Frc consts  --     0.4215                 0.4468                 0.7518
 IR Inten    --    55.4733               101.5511                 3.7014
 Raman Activ --     1.3304                 0.2888                 0.3545

                    49                     50                     51
                     A                      A                      A
 Frequencies --   866.9182               894.4672               944.6938
 Red. masses --     1.9935                 4.0465                 5.6578
 Frc consts  --     0.8827                 1.9075                 2.9750
 IR Inten    --    15.0517                73.0898                56.5627
 Raman Activ --     1.7482                 2.3850                 0.9541

                    52                     53                     54
                     A                      A                      A
 Frequencies --   965.4757               968.4112               984.9246
 Red. masses --     4.7200                 5.7356                 5.7587
 Frc consts  --     2.5923                 3.1692                 3.2914
 IR Inten    --    40.7494               164.7344                26.4535
 Raman Activ --     2.9377                 2.4724                 0.7502

                    55                     56                     57
                     A                      A                      A
 Frequencies --   997.3007              1002.8749              1011.4428
 Red. masses --     4.7042                 6.1733                 5.3986
 Frc consts  --     2.7567                 3.6581                 3.2540
 IR Inten    --   387.1832                23.8228               153.7270
 Raman Activ --     3.9758                 4.3075                 2.3459

                    58                     59                     60
                     A                      A                      A
 Frequencies --  1034.4827              1050.6126              1054.5733
 Red. masses --     6.6777                 4.8522                 3.9090
 Frc consts  --     4.2104                 3.1556                 2.5613
 IR Inten    --   377.9663                66.7807               121.2013
 Raman Activ --     2.5132                 2.3155                13.6916

                    61                     62                     63
                     A                      A                      A
 Frequencies --  1063.5016              1073.9784              1081.9340
 Red. masses --     4.0928                 3.9444                 2.4608
 Frc consts  --     2.7274                 2.6806                 1.6972
 IR Inten    --    38.8483                17.9651                 1.9337
 Raman Activ --     8.2972                 3.9825                 5.7110

                    64                     65                     66
                     A                      A                      A
 Frequencies --  1084.4993              1095.3947              1102.8652
 Red. masses --     3.6887                 2.6496                 2.9567
 Frc consts  --     2.5561                 1.8732                 2.1189
 IR Inten    --    29.3279                20.8588                14.6356
 Raman Activ --    12.9744                10.4465                 5.7103

                    67                     68                     69
                     A                      A                      A
 Frequencies --  1118.4981              1124.3911              1132.2264
 Red. masses --     2.9582                 2.7398                 3.0623
 Frc consts  --     2.1805                 2.0408                 2.3129
 IR Inten    --    41.5170                85.5277                58.8009
 Raman Activ --    12.9537                 2.5352                 2.6802

                    70                     71                     72
                     A                      A                      A
 Frequencies --  1139.3529              1144.3495              1152.0494
 Red. masses --     2.4504                 1.9871                 2.3496
 Frc consts  --     1.8742                 1.5332                 1.8373
 IR Inten    --    92.5702                 8.4780                 9.7208
 Raman Activ --     2.9529                 5.7234                 2.3575

                    73                     74                     75
                     A                      A                      A
 Frequencies --  1160.6087              1169.0195              1183.3801
 Red. masses --     2.0046                 1.6912                 1.2683
 Frc consts  --     1.5909                 1.3617                 1.0465
 IR Inten    --     5.8618                 4.3695                33.4673
 Raman Activ --     3.9812                 5.3409                 0.3360

                    76                     77                     78
                     A                      A                      A
 Frequencies --  1203.7349              1209.8570              1218.7186
 Red. masses --     1.4769                 1.2466                 1.3472
 Frc consts  --     1.2608                 1.0751                 1.1789
 IR Inten    --    10.4401                 2.0687                 1.4305
 Raman Activ --     2.4195                 2.8198                 2.1221

                    79                     80                     81
                     A                      A                      A
 Frequencies --  1228.8495              1244.7269              1269.6027
 Red. masses --     1.4622                 1.4323                 1.3266
 Frc consts  --     1.3009                 1.3075                 1.2599
 IR Inten    --     4.7164                19.4184                 8.9646
 Raman Activ --     1.4459                 0.4562                 1.0929

                    82                     83                     84
                     A                      A                      A
 Frequencies --  1272.8048              1277.1563              1286.6449
 Red. masses --     1.1870                 1.4785                 1.2925
 Frc consts  --     1.1330                 1.4208                 1.2607
 IR Inten    --     1.8302                 7.5285                 9.3637
 Raman Activ --     4.0767                 4.2866                 0.7129

                    85                     86                     87
                     A                      A                      A
 Frequencies --  1289.1949              1302.2738              1318.4405
 Red. masses --     1.3529                 1.4496                 1.1619
 Frc consts  --     1.3248                 1.4484                 1.1899
 IR Inten    --    52.1076                30.2633                36.3540
 Raman Activ --     1.3811                 2.6975                 7.7298

                    88                     89                     90
                     A                      A                      A
 Frequencies --  1324.0544              1326.6739              1342.2730
 Red. masses --     1.2225                 1.2702                 1.2512
 Frc consts  --     1.2628                 1.3172                 1.3282
 IR Inten    --    17.7458                28.1923                31.7087
 Raman Activ --     4.1430                 2.2268                 1.0693

                    91                     92                     93
                     A                      A                      A
 Frequencies --  1346.5936              1348.8501              1352.0650
 Red. masses --     1.3011                 1.3270                 1.2546
 Frc consts  --     1.3900                 1.4225                 1.3513
 IR Inten    --    15.9060                 3.3773                14.3203
 Raman Activ --     4.2519                11.7253                 8.1540

                    94                     95                     96
                     A                      A                      A
 Frequencies --  1359.4564              1366.4034              1374.6065
 Red. masses --     1.2284                 1.3591                 1.5407
 Frc consts  --     1.3376                 1.4950                 1.7153
 IR Inten    --    17.0354                39.1304                 8.1697
 Raman Activ --     1.8457                 3.5980                 5.0494

                    97                     98                     99
                     A                      A                      A
 Frequencies --  1383.5790              1389.7379              1415.9893
 Red. masses --     1.3802                 1.2502                 1.4274
 Frc consts  --     1.5567                 1.4227                 1.6862
 IR Inten    --     1.7789                19.0327                21.0048
 Raman Activ --     3.7973                 2.6177                 1.6055

                   100                    101                    102
                     A                      A                      A
 Frequencies --  1429.5391              1431.6054              1449.6570
 Red. masses --     1.3815                 1.3835                 1.1541
 Frc consts  --     1.6634                 1.6706                 1.4290
 IR Inten    --    32.1526                13.3726                 8.7035
 Raman Activ --     2.5731                 2.3872                 6.1380

                   103                    104                    105
                     A                      A                      A
 Frequencies --  1468.1244              1473.7439              1477.0754
 Red. masses --     1.1238                 1.0912                 1.3410
 Frc consts  --     1.4272                 1.3963                 1.7238
 IR Inten    --     4.9085                 2.4983                50.2081
 Raman Activ --     2.4474                 3.5265                 1.8265

                   106                    107                    108
                     A                      A                      A
 Frequencies --  1487.8442              1514.9566              3234.2555
 Red. masses --     1.3470                 1.2177                 1.0821
 Frc consts  --     1.7568                 1.6466                 6.6692
 IR Inten    --    14.5123                87.9183                10.9007
 Raman Activ --     1.1936                 6.8981                15.4802

                   109                    110                    111
                     A                      A                      A
 Frequencies --  3250.0036              3255.4104              3257.8736
 Red. masses --     1.0581                 1.0749                 1.0634
 Frc consts  --     6.5846                 6.7120                 6.6497
 IR Inten    --    92.5618                27.7712                 7.0384
 Raman Activ --    69.7574                37.0403               145.9151

                   112                    113                    114
                     A                      A                      A
 Frequencies --  3263.1460              3275.1965              3277.0104
 Red. masses --     1.0758                 1.0751                 1.0824
 Frc consts  --     6.7492                 6.7950                 6.8485
 IR Inten    --   218.7453               217.7609                44.3541
 Raman Activ --   203.4444               119.5926                59.1572

                   115                    116                    117
                     A                      A                      A
 Frequencies --  3284.1899              3287.6012              3290.4679
 Red. masses --     1.0816                 1.0816                 1.0864
 Frc consts  --     6.8736                 6.8878                 6.9301
 IR Inten    --   197.3923               117.2831                23.2112
 Raman Activ --    12.4921               185.8908                69.0369

                   118                    119                    120
                     A                      A                      A
 Frequencies --  3296.6269              3298.3519              3299.7062
 Red. masses --     1.0822                 1.0810                 1.0863
 Frc consts  --     6.9293                 6.9291                 6.9687
 IR Inten    --   254.4195               382.8913               139.5134
 Raman Activ --    30.9392                43.2041                13.2377

                   121                    122                    123
                     A                      A                      A
 Frequencies --  3307.7795              3310.9491              3315.5013
 Red. masses --     1.1035                 1.0882                 1.1029
 Frc consts  --     7.1134                 7.0284                 7.1432
 IR Inten    --    35.5316                43.3650                64.1908
 Raman Activ --    57.2982                48.7035                28.5291

                   124                    125                    126
                     A                      A                      A
 Frequencies --  3368.4806              3372.4985              3372.9562
 Red. masses --     1.0657                 1.0666                 1.0695
 Frc consts  --     7.1243                 7.1477                 7.1690
 IR Inten    --    37.7747                62.1262                69.1338
 Raman Activ --   125.2914               100.2630               169.6398

                   127                    128                    129
                     A                      A                      A
 Frequencies --  3373.5448              3887.0740              3892.2827
 Red. masses --     1.0671                 1.0675                 1.0674
 Frc consts  --     7.1550                 9.5030                 9.5276
 IR Inten    --    54.0424                61.8263                73.7373
 Raman Activ --   173.4992                95.3346               124.3995

 - Thermochemistry -
 -------------------
 Temperature   298.150 Kelvin.  Pressure   1.00000 Atm.
 Atom     1 has atomic number  8 and mass  15.99491

 Molecular mass:   342.11621 amu.
 Principal axes and moments of inertia in atomic units:
                           1         2         3
     Eigenvalues --  4457.75766********************
           X            0.99997   0.00832  -0.00014
           Y           -0.00832   0.99997  -0.00059
           Z            0.00014   0.00060   1.00000
 This molecule is an asymmetric top.
 Rotational symmetry number  1.
 Warning -- assumption of classical behavior for rotation
           may cause significant error
 Rotational temperatures (Kelvin)      0.01943     0.00686     0.00522
 Rotational constants (GHZ):           0.40485     0.14295     0.10874
    6 imaginary frequencies ignored.
 Zero-point vibrational energy     973128.0 (Joules/Mol)
                                  232.58317 (Kcal/Mol)
 Warning -- explicit consideration of  32 degrees of freedom as
           vibrations may cause significant error
 Vibrational temperatures:     25.94    59.49    93.98   107.23   136.68
          (Kelvin)            157.36   203.72   244.87   257.26   289.02
                              328.11   364.40   392.41   417.15   430.28
                              440.23   447.68   452.37   481.48   530.23
                              545.93   570.79   596.45   618.25   649.47
                              675.84   704.48   747.89   763.93   823.37
                              844.93   872.67   893.56   901.11   925.89
                              999.04  1010.46  1033.78  1041.15  1153.33
                             1196.36  1226.75  1247.30  1286.94  1359.20
                             1389.10  1393.33  1417.09  1434.89  1442.91
                             1455.24  1488.39  1511.60  1517.29  1530.14
                             1545.21  1556.66  1560.35  1576.03  1586.77
                             1609.27  1617.75  1629.02  1639.27  1646.46
                             1657.54  1669.85  1681.96  1702.62  1731.90
                             1740.71  1753.46  1768.04  1790.88  1826.67
                             1831.28  1837.54  1851.19  1854.86  1873.68
                             1896.94  1905.02  1908.79  1931.23  1937.45
                             1940.69  1945.32  1955.95  1965.95  1977.75
                             1990.66  1999.52  2037.29  2056.79  2059.76
                             2085.73  2112.30  2120.39  2125.18  2140.67
                             2179.68  4653.37  4676.02  4683.80  4687.35
                             4694.93  4712.27  4714.88  4725.21  4730.12
                             4734.24  4743.10  4745.59  4747.54  4759.15
                             4763.71  4770.26  4846.49  4852.27  4852.93
                             4853.77  5592.63  5600.12

 Zero-point correction=                           0.370645 (Hartree/Particle)
 Thermal correction to Energy=                    0.390051
 Thermal correction to Enthalpy=                  0.390995
 Thermal correction to Gibbs Free Energy=         0.322419
 Sum of electronic and zero-point Energies=          -1297.582002
 Sum of electronic and thermal Energies=             -1297.562596
 Sum of electronic and thermal Enthalpies=           -1297.561652
 Sum of electronic and thermal Free Energies=        -1297.630228

                     E (Thermal)             CV                S
                      KCal/Mol        Cal/Mol-Kelvin    Cal/Mol-Kelvin
 Total                  244.761             78.257            144.331
 Electronic               0.000              0.000              0.000
 Translational            0.889              2.981             43.384
 Rotational               0.889              2.981             35.189
 Vibrational            242.983             72.296             65.757
 Vibration     1          0.593              1.986              6.840
 Vibration     2          0.594              1.981              5.193
 Vibration     3          0.597              1.971              4.290
 Vibration     4          0.599              1.966              4.030
 Vibration     5          0.603              1.953              3.554
 Vibration     6          0.606              1.942              3.280
 Vibration     7          0.615              1.912              2.782
 Vibration     8          0.625              1.879              2.433
 Vibration     9          0.629              1.868              2.341
 Vibration    10          0.638              1.839              2.125
 Vibration    11          0.651              1.798              1.894
 Vibration    12          0.664              1.757              1.708
 Vibration    13          0.676              1.724              1.579
 Vibration    14          0.686              1.692              1.474
 Vibration    15          0.692              1.675              1.422
 Vibration    16          0.696              1.662              1.384
 Vibration    17          0.700              1.652              1.356
 Vibration    18          0.702              1.646              1.339
 Vibration    19          0.716              1.606              1.238
 Vibration    20          0.741              1.537              1.086
 Vibration    21          0.749              1.514              1.041
 Vibration    22          0.763              1.477              0.975
 Vibration    23          0.778              1.439              0.911
 Vibration    24          0.791              1.406              0.860
 Vibration    25          0.810              1.358              0.792
 Vibration    26          0.827              1.317              0.738
 Vibration    27          0.845              1.273              0.685
 Vibration    28          0.875              1.206              0.610
 Vibration    29          0.886              1.182              0.585
 Vibration    30          0.928              1.091              0.500
 Vibration    31          0.944              1.059              0.472
 Vibration    32          0.965              1.018              0.439

 Normal termination of Gaussian 09 at Fri Apr  1 10:53:14 2016.
