 Gaussian 09, Revision B.01,
 Gaussian 09:  EM64L-G09RevB.01 12-Aug-2010

 -------------------------------------------------
 # freq=raman b3lyp/6-31+g(2d,p) geom=connectivity
 -------------------------------------------------

 -----------------
 450 6760/6760.com
 -----------------
 Symbolic Z-matrix:
 Charge =  0 Multiplicity = 1

                         Standard orientation:
 ---------------------------------------------------------------------
 Center     Atomic      Atomic             Coordinates (Angstroms)
 Number     Number       Type             X           Y           Z
 ---------------------------------------------------------------------
      1          8           0       -4.946949   -0.318686    1.081481
      2          6           0       -3.919559   -0.054216    0.115277
      3          6           0       -3.271375    1.304715    0.319450
      4          8           0       -4.292442    2.242629   -0.050695
      5          1           0       -5.094746    1.857918    0.405940
      6          6           0       -1.961925    1.619727   -0.385655
      7          8           0       -1.392634    2.768708    0.259370
      8          1           0       -2.198076    3.355769    0.341784
      9          6           0       -3.304716   -2.487687   -0.309177
     10          8           0       -2.314318   -3.492481   -0.573640
     11          1           0       -2.852735   -4.331651   -0.652312
     12          6           0       -2.820968   -1.105188    0.094738
     13          8           0       -1.722412   -0.687721   -0.730182
     14          6           0       -1.042250    0.433406   -0.149147
     15          8           0        0.223018    0.498365   -0.821680
     16          6           0        1.324268    0.223379    0.056643
     17          6           0        1.795496   -1.208448   -0.143884
     18          8           0        0.823343   -2.216672    0.166971
     19          1           0        0.013316   -2.217177   -0.419215
     20          6           0        3.137019   -1.428671    0.536095
     21          8           0        3.427559   -2.819969    0.337316
     22          1           0        2.561230   -3.136807    0.723923
     23          6           0        2.116208    2.581400    0.186887
     24          8           0        3.021628    3.595405   -0.272707
     25          1           0        3.078731    3.549427   -1.270309
     26          6           0        2.442686    1.183823   -0.314855
     27          8           0        3.718795    0.804903    0.221112
     28          6           0        4.198280   -0.517506   -0.061541
     29          8           0        5.537909   -0.753777    0.395044
     30          1           0        6.157737   -0.309150   -0.187811
     31          1           0        2.132796    2.570747    1.256706
     32          1           0        1.128480    2.836194   -0.136182
     33          1           0        2.519924    1.216035   -1.381577
     34          1           0        1.030741    0.375810    1.074241
     35          1           0        1.983169   -1.305896   -1.192780
     36          1           0        3.043643   -1.229372    1.583215
     37          1           0        4.187361   -0.652066   -1.122990
     38          1           0       -5.741314    0.165532    0.844591
     39          1           0       -3.901112   -2.378847   -1.190860
     40          1           0       -3.937194   -2.852356    0.473056
     41          1           0       -2.448425   -1.185517    1.094568
     42          1           0       -4.380449   -0.050495   -0.850366
     43          1           0       -3.097353    1.417602    1.369151
     44          1           0       -2.113770    1.793600   -1.430457
     45          1           0       -0.898910    0.276680    0.899563
 ---------------------------------------------------------------------

 SCF Done:  E(RB3LYP) =  -1297.98652431     A.U. after   13 cycles

 The electronic state is 1-A.
 Alpha  occ. eigenvalues --  -19.20356 -19.19168 -19.18719 -19.18333 -19.17759
 Alpha  occ. eigenvalues --  -19.17549 -19.16459 -19.15974 -19.15644 -19.14683
 Alpha  occ. eigenvalues --  -19.14031 -10.31217 -10.29305 -10.27428 -10.26955
 Alpha  occ. eigenvalues --  -10.26610 -10.26441 -10.25302 -10.25125 -10.24671
 Alpha  occ. eigenvalues --  -10.24225 -10.23817 -10.22428  -1.10447  -1.08724
 Alpha  occ. eigenvalues --   -1.06923  -1.06196  -1.04962  -1.04207  -1.03855
 Alpha  occ. eigenvalues --   -1.03299  -1.01907  -1.00615  -1.00400  -0.82702
 Alpha  occ. eigenvalues --   -0.81670  -0.79074  -0.78049  -0.72221  -0.69564
 Alpha  occ. eigenvalues --   -0.67913  -0.65052  -0.63575  -0.63152  -0.62033
 Alpha  occ. eigenvalues --   -0.60101  -0.58227  -0.56504  -0.55248  -0.54908
 Alpha  occ. eigenvalues --   -0.54099  -0.53873  -0.53186  -0.51922  -0.51347
 Alpha  occ. eigenvalues --   -0.50136  -0.49239  -0.48880  -0.48206  -0.47152
 Alpha  occ. eigenvalues --   -0.46224  -0.45796  -0.45592  -0.44273  -0.43760
 Alpha  occ. eigenvalues --   -0.43590  -0.42876  -0.41441  -0.40703  -0.40133
 Alpha  occ. eigenvalues --   -0.39662  -0.38177  -0.37595  -0.37071  -0.36494
 Alpha  occ. eigenvalues --   -0.36207  -0.35486  -0.35232  -0.34768  -0.34132
 Alpha  occ. eigenvalues --   -0.32597  -0.31802  -0.31768  -0.30931  -0.30528
 Alpha  occ. eigenvalues --   -0.29893  -0.29387  -0.28793  -0.27135  -0.26878
 Alpha  occ. eigenvalues --   -0.26263
 Alpha virt. eigenvalues --   -0.04646  -0.02233  -0.00631  -0.00307   0.00420
 Alpha virt. eigenvalues --    0.01345   0.01533   0.01777   0.02762   0.03370
 Alpha virt. eigenvalues --    0.03615   0.04258   0.04919   0.05070   0.05525

 Mulliken atomic charges:
              1
     1  O   -0.514325
     2  C   -0.203914
     3  C    0.286505
     4  O   -0.534856
     5  H    0.292758
     6  C   -0.030357
     7  O   -0.535887
     8  H    0.358734
     9  C   -0.440761
    10  O   -0.499567
    11  H    0.341361
    12  C    0.349394
    13  O   -0.278254
    14  C    0.188651
    15  O   -0.245512
    16  C    0.451511
    17  C    0.100397
    18  O   -0.593836
    19  H    0.386494
    20  C   -0.034636
    21  O   -0.500776
    22  H    0.351870
    23  C   -0.248498
    24  O   -0.479112
    25  H    0.310691
    26  C   -0.228309
    27  O   -0.277536
    28  C    0.276507
    29  O   -0.522188
    30  H    0.325971
    31  H    0.148444
    32  H    0.175102
    33  H    0.103149
    34  H    0.101491
    35  H    0.116831
    36  H    0.124658
    37  H    0.109922
    38  H    0.316749
    39  H    0.133613
    40  H    0.159615
    41  H    0.115718
    42  H    0.136063
    43  H    0.142519
    44  H    0.143486
    45  H    0.120120
 Sum of Mulliken atomic charges =   0.00000

 Dipole moment (field-independent basis, Debye):
    X=             -8.7688    Y=             -0.1001    Z=             -1.5546  Tot=              8.9061
 Quadrupole moment (field-independent basis, Debye-Ang):
   XX=           -121.5330   YY=           -149.9716   ZZ=           -136.3079
   XY=              9.4359   XZ=            -13.2977   YZ=             -1.2435

  Exact polarizability: 226.488  -0.159 197.118  -2.603  -0.436 145.073
 Approx polarizability: 272.076   0.830 255.835  -2.663  -0.761 242.324

 ******    7 imaginary frequencies (negative Signs) ******

                     1                      2                      3
                     A                      A                      A
 Frequencies --  -272.3856              -257.2605              -192.6012
 Red. masses --     1.7586                 1.2903                 1.1247
 Frc consts  --     0.0769                 0.0503                 0.0246
 IR Inten    --     2.8773                82.3320               105.8837
 Raman Activ --     0.1199                 0.6331                 1.1662

                     4                      5                      6
                     A                      A                      A
 Frequencies --  -136.5715               -93.6821               -52.8929
 Red. masses --     1.9165                 5.4951                 5.6618
 Frc consts  --     0.0211                 0.0284                 0.0093
 IR Inten    --     8.3807                 3.9690                 2.2377
 Raman Activ --     0.1864                 0.0712                 0.0428

                     7                      8                      9
                     A                      A                      A
 Frequencies --   -31.3345                27.1171                43.1778
 Red. masses --     5.8103                 6.3581                 6.9068
 Frc consts  --     0.0034                 0.0028                 0.0076
 IR Inten    --     0.2450                 1.3203                 0.3819
 Raman Activ --     0.0591                 0.0631                 0.0838

                    10                     11                     12
                     A                      A                      A
 Frequencies --    59.3861                89.3172               102.4206
 Red. masses --     6.3779                 6.9330                 5.7882
 Frc consts  --     0.0133                 0.0326                 0.0358
 IR Inten    --     1.0065                 1.9034                 3.2648
 Raman Activ --     0.1131                 0.1126                 0.3432

                    13                     14                     15
                     A                      A                      A
 Frequencies --   142.1193               150.8898               172.7544
 Red. masses --     6.1542                 5.5998                 6.1801
 Frc consts  --     0.0732                 0.0751                 0.1087
 IR Inten    --     2.2370                 0.6280                 1.1423
 Raman Activ --     0.3344                 0.1016                 0.5159

                    16                     17                     18
                     A                      A                      A
 Frequencies --   208.5834               213.0737               244.9133
 Red. masses --     5.8729                 5.2046                 5.1385
 Frc consts  --     0.1505                 0.1392                 0.1816
 IR Inten    --     5.4052                 1.0305                 3.7896
 Raman Activ --     1.5499                 0.9010                 0.6443

                    19                     20                     21
                     A                      A                      A
 Frequencies --   273.5887               279.2290               298.7170
 Red. masses --     5.5435                 6.4409                 4.4841
 Frc consts  --     0.2445                 0.2959                 0.2357
 IR Inten    --     2.9992                 7.4423                11.3751
 Raman Activ --     0.0515                 0.6321                 0.8881

                    22                     23                     24
                     A                      A                      A
 Frequencies --   313.4716               328.7065               331.6083
 Red. masses --     4.7761                 6.2627                 5.4147
 Frc consts  --     0.2765                 0.3987                 0.3508
 IR Inten    --     8.3318                 5.3798                 3.7359
 Raman Activ --     1.9382                 3.7309                 2.4795

                    25                     26                     27
                     A                      A                      A
 Frequencies --   358.9447               360.3455               388.8964
 Red. masses --     5.3896                 4.8796                 4.0591
 Frc consts  --     0.4091                 0.3733                 0.3617
 IR Inten    --     7.7086                15.0272                 8.0920
 Raman Activ --     0.2969                 0.4331                 3.2870

                    28                     29                     30
                     A                      A                      A
 Frequencies --   414.8284               425.7049               432.4734
 Red. masses --     7.3139                 4.6878                 5.4038
 Frc consts  --     0.7415                 0.5005                 0.5955
 IR Inten    --     1.4074                 1.6216                 7.4614
 Raman Activ --     5.4624                 0.7188                 3.0048

                    31                     32                     33
                     A                      A                      A
 Frequencies --   443.5158               471.1003               496.3311
 Red. masses --     4.4846                 4.4146                 4.1922
 Frc consts  --     0.5197                 0.5773                 0.6085
 IR Inten    --    16.0515                 5.4645                 7.5582
 Raman Activ --     2.0539                 0.5558                 1.1438

                    34                     35                     36
                     A                      A                      A
 Frequencies --   523.9191               538.3555               556.8655
 Red. masses --     4.3454                 4.6116                 4.0119
 Frc consts  --     0.7028                 0.7875                 0.7330
 IR Inten    --    16.4030                 8.1035                18.0519
 Raman Activ --     7.2840                 1.0138                 3.6580

                    37                     38                     39
                     A                      A                      A
 Frequencies --   597.2074               601.1577               612.8743
 Red. masses --     3.5610                 2.9362                 3.3557
 Frc consts  --     0.7483                 0.6252                 0.7426
 IR Inten    --    15.3745                27.8487                 1.7505
 Raman Activ --     0.4816                 0.3466                 0.1335

                    40                     41                     42
                     A                      A                      A
 Frequencies --   647.0686               661.6322               696.6960
 Red. masses --     3.9234                 3.6002                 1.0790
 Frc consts  --     0.9679                 0.9286                 0.3086
 IR Inten    --    18.4647                21.1133               102.7144
 Raman Activ --     0.3743                 0.3381                 1.0028

                    43                     44                     45
                     A                      A                      A
 Frequencies --   706.2007               714.9164               735.4675
 Red. masses --     1.1136                 1.0981                 1.1326
 Frc consts  --     0.3272                 0.3307                 0.3609
 IR Inten    --   131.8809                83.4717                92.5309
 Raman Activ --     2.1576                 1.5884                 1.0502

                    46                     47                     48
                     A                      A                      A
 Frequencies --   749.8405               774.6986               833.3365
 Red. masses --     1.1420                 1.0985                 2.6313
 Frc consts  --     0.3783                 0.3884                 1.0766
 IR Inten    --   135.6622                97.7104                 3.4809
 Raman Activ --     2.9694                 1.2040                 1.5120

                    49                     50                     51
                     A                      A                      A
 Frequencies --   848.6492               939.0057               945.0122
 Red. masses --     2.5582                 6.3456                 6.3972
 Frc consts  --     1.0855                 3.2965                 3.3660
 IR Inten    --     8.1678               251.2082               106.9437
 Raman Activ --     3.6009                 1.4483                 1.7512

                    52                     53                     54
                     A                      A                      A
 Frequencies --   980.4153               984.5064              1000.3588
 Red. masses --     4.7987                 5.4602                 5.5702
 Frc consts  --     2.7177                 3.1182                 3.2842
 IR Inten    --    77.8383                69.5788               125.7111
 Raman Activ --     3.8049                 1.5007                 2.4643

                    55                     56                     57
                     A                      A                      A
 Frequencies --  1004.7509              1006.5983              1024.2010
 Red. masses --     7.5653                 4.4902                 4.4806
 Frc consts  --     4.4998                 2.6806                 2.7692
 IR Inten    --   304.3356                51.7675               215.7394
 Raman Activ --     0.3637                 1.8409                 4.2335

                    58                     59                     60
                     A                      A                      A
 Frequencies --  1038.3322              1046.4247              1056.0119
 Red. masses --     2.6039                 3.1011                 5.2928
 Frc consts  --     1.6540                 2.0007                 3.4776
 IR Inten    --    75.5885               200.7203                51.0825
 Raman Activ --     1.0210                 2.9600                 7.6124

                    61                     62                     63
                     A                      A                      A
 Frequencies --  1057.4274              1065.9827              1081.6729
 Red. masses --     5.6425                 3.8595                 4.0590
 Frc consts  --     3.7173                 2.5839                 2.7981
 IR Inten    --    65.5474                49.9206                92.5097
 Raman Activ --     5.8075                 2.4325                15.6600

                    64                     65                     66
                     A                      A                      A
 Frequencies --  1089.8594              1096.0814              1105.7021
 Red. masses --     2.7799                 3.6169                 2.5084
 Frc consts  --     1.9455                 2.5602                 1.8069
 IR Inten    --    56.0561                 0.7765                67.0190
 Raman Activ --     3.3237                 6.8063                 6.5090

                    67                     68                     69
                     A                      A                      A
 Frequencies --  1111.4510              1116.2173              1127.4717
 Red. masses --     2.5299                 1.8469                 3.1498
 Frc consts  --     1.8413                 1.3558                 2.3591
 IR Inten    --    14.5995                19.6812                 7.1144
 Raman Activ --     4.1646                 3.0440                 4.2396

                    70                     71                     72
                     A                      A                      A
 Frequencies --  1138.8391              1145.2537              1152.4024
 Red. masses --     2.4286                 2.9211                 1.7267
 Frc consts  --     1.8558                 2.2573                 1.3511
 IR Inten    --     1.2748               102.0692                 6.5052
 Raman Activ --     1.7252                 3.8327                 1.7771

                    73                     74                     75
                     A                      A                      A
 Frequencies --  1157.3959              1168.8752              1184.1386
 Red. masses --     2.2973                 2.4487                 1.5472
 Frc consts  --     1.8132                 1.9711                 1.2782
 IR Inten    --     5.7039                 6.4008                 2.8572
 Raman Activ --     2.5772                 2.2819                 0.8039

                    76                     77                     78
                     A                      A                      A
 Frequencies --  1198.3499              1219.2648              1237.5486
 Red. masses --     1.6075                 1.3538                 1.2178
 Frc consts  --     1.3601                 1.1858                 1.0988
 IR Inten    --     1.5756                 5.2905                20.0462
 Raman Activ --     5.8426                 1.0823                 1.2512

                    79                     80                     81
                     A                      A                      A
 Frequencies --  1241.1455              1251.9616              1255.0326
 Red. masses --     1.2707                 1.2604                 1.2738
 Frc consts  --     1.1532                 1.1640                 1.1822
 IR Inten    --     6.1656                 0.3974                 5.5543
 Raman Activ --     3.5070                 0.5678                 1.5933

                    82                     83                     84
                     A                      A                      A
 Frequencies --  1277.1657              1283.9110              1289.7613
 Red. masses --     1.2501                 1.2480                 1.1944
 Frc consts  --     1.2014                 1.2121                 1.1707
 IR Inten    --     3.2958                 7.3318                 6.8532
 Raman Activ --     1.7242                 1.2690                 5.3963

                    85                     86                     87
                     A                      A                      A
 Frequencies --  1291.6220              1294.8435              1305.4139
 Red. masses --     1.2091                 1.2950                 1.2329
 Frc consts  --     1.1885                 1.2792                 1.2379
 IR Inten    --     6.4016                37.1141                22.4978
 Raman Activ --     1.9950                 2.4200                 6.3208

                    88                     89                     90
                     A                      A                      A
 Frequencies --  1313.2701              1318.9807              1324.3385
 Red. masses --     1.3320                 1.3673                 1.3595
 Frc consts  --     1.3535                 1.4015                 1.4048
 IR Inten    --    22.6761                16.0025                 2.6953
 Raman Activ --     2.9084                 4.3686                 3.9491

                    91                     92                     93
                     A                      A                      A
 Frequencies --  1334.9356              1345.0786              1352.5175
 Red. masses --     1.3137                 1.2659                 1.3146
 Frc consts  --     1.3793                 1.3494                 1.4168
 IR Inten    --     4.9329                11.8908                57.8176
 Raman Activ --     4.5706                 2.2573                 3.5426

                    94                     95                     96
                     A                      A                      A
 Frequencies --  1355.2246              1366.0755              1372.4330
 Red. masses --     1.3844                 1.4983                 1.2367
 Frc consts  --     1.4981                 1.6474                 1.3725
 IR Inten    --    42.2828                 1.1612                15.6145
 Raman Activ --     1.2331                 1.8456                 6.9985

                    97                     98                     99
                     A                      A                      A
 Frequencies --  1402.7377              1405.9269              1407.3327
 Red. masses --     1.2308                 1.4744                 1.5239
 Frc consts  --     1.4269                 1.7171                 1.7783
 IR Inten    --     5.5998                 3.0527                 7.8647
 Raman Activ --     5.6281                12.2520                 2.6698

                   100                    101                    102
                     A                      A                      A
 Frequencies --  1416.1730              1444.6660              1461.5830
 Red. masses --     1.4126                 1.1578                 1.1123
 Frc consts  --     1.6692                 1.4237                 1.3999
 IR Inten    --    15.7573                84.6195                 7.0751
 Raman Activ --     0.8787                 2.9818                 4.6729

                   103                    104                    105
                     A                      A                      A
 Frequencies --  1463.5747              1485.1189              1489.8860
 Red. masses --     1.0732                 1.3338                 1.3580
 Frc consts  --     1.3544                 1.7333                 1.7760
 IR Inten    --     3.1271                23.2556                31.5147
 Raman Activ --     5.5771                 2.5070                 1.9008

                   106                    107                    108
                     A                      A                      A
 Frequencies --  1507.0311              1570.7156              3256.6330
 Red. masses --     1.3290                 1.2358                 1.0598
 Frc consts  --     1.7784                 1.7964                 6.6222
 IR Inten    --    91.6303                78.1415                39.2036
 Raman Activ --     1.8887                 1.4998               109.3426

                   109                    110                    111
                     A                      A                      A
 Frequencies --  3263.1091              3264.2471              3268.0076
 Red. masses --     1.0834                 1.0804                 1.0812
 Frc consts  --     6.7966                 6.7828                 6.8032
 IR Inten    --    12.3576                 3.0049                 4.4417
 Raman Activ --     0.6958                50.3338                12.4908

                   112                    113                    114
                     A                      A                      A
 Frequencies --  3270.2748              3273.6518              3275.7314
 Red. masses --     1.0823                 1.0820                 1.0669
 Frc consts  --     6.8200                 6.8320                 6.7449
 IR Inten    --    21.8893                 1.8933                 5.1249
 Raman Activ --   190.5423                 8.4792               198.7890

                   115                    116                    117
                     A                      A                      A
 Frequencies --  3279.6638              3286.3363              3288.5275
 Red. masses --     1.0777                 1.0853                 1.0858
 Frc consts  --     6.8300                 6.9058                 6.9184
 IR Inten    --    11.6625                21.3908                 7.4053
 Raman Activ --    36.6734                24.6045                23.7904

                   118                    119                    120
                     A                      A                      A
 Frequencies --  3296.0573              3307.0411              3312.2968
 Red. masses --     1.0857                 1.0872                 1.1037
 Frc consts  --     6.9495                 7.0058                 7.1343
 IR Inten    --    75.3141                24.8443                51.0264
 Raman Activ --    36.1895                22.2453                48.8279

                   121                    122                    123
                     A                      A                      A
 Frequencies --  3337.1275              3350.9353              3353.9337
 Red. masses --     1.1020                 1.0641                 1.0645
 Frc consts  --     7.2307                 7.0399                 7.0548
 IR Inten    --    20.1289               110.5408                20.1742
 Raman Activ --    57.0003                69.4486                96.2439

                   124                    125                    126
                     A                      A                      A
 Frequencies --  3363.2055              3363.9725              3366.0279
 Red. masses --     1.0715                 1.0664                 1.0680
 Frc consts  --     7.1409                 7.1100                 7.1292
 IR Inten    --    13.8842                51.0887               179.5226
 Raman Activ --    63.1365                63.9853               104.2143

                   127                    128                    129
                     A                      A                      A
 Frequencies --  3370.7556              3872.6736              3890.4880
 Red. masses --     1.0664                 1.0673                 1.0670
 Frc consts  --     7.1390                 9.4310                 9.5152
 IR Inten    --    55.7262                41.4900                73.0318
 Raman Activ --   166.1259               105.7175               125.9127

 - Thermochemistry -
 -------------------
 Temperature   298.150 Kelvin.  Pressure   1.00000 Atm.
 Atom     1 has atomic number  8 and mass  15.99491

 Molecular mass:   342.11621 amu.
 Principal axes and moments of inertia in atomic units:
                           1         2         3
     Eigenvalues --  4693.85032********************
           X            0.99997   0.00673  -0.00291
           Y           -0.00673   0.99998   0.00069
           Z            0.00291  -0.00067   1.00000
 This molecule is an asymmetric top.
 Rotational symmetry number  1.
 Warning -- assumption of classical behavior for rotation
           may cause significant error
 Rotational temperatures (Kelvin)      0.01845     0.00725     0.00540
 Rotational constants (GHZ):           0.38449     0.15102     0.11245
    7 imaginary frequencies ignored.
 Zero-point vibrational energy     974291.4 (Joules/Mol)
                                  232.86124 (Kcal/Mol)
 Warning -- explicit consideration of  32 degrees of freedom as
           vibrations may cause significant error
 Vibrational temperatures:     39.02    62.12    85.44   128.51   147.36
          (Kelvin)            204.48   217.10   248.55   300.10   306.57
                              352.38   393.63   401.75   429.79   451.02
                              472.93   477.11   516.44   518.46   559.53
                              596.84   612.49   622.23   638.12   677.81
                              714.11   753.80   774.57   801.20   859.25
                              864.93   881.79   930.99   951.94  1002.39
                             1016.06  1028.60  1058.17  1078.85  1114.62
                             1198.98  1221.02  1351.02  1359.66  1410.60
                             1416.48  1439.29  1445.61  1448.27  1473.59
                             1493.93  1505.57  1519.36  1521.40  1533.71
                             1556.28  1568.06  1577.01  1590.86  1599.13
                             1605.99  1622.18  1638.53  1647.76  1658.05
                             1665.23  1681.75  1703.71  1724.16  1754.25
                             1780.55  1785.73  1801.29  1805.71  1837.55
                             1847.26  1855.68  1858.35  1862.99  1878.20
                             1889.50  1897.72  1905.43  1920.67  1935.27
                             1945.97  1949.86  1965.48  1974.62  2018.22
                             2022.81  2024.84  2037.55  2078.55  2102.89
                             2105.75  2136.75  2143.61  2168.28  2259.91
                             4685.56  4694.88  4696.52  4701.93  4705.19
                             4710.05  4713.04  4718.70  4728.30  4731.45
                             4742.29  4758.09  4765.65  4801.38  4821.24
                             4825.56  4838.90  4840.00  4842.96  4849.76
                             5571.91  5597.54

 Zero-point correction=                           0.371088 (Hartree/Particle)
 Thermal correction to Energy=                    0.389693
 Thermal correction to Enthalpy=                  0.390638
 Thermal correction to Gibbs Free Energy=         0.324201
 Sum of electronic and zero-point Energies=          -1297.615436
 Sum of electronic and thermal Energies=             -1297.596831
 Sum of electronic and thermal Enthalpies=           -1297.595887
 Sum of electronic and thermal Free Energies=        -1297.662324

                     E (Thermal)             CV                S
                      KCal/Mol        Cal/Mol-Kelvin    Cal/Mol-Kelvin
 Total                  244.536             76.175            139.829
 Electronic               0.000              0.000              0.000
 Translational            0.889              2.981             43.384
 Rotational               0.889              2.981             35.153
 Vibrational            242.759             70.214             61.291
 Vibration     1          0.593              1.984              6.030
 Vibration     2          0.595              1.980              5.108
 Vibration     3          0.597              1.974              4.477
 Vibration     4          0.602              1.957              3.675
 Vibration     5          0.604              1.947              3.408
 Vibration     6          0.616              1.911              2.775
 Vibration     7          0.618              1.902              2.661
 Vibration     8          0.626              1.876              2.405
 Vibration     9          0.642              1.828              2.056
 Vibration    10          0.644              1.821              2.017
 Vibration    11          0.660              1.771              1.767
 Vibration    12          0.676              1.722              1.573
 Vibration    13          0.680              1.712              1.538
 Vibration    14          0.692              1.676              1.424
 Vibration    15          0.701              1.648              1.344
 Vibration    16          0.712              1.618              1.266
 Vibration    17          0.714              1.612              1.252
 Vibration    18          0.734              1.557              1.127
 Vibration    19          0.735              1.554              1.121
 Vibration    20          0.757              1.494              1.004
 Vibration    21          0.778              1.438              0.910
 Vibration    22          0.788              1.414              0.873
 Vibration    23          0.793              1.399              0.851
 Vibration    24          0.803              1.375              0.816
 Vibration    25          0.828              1.314              0.734
 Vibration    26          0.852              1.258              0.667
 Vibration    27          0.879              1.197              0.601
 Vibration    28          0.893              1.165              0.569
 Vibration    29          0.912              1.125              0.530
 Vibration    30          0.955              1.038              0.454
 Vibration    31          0.959              1.029              0.448
 Vibration    32          0.972              1.005              0.428

 Normal termination of Gaussian 09 at Mon Mar 28 10:18:17 2016.
