 Gaussian 09, Revision B.01,
 Gaussian 09:  EM64L-G09RevB.01 12-Aug-2010

 -------------------------------------------------
 # freq=raman b3lyp/6-31+g(2d,p) geom=connectivity
 -------------------------------------------------

 -----------------
 500 5480/5480.com
 -----------------
 Symbolic Z-matrix:
 Charge =  0 Multiplicity = 1

                         Standard orientation:
 ---------------------------------------------------------------------
 Center     Atomic      Atomic             Coordinates (Angstroms)
 Number     Number       Type             X           Y           Z
 ---------------------------------------------------------------------
      1          8           0        5.148378   -0.552559   -0.552407
      2          6           0        3.887573   -0.272219    0.071362
      3          6           0        3.503057    1.153326   -0.289790
      4          8           0        4.363508    2.260440    0.017592
      5          1           0        5.314451    1.970266   -0.094922
      6          6           0        2.075021    1.555659    0.041155
      7          8           0        1.671150    2.766709   -0.613166
      8          1           0        2.194936    3.586734   -0.381812
      9          6           0        3.055988   -2.661815    0.296854
     10          8           0        1.915894   -3.519432    0.450181
     11          1           0        2.250168   -4.312150    0.960112
     12          6           0        2.779966   -1.266614   -0.239485
     13          8           0        1.569065   -0.776740    0.354371
     14          6           0        1.097422    0.430916   -0.258508
     15          8           0       -0.058621    0.624434    0.569212
     16          6           0       -1.357159    0.229618    0.103120
     17          6           0       -1.936464   -1.154031    0.345178
     18          8           0       -1.002774   -2.201842    0.044992
     19          1           0       -0.076758   -1.850934    0.185055
     20          6           0       -3.251450   -1.388233   -0.379576
     21          8           0       -3.655780   -2.764856   -0.396786
     22          1           0       -2.809427   -3.226444   -0.663805
     23          6           0       -2.032607    2.505363    0.042567
     24          8           0       -2.444689    3.740833    0.644477
     25          1           0       -2.417115    4.526632    0.025806
     26          6           0       -2.483656    1.145880    0.552566
     27          8           0       -3.750421    0.976263   -0.101241
     28          6           0       -4.272193   -0.350888    0.056722
     29          8           0       -5.504789   -0.452294   -0.670506
     30          1           0       -6.233357   -0.188554   -0.103735
     31          1           0        5.857962   -0.392391    0.074041
     32          1           0        3.526850   -2.562379    1.252522
     33          1           0        3.744855   -3.141652   -0.366560
     34          1           0        2.649946   -1.321594   -1.300132
     35          1           0        4.045727   -0.299658    1.129254
     36          1           0        3.513017    1.131541   -1.359521
     37          1           0        2.034754    1.737549    1.094813
     38          1           0        0.864021    0.320431   -1.296880
     39          1           0       -2.324792    2.556191   -0.985511
     40          1           0       -0.962870    2.498521    0.065263
     41          1           0       -2.587892    1.147941    1.617474
     42          1           0       -1.307600    0.331263   -0.960887
     43          1           0       -2.146525   -1.219388    1.392318
     44          1           0       -3.047892   -1.155213   -1.403863
     45          1           0       -4.482817   -0.506160    1.094233
 ---------------------------------------------------------------------

 SCF Done:  E(RB3LYP) =  -1297.96249206     A.U. after   14 cycles

 The electronic state is 1-A.
 Alpha  occ. eigenvalues --  -19.19494 -19.19349 -19.18705 -19.18130 -19.17193
 Alpha  occ. eigenvalues --  -19.16903 -19.16473 -19.15738 -19.14715 -19.14368
 Alpha  occ. eigenvalues --  -19.13738 -10.32124 -10.28938 -10.27589 -10.27359
 Alpha  occ. eigenvalues --  -10.26309 -10.25974 -10.25446 -10.25280 -10.24481
 Alpha  occ. eigenvalues --  -10.23748 -10.23690 -10.21192  -1.11091  -1.07539
 Alpha  occ. eigenvalues --   -1.07120  -1.05234  -1.04549  -1.03374  -1.02829
 Alpha  occ. eigenvalues --   -1.02506  -1.01344  -1.00036  -0.99783  -0.83074
 Alpha  occ. eigenvalues --   -0.82116  -0.79368  -0.77935  -0.72615  -0.69095
 Alpha  occ. eigenvalues --   -0.67978  -0.64891  -0.63885  -0.62418  -0.61027
 Alpha  occ. eigenvalues --   -0.60006  -0.57447  -0.56597  -0.55521  -0.54675
 Alpha  occ. eigenvalues --   -0.53710  -0.53370  -0.52988  -0.52518  -0.51283
 Alpha  occ. eigenvalues --   -0.50863  -0.49764  -0.48678  -0.47635  -0.46465
 Alpha  occ. eigenvalues --   -0.46314  -0.45403  -0.44345  -0.44060  -0.42977
 Alpha  occ. eigenvalues --   -0.42227  -0.42039  -0.41472  -0.40221  -0.39564
 Alpha  occ. eigenvalues --   -0.38898  -0.37630  -0.37069  -0.37018  -0.36382
 Alpha  occ. eigenvalues --   -0.35643  -0.35231  -0.34456  -0.33698  -0.33428
 Alpha  occ. eigenvalues --   -0.31856  -0.31041  -0.30488  -0.30436  -0.30331
 Alpha  occ. eigenvalues --   -0.29481  -0.29301  -0.28872  -0.26997  -0.26155
 Alpha  occ. eigenvalues --   -0.25556
 Alpha virt. eigenvalues --   -0.03996  -0.02163  -0.00665  -0.00025   0.00619
 Alpha virt. eigenvalues --    0.00711   0.01624   0.02054   0.02274   0.03000
 Alpha virt. eigenvalues --    0.03434   0.04406   0.04705   0.05129   0.05917

 Mulliken atomic charges:
              1
     1  O   -0.532557
     2  C   -0.035300
     3  C    0.197762
     4  O   -0.581459
     5  H    0.331339
     6  C    0.106590
     7  O   -0.566597
     8  H    0.358404
     9  C   -0.354150
    10  O   -0.494534
    11  H    0.340143
    12  C    0.181164
    13  O   -0.196158
    14  C    0.175309
    15  O   -0.237276
    16  C    0.039645
    17  C    0.373938
    18  O   -0.612852
    19  H    0.396849
    20  C   -0.015327
    21  O   -0.524123
    22  H    0.356372
    23  C   -0.438446
    24  O   -0.537615
    25  H    0.328002
    26  C    0.005441
    27  O   -0.248368
    28  C    0.211679
    29  O   -0.502821
    30  H    0.324743
    31  H    0.333962
    32  H    0.128168
    33  H    0.157566
    34  H    0.115353
    35  H    0.118174
    36  H    0.122023
    37  H    0.140104
    38  H    0.146132
    39  H    0.139003
    40  H    0.175391
    41  H    0.134654
    42  H    0.106166
    43  H    0.107103
    44  H    0.114998
    45  H    0.111406
 Sum of Mulliken atomic charges =   0.00000

 Dipole moment (field-independent basis, Debye):
    X=              8.3723    Y=              0.1686    Z=              1.2451  Tot=              8.4661
 Quadrupole moment (field-independent basis, Debye-Ang):
   XX=           -119.6424   YY=           -138.0673   ZZ=           -139.3720
   XY=            -11.2218   XZ=              1.1753   YZ=             -9.0396

  Exact polarizability: 228.957   2.974 203.542   0.005  -1.112 144.959
 Approx polarizability: 271.578   2.950 263.876  -0.100  -1.050 240.476

 ******    7 imaginary frequencies (negative Signs) ******

                     1                      2                      3
                     A                      A                      A
 Frequencies --  -274.0106              -267.2112              -193.4534
 Red. masses --     1.7865                 1.9124                 1.1266
 Frc consts  --     0.0790                 0.0805                 0.0248
 IR Inten    --     1.8910                 5.6458                92.6828
 Raman Activ --     0.1028                 0.1038                 1.1978

                     4                      5                      6
                     A                      A                      A
 Frequencies --  -174.3648               -74.2922               -53.9133
 Red. masses --     1.3569                 6.1688                 6.4106
 Frc consts  --     0.0243                 0.0201                 0.0110
 IR Inten    --   111.2034                 0.6663                 0.0369
 Raman Activ --     0.9530                 0.0265                 0.0549

                     7                      8                      9
                     A                      A                      A
 Frequencies --   -24.4359                35.1539                58.2078
 Red. masses --     6.3884                 6.4232                 6.9713
 Frc consts  --     0.0022                 0.0047                 0.0139
 IR Inten    --     1.5449                 0.4492                 0.3132
 Raman Activ --     0.0478                 0.0400                 0.0329

                    10                     11                     12
                     A                      A                      A
 Frequencies --    67.8065                98.7783               124.0424
 Red. masses --     6.6033                 6.8457                 5.9802
 Frc consts  --     0.0179                 0.0394                 0.0542
 IR Inten    --     0.1762                 1.8436                 2.5692
 Raman Activ --     0.0607                 0.0769                 0.2944

                    13                     14                     15
                     A                      A                      A
 Frequencies --   127.7500               148.4575               189.3167
 Red. masses --     5.7477                 6.2024                 5.8964
 Frc consts  --     0.0553                 0.0805                 0.1245
 IR Inten    --     0.5297                 0.5076                 2.6408
 Raman Activ --     0.1099                 0.9115                 0.7953

                    16                     17                     18
                     A                      A                      A
 Frequencies --   210.3742               218.4857               245.8423
 Red. masses --     5.8651                 5.9768                 4.9714
 Frc consts  --     0.1529                 0.1681                 0.1770
 IR Inten    --     2.1733                 4.5318                 5.3893
 Raman Activ --     1.0381                 1.5488                 0.3960

                    19                     20                     21
                     A                      A                      A
 Frequencies --   268.8516               273.1262               296.0389
 Red. masses --     4.3052                 3.9640                 5.5207
 Frc consts  --     0.1833                 0.1742                 0.2851
 IR Inten    --     8.7547                11.9561                 3.9903
 Raman Activ --     0.1877                 0.4316                 1.3211

                    22                     23                     24
                     A                      A                      A
 Frequencies --   299.2935               317.2430               321.1821
 Red. masses --     5.0705                 6.2304                 5.9020
 Frc consts  --     0.2676                 0.3694                 0.3587
 IR Inten    --     4.5212                 2.0382                 3.4392
 Raman Activ --     0.3427                 1.3541                 2.7069

                    25                     26                     27
                     A                      A                      A
 Frequencies --   334.1981               369.0652               373.9989
 Red. masses --     6.0940                 6.6884                 4.4350
 Frc consts  --     0.4010                 0.5368                 0.3655
 IR Inten    --     3.3690                 2.7779                 4.0850
 Raman Activ --     4.3998                 1.8712                 1.3071

                    28                     29                     30
                     A                      A                      A
 Frequencies --   409.4756               421.0244               429.7233
 Red. masses --     5.1432                 4.8737                 5.2070
 Frc consts  --     0.5081                 0.5090                 0.5665
 IR Inten    --     3.2108                 2.0917                 7.4158
 Raman Activ --     4.2760                 0.4010                 2.7573

                    31                     32                     33
                     A                      A                      A
 Frequencies --   432.9413               462.3970               491.2004
 Red. masses --     5.7246                 4.0120                 4.4207
 Frc consts  --     0.6322                 0.5054                 0.6284
 IR Inten    --     6.4438                 9.5371                 8.9401
 Raman Activ --     3.7758                 2.6676                 1.2158

                    34                     35                     36
                     A                      A                      A
 Frequencies --   522.5230               535.1625               544.1018
 Red. masses --     3.9111                 3.9062                 6.1602
 Frc consts  --     0.6292                 0.6591                 1.0745
 IR Inten    --    11.6927                18.8927                 4.0688
 Raman Activ --     4.2934                 3.1453                 4.3599

                    37                     38                     39
                     A                      A                      A
 Frequencies --   583.4049               589.2487               617.1093
 Red. masses --     3.1196                 2.9237                 1.8541
 Frc consts  --     0.6256                 0.5981                 0.4160
 IR Inten    --    38.1043                12.3714                61.0184
 Raman Activ --     0.4234                 0.5501                 0.3411

                    40                     41                     42
                     A                      A                      A
 Frequencies --   624.2187               634.9588               654.0707
 Red. masses --     1.7221                 2.6993                 3.1850
 Frc consts  --     0.3954                 0.6412                 0.8028
 IR Inten    --    77.5198                50.5678                 3.1940
 Raman Activ --     1.0188                 0.8813                 0.3872

                    43                     44                     45
                     A                      A                      A
 Frequencies --   665.9317               701.8897               703.5730
 Red. masses --     1.1384                 1.0844                 1.0828
 Frc consts  --     0.2974                 0.3148                 0.3158
 IR Inten    --    92.8794                53.7421               112.1974
 Raman Activ --     1.6095                 2.1006                 1.3989

                    46                     47                     48
                     A                      A                      A
 Frequencies --   742.1927               794.7181               855.5740
 Red. masses --     1.0941                 1.0538                 2.6535
 Frc consts  --     0.3551                 0.3921                 1.1444
 IR Inten    --   121.1581                54.0767                 9.4859
 Raman Activ --     1.2898                 0.8107                 6.5895

                    49                     50                     51
                     A                      A                      A
 Frequencies --   865.9900               917.0178               950.5556
 Red. masses --     2.7552                 5.4773                 6.5002
 Frc consts  --     1.2174                 2.7138                 3.4604
 IR Inten    --     9.4378                79.7381               301.2593
 Raman Activ --     2.0030                 3.3912                 1.6862

                    52                     53                     54
                     A                      A                      A
 Frequencies --   962.3585               978.1334               981.8181
 Red. masses --     4.9980                 4.0437                 8.0106
 Frc consts  --     2.7272                 2.2794                 4.5497
 IR Inten    --    36.7263                54.2573                67.0497
 Raman Activ --     1.5367                 4.2468                 2.0388

                    55                     56                     57
                     A                      A                      A
 Frequencies --   996.6578              1019.8045              1024.9095
 Red. masses --     4.7702                 5.4983                 5.2738
 Frc consts  --     2.7918                 3.3691                 3.2640
 IR Inten    --    51.4397               260.6878               190.3081
 Raman Activ --     2.1204                 0.2019                 2.1360

                    58                     59                     60
                     A                      A                      A
 Frequencies --  1038.9315              1043.4432              1055.9155
 Red. masses --     3.2857                 4.5226                 3.5927
 Frc consts  --     2.0896                 2.9012                 2.3601
 IR Inten    --     2.5943               386.6827                30.9570
 Raman Activ --     1.1808                 2.1014                 5.5140

                    61                     62                     63
                     A                      A                      A
 Frequencies --  1062.2326              1072.3717              1078.9178
 Red. masses --     2.6664                 4.6282                 4.5575
 Frc consts  --     1.7726                 3.1359                 3.1257
 IR Inten    --    40.1546                14.6236                88.2665
 Raman Activ --    12.5269                10.1137                 4.4543

                    64                     65                     66
                     A                      A                      A
 Frequencies --  1091.4795              1094.9020              1104.2326
 Red. masses --     2.4389                 3.6220                 2.3537
 Frc consts  --     1.7119                 2.5583                 1.6909
 IR Inten    --     3.7340                45.0462                63.5444
 Raman Activ --     5.7491                 4.5988                 2.1375

                    67                     68                     69
                     A                      A                      A
 Frequencies --  1120.7237              1124.4373              1131.3933
 Red. masses --     2.6954                 2.9161                 2.4883
 Frc consts  --     1.9947                 2.1723                 1.8767
 IR Inten    --     8.3811                12.0049                44.5657
 Raman Activ --     8.8442                 5.6032                 0.9819

                    70                     71                     72
                     A                      A                      A
 Frequencies --  1147.7555              1160.2349              1163.9535
 Red. masses --     2.7821                 2.5869                 2.1454
 Frc consts  --     2.1593                 2.0517                 1.7125
 IR Inten    --    53.0364                 4.7314                 8.8125
 Raman Activ --     3.4884                 3.1107                 5.9688

                    73                     74                     75
                     A                      A                      A
 Frequencies --  1169.7679              1175.6860              1187.6025
 Red. masses --     1.9374                 2.6939                 2.0553
 Frc consts  --     1.5620                 2.1939                 1.7079
 IR Inten    --    24.2413                57.1337                 4.1676
 Raman Activ --     3.4892                 1.9780                 1.8225

                    76                     77                     78
                     A                      A                      A
 Frequencies --  1212.8900              1217.8701              1225.8425
 Red. masses --     1.4191                 1.3196                 1.3513
 Frc consts  --     1.2300                 1.1531                 1.1964
 IR Inten    --     2.6407                 8.1289                 4.9597
 Raman Activ --     1.0191                 4.1111                 2.1101

                    79                     80                     81
                     A                      A                      A
 Frequencies --  1241.4693              1252.0766              1271.9212
 Red. masses --     1.2313                 1.3552                 1.2518
 Frc consts  --     1.1182                 1.2518                 1.1931
 IR Inten    --    17.7469                 5.8991                 2.8623
 Raman Activ --     0.8340                 1.9768                 1.6077

                    82                     83                     84
                     A                      A                      A
 Frequencies --  1275.2913              1279.5400              1301.1594
 Red. masses --     1.1870                 1.2772                 1.3119
 Frc consts  --     1.1375                 1.2320                 1.3086
 IR Inten    --     5.7175                 4.3057                61.1633
 Raman Activ --     4.0442                 3.9181                 4.8384

                    85                     86                     87
                     A                      A                      A
 Frequencies --  1302.6521              1308.9091              1313.1718
 Red. masses --     1.3234                 1.4401                 1.2839
 Frc consts  --     1.3231                 1.4536                 1.3045
 IR Inten    --     6.1590                36.5360                 2.8639
 Raman Activ --     1.5140                 3.6522                 2.6163

                    88                     89                     90
                     A                      A                      A
 Frequencies --  1320.6076              1327.0424              1327.9187
 Red. masses --     1.2741                 1.1972                 1.2541
 Frc consts  --     1.3092                 1.2422                 1.3030
 IR Inten    --    18.8273                19.8652                 5.1125
 Raman Activ --     3.7126                 1.2746                 5.1293

                    91                     92                     93
                     A                      A                      A
 Frequencies --  1337.7368              1346.9497              1357.9197
 Red. masses --     1.2450                 1.2781                 1.2630
 Frc consts  --     1.3126                 1.3662                 1.3721
 IR Inten    --    47.1644                30.7760                13.0127
 Raman Activ --     3.6669                 8.8904                 2.9973

                    94                     95                     96
                     A                      A                      A
 Frequencies --  1363.9592              1381.4186              1391.7678
 Red. masses --     1.1171                 1.3712                 1.2064
 Frc consts  --     1.2245                 1.5417                 1.3768
 IR Inten    --    19.1539                10.8038                11.0059
 Raman Activ --     4.6338                 1.2651                 4.8004

                    97                     98                     99
                     A                      A                      A
 Frequencies --  1393.9322              1397.9905              1407.1906
 Red. masses --     1.2981                 1.3826                 1.4005
 Frc consts  --     1.4860                 1.5920                 1.6339
 IR Inten    --     5.8181                14.5490                26.4143
 Raman Activ --     5.4288                 7.3272                 2.3270

                   100                    101                    102
                     A                      A                      A
 Frequencies --  1421.4425              1435.3236              1456.2594
 Red. masses --     1.3306                 1.4634                 1.3248
 Frc consts  --     1.5840                 1.7763                 1.6553
 IR Inten    --     0.5761                43.5653                26.4665
 Raman Activ --     5.1372                 2.5095                 1.5770

                   103                    104                    105
                     A                      A                      A
 Frequencies --  1467.6801              1468.9319              1480.4019
 Red. masses --     1.0923                 1.1549                 1.3655
 Frc consts  --     1.3863                 1.4683                 1.7632
 IR Inten    --    10.2705                 6.2196                25.6056
 Raman Activ --     5.6932                 2.4266                 0.4186

                   106                    107                    108
                     A                      A                      A
 Frequencies --  1494.0943              1501.7188              3251.2209
 Red. masses --     1.1275                 1.3850                 1.0777
 Frc consts  --     1.4829                 1.8402                 6.7117
 IR Inten    --     7.8096                84.9193                16.2792
 Raman Activ --     1.4161                 2.6366                67.5446

                   109                    110                    111
                     A                      A                      A
 Frequencies --  3253.0544              3255.8346              3256.0135
 Red. masses --     1.0778                 1.0596                 1.0802
 Frc consts  --     6.7198                 6.6178                 6.7473
 IR Inten    --    29.5486                32.8167                 0.4766
 Raman Activ --    85.3764               161.8325                19.6833

                   112                    113                    114
                     A                      A                      A
 Frequencies --  3263.6013              3268.5848              3269.9010
 Red. masses --     1.0684                 1.0763                 1.0824
 Frc consts  --     6.7045                 6.7752                 6.8186
 IR Inten    --     7.1761                 2.7016                 4.3620
 Raman Activ --    23.6284               148.3953                63.7924

                   115                    116                    117
                     A                      A                      A
 Frequencies --  3278.9590              3282.1514              3290.1796
 Red. masses --     1.0861                 1.0862                 1.0855
 Frc consts  --     6.8802                 6.8942                 6.9233
 IR Inten    --    87.0967                12.9021                22.6402
 Raman Activ --     6.1243                18.0336                53.2676

                   118                    119                    120
                     A                      A                      A
 Frequencies --  3295.9378              3305.5196              3311.2585
 Red. masses --     1.0844                 1.0854                 1.1016
 Frc consts  --     6.9409                 6.9871                 7.1164
 IR Inten    --    67.5011                53.2599                87.5334
 Raman Activ --    58.1358                18.1096                55.7799

                   121                    122                    123
                     A                      A                      A
 Frequencies --  3316.4737              3317.0441              3361.0945
 Red. masses --     1.0805                 1.0946                 1.0686
 Frc consts  --     7.0021                 7.0959                 7.1126
 IR Inten    --   284.4273               157.5765                49.7063
 Raman Activ --   250.9395                 7.5012               149.8453

                   124                    125                    126
                     A                      A                      A
 Frequencies --  3364.7127              3365.2304              3371.9107
 Red. masses --     1.0650                 1.0657                 1.0667
 Frc consts  --     7.1038                 7.1110                 7.1455
 IR Inten    --    45.7944                30.9183                53.6556
 Raman Activ --    46.5905               126.6716               141.1964

                   127                    128                    129
                     A                      A                      A
 Frequencies --  3378.5485              3883.0327              3889.0348
 Red. masses --     1.0674                 1.0676                 1.0673
 Frc consts  --     7.1785                 9.4841                 9.5108
 IR Inten    --    79.9318                66.1534                73.2027
 Raman Activ --   125.8406                95.7801               129.5009

 - Thermochemistry -
 -------------------
 Temperature   298.150 Kelvin.  Pressure   1.00000 Atm.
 Atom     1 has atomic number  8 and mass  15.99491

 Molecular mass:   342.11621 amu.
 Principal axes and moments of inertia in atomic units:
                           1         2         3
     Eigenvalues --  4748.60478********************
           X            0.99997  -0.00748  -0.00001
           Y            0.00748   0.99996  -0.00497
           Z            0.00005   0.00497   0.99999
 This molecule is an asymmetric top.
 Rotational symmetry number  1.
 Warning -- assumption of classical behavior for rotation
           may cause significant error
 Rotational temperatures (Kelvin)      0.01824     0.00723     0.00534
 Rotational constants (GHZ):           0.38006     0.15066     0.11118
    7 imaginary frequencies ignored.
 Zero-point vibrational energy     972721.0 (Joules/Mol)
                                  232.48590 (Kcal/Mol)
 Warning -- explicit consideration of  32 degrees of freedom as
           vibrations may cause significant error
 Vibrational temperatures:     50.58    83.75    97.56   142.12   178.47
          (Kelvin)            183.80   213.60   272.38   302.68   314.35
                              353.71   386.82   392.97   425.93   430.62
                              456.44   462.11   480.84   531.00   538.10
                              589.14   605.76   618.28   622.91   665.29
                              706.73   751.79   769.98   782.84   839.39
                              847.80   887.88   898.11   913.56   941.06
                              958.13  1009.86  1012.28  1067.85  1143.42
                             1230.98  1245.96  1319.38  1367.64  1384.62
                             1407.31  1412.62  1433.97  1467.27  1474.61
                             1494.79  1501.28  1519.22  1528.31  1542.90
                             1552.32  1570.39  1575.32  1588.74  1612.47
                             1617.81  1627.82  1651.36  1669.32  1674.67
                             1683.03  1691.55  1708.69  1745.08  1752.24
                             1763.71  1786.20  1801.46  1830.01  1834.86
                             1840.97  1872.08  1874.22  1883.23  1889.36
                             1900.06  1909.32  1910.58  1924.70  1937.96
                             1953.74  1962.43  1987.55  2002.44  2005.56
                             2011.39  2024.63  2045.14  2065.11  2095.23
                             2111.66  2113.46  2129.97  2149.67  2160.64
                             4677.78  4680.41  4684.41  4684.67  4695.59
                             4702.76  4704.65  4717.68  4722.28  4733.83
                             4742.11  4755.90  4764.16  4771.66  4772.48
                             4835.86  4841.07  4841.81  4851.42  4860.97
                             5586.81  5595.45

 Zero-point correction=                           0.370490 (Hartree/Particle)
 Thermal correction to Energy=                    0.389174
 Thermal correction to Enthalpy=                  0.390118
 Thermal correction to Gibbs Free Energy=         0.324217
 Sum of electronic and zero-point Energies=          -1297.592002
 Sum of electronic and thermal Energies=             -1297.573318
 Sum of electronic and thermal Enthalpies=           -1297.572374
 Sum of electronic and thermal Free Energies=        -1297.638275

                     E (Thermal)             CV                S
                      KCal/Mol        Cal/Mol-Kelvin    Cal/Mol-Kelvin
 Total                  244.210             76.689            138.701
 Electronic               0.000              0.000              0.000
 Translational            0.889              2.981             43.384
 Rotational               0.889              2.981             35.178
 Vibrational            242.433             70.728             60.139
 Vibration     1          0.594              1.982              5.515
 Vibration     2          0.596              1.974              4.517
 Vibration     3          0.598              1.970              4.216
 Vibration     4          0.604              1.950              3.478
 Vibration     5          0.610              1.929              3.036
 Vibration     6          0.611              1.925              2.980
 Vibration     7          0.618              1.904              2.692
 Vibration     8          0.633              1.855              2.235
 Vibration     9          0.643              1.825              2.040
 Vibration    10          0.646              1.813              1.972
 Vibration    11          0.660              1.770              1.760
 Vibration    12          0.673              1.730              1.604
 Vibration    13          0.676              1.723              1.576
 Vibration    14          0.690              1.681              1.439
 Vibration    15          0.692              1.675              1.421
 Vibration    16          0.704              1.641              1.324
 Vibration    17          0.707              1.633              1.304
 Vibration    18          0.716              1.607              1.240
 Vibration    19          0.741              1.536              1.084
 Vibration    20          0.745              1.525              1.063
 Vibration    21          0.774              1.450              0.928
 Vibration    22          0.784              1.425              0.888
 Vibration    23          0.791              1.406              0.860
 Vibration    24          0.794              1.398              0.849
 Vibration    25          0.820              1.333              0.759
 Vibration    26          0.847              1.270              0.680
 Vibration    27          0.877              1.200              0.604
 Vibration    28          0.890              1.172              0.576
 Vibration    29          0.899              1.153              0.557
 Vibration    30          0.940              1.067              0.479
 Vibration    31          0.947              1.055              0.469
 Vibration    32          0.977              0.996              0.421

 Normal termination of Gaussian 09 at Fri Apr  1 10:40:20 2016.
