 Gaussian 09, Revision B.01,
 Gaussian 09:  EM64L-G09RevB.01 12-Aug-2010

 ------------------------------------------------
 # freq=raman b3lyp/6-31+g(d,p) geom=connectivity
 ------------------------------------------------

 ------------
 320 7000.com
 ------------
 Symbolic Z-matrix:
 Charge =  0 Multiplicity = 1

                         Standard orientation:
 ---------------------------------------------------------------------
 Center     Atomic      Atomic             Coordinates (Angstroms)
 Number     Number       Type             X           Y           Z
 ---------------------------------------------------------------------
      1          8           0        5.012500   -0.447196   -0.372375
      2          6           0        3.709521   -0.149889    0.151942
      3          6           0        3.214342    1.213550   -0.301284
      4          8           0        4.094686    2.237815    0.183053
      5          1           0        5.007049    1.992034   -0.143752
      6          6           0        1.824291    1.558884    0.206732
      7          8           0        1.365755    2.829728   -0.276664
      8          1           0        0.427001    3.007441    0.021360
      9          6           0        2.889825   -2.607049    0.127207
     10          8           0        4.090007   -3.185161   -0.405916
     11          1           0        4.187440   -4.130662   -0.095976
     12          6           0        2.614443   -1.146281   -0.189632
     13          8           0        1.362254   -0.809000    0.425324
     14          6           0        0.837768    0.433984   -0.063013
     15          8           0       -0.376213    0.654347    0.668615
     16          6           0       -1.523008    0.229669   -0.082194
     17          6           0       -1.933549   -1.158062    0.382240
     18          8           0       -0.945633   -2.097539   -0.065787
     19          1           0       -0.079889   -1.810259    0.341968
     20          6           0       -3.294974   -1.528493   -0.183623
     21          8           0       -3.635633   -2.741101    0.504172
     22          1           0       -4.601062   -3.000110    0.483983
     23          6           0       -2.230691    2.619195   -0.272320
     24          8           0       -1.167754    3.326824    0.382675
     25          1           0       -1.177213    4.316333    0.243187
     26          6           0       -2.635121    1.228646    0.190186
     27          8           0       -3.831946    0.811454   -0.481687
     28          6           0       -4.307331   -0.423870    0.072124
     29          8           0       -5.497893   -0.682325   -0.685854
     30          1           0       -6.237290   -0.809397   -0.086902
     31          1           0       -4.524100   -0.324887    1.115251
     32          1           0       -3.214900   -1.714987   -1.234198
     33          1           0       -1.978380   -1.174534    1.451173
     34          1           0       -1.291976    0.213717   -1.126833
     35          1           0       -2.822877    1.256779    1.243209
     36          1           0       -3.102749    3.236154   -0.210856
     37          1           0       -1.965232    2.541090   -1.305921
     38          1           0        0.631808    0.363544   -1.110638
     39          1           0        1.901622    1.647876    1.270217
     40          1           0        5.631858   -0.556976    0.352845
     41          1           0        3.207772    1.240238   -1.370931
     42          1           0        3.795216   -0.122512    1.218153
     43          1           0        2.466473   -1.084542   -1.247551
     44          1           0        2.062373   -3.181164   -0.234200
     45          1           0        2.922912   -2.709647    1.191763
 ---------------------------------------------------------------------

 SCF Done:  E(RB3LYP) =  -1297.95280198     A.U. after   14 cycles

 The electronic state is 1-A.
 Alpha  occ. eigenvalues --  -19.19906 -19.19866 -19.19122 -19.19051 -19.18991
 Alpha  occ. eigenvalues --  -19.17631 -19.16784 -19.16717 -19.15662 -19.14241
 Alpha  occ. eigenvalues --  -19.13611 -10.31550 -10.30781 -10.26520 -10.26049
 Alpha  occ. eigenvalues --  -10.25984 -10.25348 -10.25207 -10.25058 -10.24407
 Alpha  occ. eigenvalues --  -10.24307 -10.24176 -10.24150  -1.10418  -1.09494
 Alpha  occ. eigenvalues --   -1.05765  -1.05121  -1.04288  -1.03552  -1.02795
 Alpha  occ. eigenvalues --   -1.02351  -1.01807  -1.00391  -0.99464  -0.82080
 Alpha  occ. eigenvalues --   -0.80384  -0.79395  -0.78187  -0.72030  -0.70137
 Alpha  occ. eigenvalues --   -0.67411  -0.65153  -0.63679  -0.62558  -0.61654
 Alpha  occ. eigenvalues --   -0.60160  -0.56764  -0.55944  -0.55407  -0.54610
 Alpha  occ. eigenvalues --   -0.54049  -0.53559  -0.53005  -0.52105  -0.50993
 Alpha  occ. eigenvalues --   -0.50635  -0.50212  -0.49591  -0.48611  -0.46611
 Alpha  occ. eigenvalues --   -0.46299  -0.45058  -0.44116  -0.43810  -0.43100
 Alpha  occ. eigenvalues --   -0.42411  -0.41495  -0.40886  -0.39870  -0.39663
 Alpha  occ. eigenvalues --   -0.39325  -0.37872  -0.37137  -0.36506  -0.35582
 Alpha  occ. eigenvalues --   -0.35069  -0.34915  -0.34396  -0.33929  -0.33532
 Alpha  occ. eigenvalues --   -0.32835  -0.31634  -0.30909  -0.30078  -0.29837
 Alpha  occ. eigenvalues --   -0.29704  -0.28804  -0.28510  -0.27108  -0.26252
 Alpha  occ. eigenvalues --   -0.26054
 Alpha virt. eigenvalues --   -0.02498  -0.01973  -0.01845  -0.00049   0.00368
 Alpha virt. eigenvalues --    0.00867   0.02180   0.02317   0.03396   0.03666
 Alpha virt. eigenvalues --    0.03696   0.04432   0.05137   0.05346   0.05779

 Mulliken atomic charges:
              1
     1  O   -0.513586
     2  C   -0.195613
     3  C    0.197932
     4  O   -0.503979
     5  H    0.352328
     6  C   -0.188773
     7  O   -0.568528
     8  H    0.457475
     9  C    0.167669
    10  O   -0.532520
    11  H    0.357085
    12  C    0.055637
    13  O   -0.432925
    14  C    0.107408
    15  O   -0.293275
    16  C    0.121587
    17  C   -0.117383
    18  O   -0.513121
    19  H    0.411145
    20  C    0.103939
    21  O   -0.526910
    22  H    0.346931
    23  C    0.026499
    24  O   -0.645570
    25  H    0.400737
    26  C   -0.033622
    27  O   -0.310055
    28  C    0.156235
    29  O   -0.537173
    30  H    0.356318
    31  H    0.129925
    32  H    0.157193
    33  H    0.150098
    34  H    0.129698
    35  H    0.137599
    36  H    0.140599
    37  H    0.144646
    38  H    0.116474
    39  H    0.143056
    40  H    0.365513
    41  H    0.139973
    42  H    0.132306
    43  H    0.130336
    44  H    0.146288
    45  H    0.130405
 Sum of Mulliken atomic charges =   0.00000

 Dipole moment (field-independent basis, Debye):
    X=             -2.7239    Y=             -0.1492    Z=              2.6627  Tot=              3.8121
 Quadrupole moment (field-independent basis, Debye-Ang):
   XX=           -114.3974   YY=           -135.1709   ZZ=           -141.1169
   XY=            -14.7092   XZ=             -1.8015   YZ=             -5.5434

  Exact polarizability: 228.027   1.339 192.252  -0.078  -1.666 140.797
 Approx polarizability: 264.925   0.286 246.532  -0.552  -1.048 232.007

 ******    6 imaginary frequencies (negative Signs) ******

                     1                      2                      3
                     A                      A                      A
 Frequencies --  -309.5421              -307.8890              -278.1915
 Red. masses --     1.2405                 1.1724                 1.7573
 Frc consts  --     0.0700                 0.0655                 0.0801
 IR Inten    --    67.9720               146.9659                 6.4259
 Raman Activ --     0.7987                 0.9523                 0.0309

                     4                      5                      6
                     A                      A                      A
 Frequencies --  -267.7812               -64.7857               -33.0845
 Red. masses --     1.6486                 6.8082                 6.3394
 Frc consts  --     0.0697                 0.0168                 0.0041
 IR Inten    --    15.8421                 0.7382                 1.4882
 Raman Activ --     0.2845                 0.0327                 0.0234

                     7                      8                      9
                     A                      A                      A
 Frequencies --    30.1843                32.6138                65.5558
 Red. masses --     6.6239                 6.7526                 6.4450
 Frc consts  --     0.0036                 0.0042                 0.0163
 IR Inten    --     2.0978                 0.1560                 3.1033
 Raman Activ --     0.0159                 0.0345                 0.0579

                    10                     11                     12
                     A                      A                      A
 Frequencies --    82.4199                97.2147               131.7174
 Red. masses --     6.7777                 6.4349                 5.5099
 Frc consts  --     0.0271                 0.0358                 0.0563
 IR Inten    --     0.7510                 0.6800                 1.8037
 Raman Activ --     0.1011                 0.2179                 0.0762

                    13                     14                     15
                     A                      A                      A
 Frequencies --   166.9670               187.2352               194.6117
 Red. masses --     6.4012                 5.7465                 7.0153
 Frc consts  --     0.1051                 0.1187                 0.1565
 IR Inten    --     4.4984                 0.7022                 2.3487
 Raman Activ --     0.4580                 0.1541                 0.6328

                    16                     17                     18
                     A                      A                      A
 Frequencies --   219.3927               237.2569               265.0747
 Red. masses --     7.2679                 5.8710                 4.6994
 Frc consts  --     0.2061                 0.1947                 0.1945
 IR Inten    --     0.4974                 2.9428                23.4964
 Raman Activ --     2.9545                 0.1145                 0.4471

                    19                     20                     21
                     A                      A                      A
 Frequencies --   277.8243               290.9041               300.8082
 Red. masses --     4.6351                 4.9936                 5.3442
 Frc consts  --     0.2108                 0.2490                 0.2849
 IR Inten    --     0.5060                 2.5750                 4.2807
 Raman Activ --     0.0555                 0.3107                 0.4897

                    22                     23                     24
                     A                      A                      A
 Frequencies --   314.0962               321.5581               324.1965
 Red. masses --     5.0075                 6.4220                 6.0070
 Frc consts  --     0.2911                 0.3912                 0.3720
 IR Inten    --     3.1733                 0.6149                10.5656
 Raman Activ --     0.8719                 2.3212                 4.2635

                    25                     26                     27
                     A                      A                      A
 Frequencies --   347.4294               365.5299               387.7456
 Red. masses --     6.8483                 4.7462                 6.2547
 Frc consts  --     0.4870                 0.3736                 0.5541
 IR Inten    --     7.0534                 3.9949                 2.4264
 Raman Activ --     1.6066                 0.0965                 1.4471

                    28                     29                     30
                     A                      A                      A
 Frequencies --   419.3385               422.6480               438.2123
 Red. masses --     5.6882                 4.4851                 4.9607
 Frc consts  --     0.5893                 0.4720                 0.5613
 IR Inten    --    15.5912                 9.6694                 6.3956
 Raman Activ --     2.4159                 5.7911                 2.4144

                    31                     32                     33
                     A                      A                      A
 Frequencies --   447.1757               483.4653               490.4178
 Red. masses --     5.5317                 5.0440                 4.0854
 Frc consts  --     0.6517                 0.6946                 0.5789
 IR Inten    --     7.0879                 4.0486                13.3784
 Raman Activ --     3.3888                 2.1584                 2.3376

                    34                     35                     36
                     A                      A                      A
 Frequencies --   520.5718               531.9911               566.6191
 Red. masses --     3.2327                 3.2483                 4.3405
 Frc consts  --     0.5161                 0.5416                 0.8211
 IR Inten    --    11.4467                13.4780                13.3066
 Raman Activ --     3.0212                 2.4565                 1.9565

                    37                     38                     39
                     A                      A                      A
 Frequencies --   587.4159               599.9445               620.4606
 Red. masses --     3.3172                 5.2131                 4.0532
 Frc consts  --     0.6744                 1.1055                 0.9193
 IR Inten    --    29.7117                 6.8907                38.8971
 Raman Activ --     0.1821                 0.6910                 0.5127

                    40                     41                     42
                     A                      A                      A
 Frequencies --   637.9183               659.4363               674.3579
 Red. masses --     3.2984                 1.1697                 1.0958
 Frc consts  --     0.7908                 0.2997                 0.2936
 IR Inten    --    19.7726                98.8280               160.5333
 Raman Activ --     1.2909                 2.7357                 1.0539

                    43                     44                     45
                     A                      A                      A
 Frequencies --   674.8527               689.3546               753.2012
 Red. masses --     1.0665                 5.1484                 1.0753
 Frc consts  --     0.2862                 1.4415                 0.3594
 IR Inten    --    76.0560                18.7046               103.4268
 Raman Activ --     2.9361                 0.6139                 2.0078

                    46                     47                     48
                     A                      A                      A
 Frequencies --   821.8189               843.0418               858.7321
 Red. masses --     1.0908                 1.2490                 1.7856
 Frc consts  --     0.4341                 0.5230                 0.7758
 IR Inten    --   160.3740                48.4138                 2.0411
 Raman Activ --     3.3455                 0.9028                 1.1945

                    49                     50                     51
                     A                      A                      A
 Frequencies --   883.6705               956.9233               975.1531
 Red. masses --     1.3475                 5.3318                 5.4586
 Frc consts  --     0.6200                 2.8766                 3.0583
 IR Inten    --    32.9110               165.4808                39.2418
 Raman Activ --     0.4095                 2.9451                 0.7020

                    52                     53                     54
                     A                      A                      A
 Frequencies --   990.3891               995.7719              1000.0106
 Red. masses --     4.6744                 4.3644                 6.0376
 Frc consts  --     2.7014                 2.5497                 3.5573
 IR Inten    --    95.5328               132.5493                55.4668
 Raman Activ --     2.9499                 0.8485                 1.0941

                    55                     56                     57
                     A                      A                      A
 Frequencies --  1019.7400              1027.0875              1035.6765
 Red. masses --     7.7433                 5.5144                 4.9568
 Frc consts  --     4.7441                 3.4274                 3.1326
 IR Inten    --   120.6642                56.3654               168.9587
 Raman Activ --     1.6448                 0.9274                 2.8118

                    58                     59                     60
                     A                      A                      A
 Frequencies --  1052.8487              1061.4780              1072.2635
 Red. masses --     4.7856                 4.7707                 3.8129
 Frc consts  --     3.1255                 3.1671                 2.5829
 IR Inten    --   428.7144               115.7391                97.0007
 Raman Activ --     1.6979                 5.9163                 3.8288

                    61                     62                     63
                     A                      A                      A
 Frequencies --  1077.5983              1081.7608              1089.5106
 Red. masses --     3.0300                 5.2911                 4.8617
 Frc consts  --     2.0731                 3.6481                 3.4001
 IR Inten    --     7.8711                42.4117                82.4140
 Raman Activ --    11.0167                 0.8471                 7.2636

                    64                     65                     66
                     A                      A                      A
 Frequencies --  1097.2780              1111.9094              1112.8663
 Red. masses --     1.9155                 2.3925                 2.8870
 Frc consts  --     1.3588                 1.7428                 2.1066
 IR Inten    --    99.6710                 0.9987                18.5070
 Raman Activ --     2.6395                13.4255                 5.4830

                    67                     68                     69
                     A                      A                      A
 Frequencies --  1114.4956              1117.8152              1138.1803
 Red. masses --     3.2337                 2.8524                 2.6146
 Frc consts  --     2.3665                 2.0999                 1.9956
 IR Inten    --    17.1291                40.7412                19.7874
 Raman Activ --    11.1928                 2.7512                 6.2667

                    70                     71                     72
                     A                      A                      A
 Frequencies --  1143.5609              1148.3155              1158.4532
 Red. masses --     1.6633                 2.5537                 2.0526
 Frc consts  --     1.2815                 1.9840                 1.6230
 IR Inten    --     5.3857                 9.0878                 3.9343
 Raman Activ --     3.6022                 3.7896                 1.9630

                    73                     74                     75
                     A                      A                      A
 Frequencies --  1165.1560              1173.3435              1189.7785
 Red. masses --     1.6653                 1.8716                 1.6386
 Frc consts  --     1.3321                 1.5182                 1.3667
 IR Inten    --    10.3996                 1.2405                18.9550
 Raman Activ --     4.6861                 1.8863                 1.9697

                    76                     77                     78
                     A                      A                      A
 Frequencies --  1195.5847              1210.7890              1230.6903
 Red. masses --     1.3932                 1.3225                 1.2935
 Frc consts  --     1.1733                 1.1423                 1.1543
 IR Inten    --    14.1732                10.4642                19.8441
 Raman Activ --     3.5594                 3.1117                 0.4668

                    79                     80                     81
                     A                      A                      A
 Frequencies --  1240.1359              1241.7963              1258.4492
 Red. masses --     1.2477                 1.3382                 1.2362
 Frc consts  --     1.1306                 1.2158                 1.1535
 IR Inten    --    22.0400                22.0446                31.2609
 Raman Activ --     1.7407                 2.8540                 1.6187

                    82                     83                     84
                     A                      A                      A
 Frequencies --  1264.4378              1274.7393              1277.7522
 Red. masses --     1.2754                 1.1739                 1.2461
 Frc consts  --     1.2014                 1.1239                 1.1986
 IR Inten    --    38.6812                12.8546                16.7076
 Raman Activ --     5.2224                 3.9583                 0.7506

                    85                     86                     87
                     A                      A                      A
 Frequencies --  1288.4016              1296.9204              1301.5580
 Red. masses --     1.2820                 1.3294                 1.2947
 Frc consts  --     1.2539                 1.3175                 1.2923
 IR Inten    --    20.5542                24.9507                16.3655
 Raman Activ --     4.3933                 0.6194                 4.7264

                    88                     89                     90
                     A                      A                      A
 Frequencies --  1309.2068              1316.5867              1323.1156
 Red. masses --     1.1768                 1.2651                 1.3626
 Frc consts  --     1.1885                 1.2920                 1.4054
 IR Inten    --    19.4898                 3.8723                17.9226
 Raman Activ --     7.3417                 5.6699                 5.9497

                    91                     92                     93
                     A                      A                      A
 Frequencies --  1333.9067              1335.7710              1343.8294
 Red. masses --     1.3392                 1.3244                 1.2699
 Frc consts  --     1.4039                 1.3923                 1.3512
 IR Inten    --    16.9633                28.6330                22.3761
 Raman Activ --     0.9200                 8.3048                 1.4642

                    94                     95                     96
                     A                      A                      A
 Frequencies --  1347.8253              1357.4997              1370.9788
 Red. masses --     1.3601                 1.3643                 1.7223
 Frc consts  --     1.4558                 1.4813                 1.9073
 IR Inten    --    61.9940                 1.1428                11.1974
 Raman Activ --     4.5284                 2.4463                 9.8319

                    97                     98                     99
                     A                      A                      A
 Frequencies --  1380.6261              1387.3628              1406.3314
 Red. masses --     1.4487                 1.7791                 1.4350
 Frc consts  --     1.6270                 2.0176                 1.6721
 IR Inten    --    10.4782                22.2638                 4.4426
 Raman Activ --     7.1294                 2.7321                 3.6787

                   100                    101                    102
                     A                      A                      A
 Frequencies --  1408.3818              1431.1360              1439.2451
 Red. masses --     1.4908                 1.4062                 1.4682
 Frc consts  --     1.7423                 1.6969                 1.7918
 IR Inten    --     6.6597                29.5368                17.8486
 Raman Activ --    10.5829                 1.6936                 0.7381

                   103                    104                    105
                     A                      A                      A
 Frequencies --  1451.5879              1483.1739              1486.7826
 Red. masses --     1.4853                 1.0824                 1.0874
 Frc consts  --     1.8440                 1.4029                 1.4162
 IR Inten    --     6.4184                 3.5226                 1.8683
 Raman Activ --     1.9840                 5.2568                 4.2778

                   106                    107                    108
                     A                      A                      A
 Frequencies --  1503.0821              1513.3582              3237.9636
 Red. masses --     1.2657                 1.2602                 1.0700
 Frc consts  --     1.6848                 1.7005                 6.6096
 IR Inten    --    32.2887                40.7646               942.9716
 Raman Activ --     0.8632                 1.7407               161.7374

                   109                    110                    111
                     A                      A                      A
 Frequencies --  3266.6905              3274.3697              3277.3884
 Red. masses --     1.0578                 1.0600                 1.0819
 Frc consts  --     6.6509                 6.6961                 6.8467
 IR Inten    --    35.9465                21.9110                28.8914
 Raman Activ --    95.2235               186.2609                49.7097

                   112                    113                    114
                     A                      A                      A
 Frequencies --  3288.0719              3288.6784              3290.1278
 Red. masses --     1.0830                 1.0832                 1.0836
 Frc consts  --     6.8985                 6.9023                 6.9114
 IR Inten    --     3.2233                11.2339                11.4988
 Raman Activ --    22.7530               126.5719                24.2043

                   115                    116                    117
                     A                      A                      A
 Frequencies --  3295.9806              3299.6887              3302.6589
 Red. masses --     1.0857                 1.0858                 1.0856
 Frc consts  --     6.9490                 6.9653                 6.9765
 IR Inten    --    26.9293                 5.3424                42.4994
 Raman Activ --    20.5578                13.6888               216.8758

                   118                    119                    120
                     A                      A                      A
 Frequencies --  3308.1517              3310.9767              3320.7690
 Red. masses --     1.0867                 1.0845                 1.0827
 Frc consts  --     7.0069                 7.0047                 7.0346
 IR Inten    --     9.5983               104.2315               257.6046
 Raman Activ --    13.7067                14.7198                23.2646

                   121                    122                    123
                     A                      A                      A
 Frequencies --  3322.2207              3324.7114              3328.1933
 Red. masses --     1.1008                 1.0835                 1.1014
 Frc consts  --     7.1584                 7.0562                 7.1882
 IR Inten    --     7.5900               455.7026                77.0141
 Raman Activ --    19.2518               158.1087                36.1088

                   124                    125                    126
                     A                      A                      A
 Frequencies --  3387.6145              3391.0985              3391.6383
 Red. masses --     1.0672                 1.0673                 1.0655
 Frc consts  --     7.2155                 7.2315                 7.2216
 IR Inten    --    21.4440                34.4135                35.9625
 Raman Activ --   193.6659               147.1437               155.2953

                   127                    128                    129
                     A                      A                      A
 Frequencies --  3401.6480              3918.7116              3921.2197
 Red. masses --     1.0677                 1.0679                 1.0676
 Frc consts  --     7.2793                 9.6623                 9.6719
 IR Inten    --    76.5846                79.7466                64.2304
 Raman Activ --   156.7211                87.3773               122.0034

 - Thermochemistry -
 -------------------
 Temperature   298.150 Kelvin.  Pressure   1.00000 Atm.
 Atom     1 has atomic number  8 and mass  15.99491

 Molecular mass:   342.11621 amu.
 Principal axes and moments of inertia in atomic units:
                           1         2         3
     Eigenvalues --  4425.35221********************
           X            0.99997  -0.00706  -0.00060
           Y            0.00706   0.99997  -0.00433
           Z            0.00063   0.00432   0.99999
 This molecule is an asymmetric top.
 Rotational symmetry number  1.
 Warning -- assumption of classical behavior for rotation
           may cause significant error
 Rotational temperatures (Kelvin)      0.01957     0.00723     0.00542
 Rotational constants (GHZ):           0.40782     0.15055     0.11290
    6 imaginary frequencies ignored.
 Zero-point vibrational energy     978138.3 (Joules/Mol)
                                  233.78067 (Kcal/Mol)
 Warning -- explicit consideration of  33 degrees of freedom as
           vibrations may cause significant error
 Vibrational temperatures:     43.43    46.92    94.32   118.58   139.87
          (Kelvin)            189.51   240.23   269.39   280.00   315.66
                              341.36   381.38   399.73   418.55   432.80
                              451.91   462.65   466.45   499.87   525.92
                              557.88   603.33   608.10   630.49   643.39
                              695.60   705.60   748.99   765.42   815.24
                              845.16   863.19   892.70   917.82   948.78
                              970.25   970.96   991.83  1083.69  1182.41
                             1212.95  1235.52  1271.40  1376.80  1403.03
                             1424.95  1432.69  1438.79  1467.18  1477.75
                             1490.11  1514.81  1527.23  1542.75  1550.42
                             1556.41  1567.56  1578.74  1599.79  1601.16
                             1603.51  1608.28  1637.59  1645.33  1652.17
                             1666.75  1676.40  1688.18  1711.82  1720.18
                             1742.05  1770.69  1784.28  1786.67  1810.63
                             1819.24  1834.06  1838.40  1853.72  1865.98
                             1872.65  1883.65  1894.27  1903.67  1919.19
                             1921.87  1933.47  1939.22  1953.14  1972.53
                             1986.41  1996.10  2023.39  2026.34  2059.08
                             2070.75  2088.51  2133.95  2139.15  2162.60
                             2177.38  4658.70  4700.03  4711.08  4715.43
                             4730.80  4731.67  4733.75  4742.18  4747.51
                             4751.78  4759.69  4763.75  4777.84  4779.93
                             4783.51  4788.52  4874.02  4879.03  4879.80
                             4894.21  5638.14  5641.75

 Zero-point correction=                           0.372553 (Hartree/Particle)
 Thermal correction to Energy=                    0.391582
 Thermal correction to Enthalpy=                  0.392526
 Thermal correction to Gibbs Free Energy=         0.325266
 Sum of electronic and zero-point Energies=          -1297.580249
 Sum of electronic and thermal Energies=             -1297.561220
 Sum of electronic and thermal Enthalpies=           -1297.560276
 Sum of electronic and thermal Free Energies=        -1297.627536

                     E (Thermal)             CV                S
                      KCal/Mol        Cal/Mol-Kelvin    Cal/Mol-Kelvin
 Total                  245.722             77.545            141.562
 Electronic               0.000              0.000              0.000
 Translational            0.889              2.981             43.384
 Rotational               0.889              2.981             35.093
 Vibrational            243.944             71.583             63.085
 Vibration     1          0.594              1.984              5.817
 Vibration     2          0.594              1.983              5.664
 Vibration     3          0.597              1.971              4.283
 Vibration     4          0.600              1.961              3.832
 Vibration     5          0.603              1.951              3.509
 Vibration     6          0.612              1.922              2.921
 Vibration     7          0.624              1.883              2.469
 Vibration     8          0.632              1.857              2.255
 Vibration     9          0.635              1.847              2.183
 Vibration    10          0.647              1.812              1.964
 Vibration    11          0.656              1.784              1.823
 Vibration    12          0.671              1.737              1.628
 Vibration    13          0.679              1.715              1.547
 Vibration    14          0.687              1.691              1.469
 Vibration    15          0.693              1.672              1.412
 Vibration    16          0.702              1.647              1.341
 Vibration    17          0.707              1.632              1.302
 Vibration    18          0.709              1.627              1.289
 Vibration    19          0.725              1.580              1.178
 Vibration    20          0.739              1.543              1.098
 Vibration    21          0.756              1.496              1.009
 Vibration    22          0.782              1.428              0.894
 Vibration    23          0.785              1.421              0.883
 Vibration    24          0.798              1.387              0.832
 Vibration    25          0.806              1.367              0.804
 Vibration    26          0.840              1.287              0.701
 Vibration    27          0.846              1.271              0.683
 Vibration    28          0.876              1.204              0.609
 Vibration    29          0.887              1.179              0.583
 Vibration    30          0.923              1.103              0.511
 Vibration    31          0.945              1.059              0.472
 Vibration    32          0.958              1.032              0.450
 Vibration    33          0.981              0.989              0.416

 Normal termination of Gaussian 09 at Thu Jan 21 05:16:44 2016.
