 Gaussian 09, Revision B.01,
 Gaussian 09:  EM64L-G09RevB.01 12-Aug-2010

 -------------------------------------------------
 # freq=raman b3lyp/6-31+g(2d,p) geom=connectivity
 -------------------------------------------------

 -----------------
 493 8849/8849.com
 -----------------
 Symbolic Z-matrix:
 Charge =  0 Multiplicity = 1

                         Standard orientation:
 ---------------------------------------------------------------------
 Center     Atomic      Atomic             Coordinates (Angstroms)
 Number     Number       Type             X           Y           Z
 ---------------------------------------------------------------------
      1          8           0       -4.996279   -0.295961    0.388297
      2          6           0       -3.697491   -0.063760   -0.176524
      3          6           0       -3.220423    1.339868    0.160499
      4          8           0       -4.093216    2.393107   -0.274054
      5          1           0       -4.950385    2.111287    0.156728
      6          6           0       -1.788203    1.516654   -0.316378
      7          8           0       -1.271056    2.645607    0.402153
      8          1           0       -0.365354    2.786356    0.002562
      9          6           0       -3.023729   -2.535107    0.058406
     10          8           0       -4.263720   -3.251339    0.143425
     11          1           0       -4.145142   -4.243218    0.199042
     12          6           0       -2.723969   -1.082322    0.392343
     13          8           0       -1.420050   -0.981356   -0.198039
     14          6           0       -0.920888    0.333777    0.084018
     15          8           0        0.276092    0.517278   -0.686413
     16          6           0        1.472587    0.212922    0.044899
     17          6           0        1.978669   -1.145178   -0.414695
     18          8           0        1.093635   -2.224467   -0.081881
     19          1           0        0.204751   -1.827163   -0.309889
     20          6           0        3.332639   -1.563548    0.133816
     21          8           0        3.864493   -2.772874   -0.427576
     22          1           0        4.782397   -2.983468   -0.089189
     23          6           0        2.248366    2.582352    0.320996
     24          8           0        1.252503    3.376179   -0.341207
     25          1           0        1.420029    4.338506   -0.129564
     26          6           0        2.571623    1.216822   -0.263324
     27          8           0        3.853408    0.824451    0.251136
     28          6           0        4.330152   -0.459628   -0.175851
     29          8           0        5.346944   -0.446152    0.836192
     30          1           0        6.210321   -0.522231    0.423407
     31          1           0        3.257309   -1.677055    1.195108
     32          1           0        4.717013   -0.468995   -1.173424
     33          1           0        2.059830   -1.110981   -1.481064
     34          1           0        1.270503    0.196056    1.095507
     35          1           0        2.650075    1.314108   -1.326000
     36          1           0        3.155232    3.149846    0.342057
     37          1           0        1.928314    2.436025    1.331469
     38          1           0       -5.621657   -0.486114   -0.314799
     39          1           0       -2.706562   -2.654678   -0.956487
     40          1           0       -2.338378   -3.100899    0.654287
     41          1           0       -2.651303   -0.962034    1.453074
     42          1           0       -3.747568   -0.175867   -1.239456
     43          1           0       -3.191691    1.398624    1.228498
     44          1           0       -1.750502    1.683369   -1.372638
     45          1           0       -0.685270    0.405629    1.125277
 ---------------------------------------------------------------------

 SCF Done:  E(RB3LYP) =  -1297.97505000     A.U. after   13 cycles

 The electronic state is 1-A.
 Alpha  occ. eigenvalues --  -19.19200 -19.18748 -19.18746 -19.17268 -19.16920
 Alpha  occ. eigenvalues --  -19.16862 -19.16158 -19.15617 -19.15473 -19.13949
 Alpha  occ. eigenvalues --  -19.13777 -10.30429 -10.30130 -10.26124 -10.25644
 Alpha  occ. eigenvalues --  -10.25475 -10.25046 -10.25026 -10.24670 -10.24258
 Alpha  occ. eigenvalues --  -10.24033 -10.23787 -10.23739  -1.10686  -1.09451
 Alpha  occ. eigenvalues --   -1.05773  -1.05228  -1.04619  -1.03103  -1.02477
 Alpha  occ. eigenvalues --   -1.01875  -1.01634  -1.00831  -1.00519  -0.82167
 Alpha  occ. eigenvalues --   -0.80566  -0.79083  -0.78136  -0.71844  -0.69696
 Alpha  occ. eigenvalues --   -0.67273  -0.65196  -0.63162  -0.62595  -0.61332
 Alpha  occ. eigenvalues --   -0.60175  -0.56708  -0.55935  -0.54968  -0.54547
 Alpha  occ. eigenvalues --   -0.53934  -0.53128  -0.52753  -0.52044  -0.51153
 Alpha  occ. eigenvalues --   -0.50355  -0.50241  -0.49101  -0.48368  -0.46380
 Alpha  occ. eigenvalues --   -0.46137  -0.44777  -0.43977  -0.43411  -0.42652
 Alpha  occ. eigenvalues --   -0.42449  -0.42027  -0.40681  -0.40478  -0.40002
 Alpha  occ. eigenvalues --   -0.38685  -0.38093  -0.37645  -0.37054  -0.36093
 Alpha  occ. eigenvalues --   -0.35569  -0.34862  -0.34405  -0.34024  -0.33741
 Alpha  occ. eigenvalues --   -0.32390  -0.31341  -0.30838  -0.30089  -0.29965
 Alpha  occ. eigenvalues --   -0.29671  -0.28329  -0.28145  -0.27940  -0.26899
 Alpha  occ. eigenvalues --   -0.26604
 Alpha virt. eigenvalues --   -0.01820  -0.01735  -0.01642  -0.00129   0.00319
 Alpha virt. eigenvalues --    0.00750   0.02089   0.02245   0.02965   0.03644
 Alpha virt. eigenvalues --    0.03992   0.04221   0.04885   0.05427   0.05859

 Mulliken atomic charges:
              1
     1  O   -0.537483
     2  C    0.054578
     3  C    0.118422
     4  O   -0.552673
     5  H    0.340229
     6  C   -0.055543
     7  O   -0.550827
     8  H    0.421227
     9  C   -0.340603
    10  O   -0.567690
    11  H    0.344433
    12  C    0.285775
    13  O   -0.278402
    14  C    0.058098
    15  O   -0.223827
    16  C    0.306676
    17  C    0.158291
    18  O   -0.562011
    19  H    0.385428
    20  C    0.048434
    21  O   -0.549226
    22  H    0.334795
    23  C   -0.274426
    24  O   -0.561723
    25  H    0.356010
    26  C   -0.087566
    27  O   -0.201654
    28  C    0.127887
    29  O   -0.506777
    30  H    0.319218
    31  H    0.137644
    32  H    0.140294
    33  H    0.122176
    34  H    0.112398
    35  H    0.120954
    36  H    0.143085
    37  H    0.151811
    38  H    0.342081
    39  H    0.147074
    40  H    0.144229
    41  H    0.118692
    42  H    0.121770
    43  H    0.123033
    44  H    0.138690
    45  H    0.127001
 Sum of Mulliken atomic charges =   0.00000

 Dipole moment (field-independent basis, Debye):
    X=              2.8854    Y=              0.2671    Z=             -0.7523  Tot=              2.9938
 Quadrupole moment (field-independent basis, Debye-Ang):
   XX=           -118.0077   YY=           -136.7926   ZZ=           -139.5540
   XY=             13.4633   XZ=             -1.5322   YZ=             -0.4252

  Exact polarizability: 232.400  -1.923 198.332   0.652   0.630 142.842
 Approx polarizability: 272.548  -1.503 259.061   0.010   0.832 239.204

 ******    7 imaginary frequencies (negative Signs) ******

                     1                      2                      3
                     A                      A                      A
 Frequencies --  -343.5687              -301.7207              -249.0705
 Red. masses --     1.6533                 1.1636                 1.7962
 Frc consts  --     0.1150                 0.0624                 0.0657
 IR Inten    --     4.5694                89.9070                 4.5291
 Raman Activ --     0.0375                 1.1901                 0.0515

                     4                      5                      6
                     A                      A                      A
 Frequencies --  -239.5934              -100.6239               -54.5410
 Red. masses --     1.1345                 5.4188                 6.7931
 Frc consts  --     0.0384                 0.0323                 0.0119
 IR Inten    --   105.9830                 1.4946                 0.8380
 Raman Activ --     0.6011                 0.1331                 0.0241

                     7                      8                      9
                     A                      A                      A
 Frequencies --    -7.3137                33.4555                50.0678
 Red. masses --     6.1550                 6.5423                 6.5867
 Frc consts  --     0.0002                 0.0043                 0.0097
 IR Inten    --     0.8416                 0.3061                 1.0082
 Raman Activ --     0.0195                 0.0771                 0.0590

                    10                     11                     12
                     A                      A                      A
 Frequencies --    67.2123                84.5448               107.5022
 Red. masses --     7.2190                 6.0826                 6.0272
 Frc consts  --     0.0192                 0.0256                 0.0410
 IR Inten    --     1.3389                 1.2271                 2.9931
 Raman Activ --     0.0510                 0.2912                 0.0697

                    13                     14                     15
                     A                      A                      A
 Frequencies --   155.9781               167.8925               189.4047
 Red. masses --     6.7095                 6.5516                 6.8118
 Frc consts  --     0.0962                 0.1088                 0.1440
 IR Inten    --     3.9644                 0.9655                 0.9094
 Raman Activ --     0.2608                 0.4351                 0.4377

                    16                     17                     18
                     A                      A                      A
 Frequencies --   207.6220               226.5992               260.7800
 Red. masses --     7.0558                 5.8320                 5.0703
 Frc consts  --     0.1792                 0.1764                 0.2032
 IR Inten    --     0.1874                 2.0311                10.7326
 Raman Activ --     2.3332                 0.7012                 0.4661

                    19                     20                     21
                     A                      A                      A
 Frequencies --   272.7366               280.6877               305.3944
 Red. masses --     5.2393                 4.5837                 6.0957
 Frc consts  --     0.2296                 0.2128                 0.3350
 IR Inten    --     0.8420                 5.0937                 4.2455
 Raman Activ --     0.1406                 0.3451                 0.3171

                    22                     23                     24
                     A                      A                      A
 Frequencies --   315.0898               324.9403               329.6166
 Red. masses --     5.7866                 6.0775                 6.1212
 Frc consts  --     0.3385                 0.3781                 0.3918
 IR Inten    --     6.0789                 1.8363                 7.3200
 Raman Activ --     0.6817                 1.7222                 5.9817

                    25                     26                     27
                     A                      A                      A
 Frequencies --   340.3944               362.5117               385.6884
 Red. masses --     6.6713                 4.4710                 6.8635
 Frc consts  --     0.4554                 0.3462                 0.6015
 IR Inten    --     5.9779                 3.6726                 1.3034
 Raman Activ --     1.8146                 0.1136                 2.4341

                    28                     29                     30
                     A                      A                      A
 Frequencies --   411.8891               431.5838               445.5240
 Red. masses --     4.1537                 6.0908                 5.1879
 Frc consts  --     0.4152                 0.6684                 0.6067
 IR Inten    --    19.2077                 1.2722                 3.0296
 Raman Activ --     2.6421                 4.5907                 1.1921

                    31                     32                     33
                     A                      A                      A
 Frequencies --   450.5446               478.7568               492.7488
 Red. masses --     4.7503                 4.8846                 4.2482
 Frc consts  --     0.5681                 0.6596                 0.6077
 IR Inten    --     8.1290                 6.7544                11.9704
 Raman Activ --     3.6842                 4.1652                 0.4854

                    34                     35                     36
                     A                      A                      A
 Frequencies --   515.1306               544.0942               574.7599
 Red. masses --     3.6304                 3.0469                 3.9942
 Frc consts  --     0.5676                 0.5314                 0.7774
 IR Inten    --     8.9816                11.8717                 8.7710
 Raman Activ --     2.2401                 3.0254                 3.1393

                    37                     38                     39
                     A                      A                      A
 Frequencies --   601.0359               610.4313               630.2727
 Red. masses --     2.7404                 6.7848                 1.1641
 Frc consts  --     0.5833                 1.4896                 0.2725
 IR Inten    --    49.9068                 9.7604                77.3556
 Raman Activ --     0.2890                 0.4628                 1.8214

                    40                     41                     42
                     A                      A                      A
 Frequencies --   643.8124               652.7689               693.4105
 Red. masses --     4.5347                 3.7014                 1.0535
 Frc consts  --     1.1074                 0.9293                 0.2984
 IR Inten    --     0.1734                54.8698                99.3207
 Raman Activ --     0.1710                 1.7482                 2.0134

                    43                     44                     45
                     A                      A                      A
 Frequencies --   715.2266               719.1443               759.9347
 Red. masses --     4.0909                 1.1494                 1.1058
 Frc consts  --     1.2330                 0.3502                 0.3763
 IR Inten    --    29.1681               107.5633                92.1706
 Raman Activ --     1.2551                 2.1517                 1.7425

                    46                     47                     48
                     A                      A                      A
 Frequencies --   820.0642               839.3526               860.8294
 Red. masses --     1.0931                 1.7913                 1.7302
 Frc consts  --     0.4331                 0.7435                 0.7554
 IR Inten    --    89.0072                 4.5256                 1.1284
 Raman Activ --     2.6767                 1.4934                 0.5063

                    49                     50                     51
                     A                      A                      A
 Frequencies --   925.3096               931.2994               952.5252
 Red. masses --     5.0548                 1.2668                 3.8690
 Frc consts  --     2.5499                 0.6473                 2.0682
 IR Inten    --   190.0648                55.4274                 5.1461
 Raman Activ --     3.2967                 0.5437                 2.3174

                    52                     53                     54
                     A                      A                      A
 Frequencies --   973.2642               985.7820               993.1638
 Red. masses --     5.1173                 5.6633                 6.2269
 Frc consts  --     2.8560                 3.2425                 3.6188
 IR Inten    --    13.7727                62.1809               104.3699
 Raman Activ --     1.4511                 6.0806                 1.1569

                    55                     56                     57
                     A                      A                      A
 Frequencies --  1002.0387              1012.6983              1026.5156
 Red. masses --     5.6924                 6.7305                 6.5079
 Frc consts  --     3.3676                 4.0668                 4.0404
 IR Inten    --   394.9754                20.2072               260.4519
 Raman Activ --     2.2887                 0.5806                 2.8773

                    58                     59                     60
                     A                      A                      A
 Frequencies --  1034.9763              1053.4867              1060.7213
 Red. masses --     5.2346                 3.5391                 3.7179
 Frc consts  --     3.3036                 2.3142                 2.4646
 IR Inten    --    96.8222                66.2884               127.4316
 Raman Activ --     3.5393                 4.0886                 6.1399

                    61                     62                     63
                     A                      A                      A
 Frequencies --  1065.6479              1073.5381              1081.8212
 Red. masses --     3.4519                 5.8756                 3.1080
 Frc consts  --     2.3096                 3.9897                 2.1431
 IR Inten    --    14.6041                50.4603                16.7559
 Raman Activ --     7.9456                 1.7679                21.3604

                    64                     65                     66
                     A                      A                      A
 Frequencies --  1097.3585              1100.5736              1109.0835
 Red. masses --     2.8583                 2.7874                 2.6297
 Frc consts  --     2.0280                 1.9892                 1.9059
 IR Inten    --    32.9807                63.3777               111.5648
 Raman Activ --    10.1350                 2.4110                 0.8969

                    67                     68                     69
                     A                      A                      A
 Frequencies --  1114.0122              1120.9267              1130.1707
 Red. masses --     2.2383                 2.7684                 3.0729
 Frc consts  --     1.6367                 2.0494                 2.3125
 IR Inten    --    34.4909                 8.1328                16.4756
 Raman Activ --    10.7955                 4.6436                 2.4682

                    70                     71                     72
                     A                      A                      A
 Frequencies --  1139.9090              1145.2982              1151.1696
 Red. masses --     2.2839                 2.2312                 1.7688
 Frc consts  --     1.7485                 1.7244                 1.3810
 IR Inten    --    35.0759                30.4671                 5.2237
 Raman Activ --     4.1616                11.8658                 2.5802

                    73                     74                     75
                     A                      A                      A
 Frequencies --  1154.7457              1171.9526              1180.1284
 Red. masses --     1.6822                 2.1862                 1.7642
 Frc consts  --     1.3216                 1.7691                 1.4477
 IR Inten    --    16.9001                25.1899                22.6116
 Raman Activ --     1.7488                 1.4193                 1.7051

                    76                     77                     78
                     A                      A                      A
 Frequencies --  1192.4009              1210.0946              1210.6932
 Red. masses --     1.4544                 1.2451                 1.3783
 Frc consts  --     1.2184                 1.0743                 1.1903
 IR Inten    --    16.8396                16.3899                 3.9028
 Raman Activ --     3.7341                 0.7994                 1.2028

                    79                     80                     81
                     A                      A                      A
 Frequencies --  1232.7691              1244.9853              1257.4422
 Red. masses --     1.3558                 1.2932                 1.2873
 Frc consts  --     1.2140                 1.1810                 1.1992
 IR Inten    --     4.4589                14.8997                 4.0412
 Raman Activ --     0.5130                 0.9124                 1.5996

                    82                     83                     84
                     A                      A                      A
 Frequencies --  1265.3088              1277.5543              1278.2535
 Red. masses --     1.2523                 1.2664                 1.2884
 Frc consts  --     1.1812                 1.2178                 1.2403
 IR Inten    --     8.9304                12.9119                39.7591
 Raman Activ --     1.1933                 5.0338                 0.4597

                    85                     86                     87
                     A                      A                      A
 Frequencies --  1292.8930              1298.8778              1304.5201
 Red. masses --     1.3569                 1.2520                 1.3424
 Frc consts  --     1.3363                 1.2445                 1.3460
 IR Inten    --     9.2529                15.3263                59.9702
 Raman Activ --     1.2888                 6.1498                 6.9099

                    88                     89                     90
                     A                      A                      A
 Frequencies --  1317.8839              1318.1518              1328.3032
 Red. masses --     1.1889                 1.2197                 1.2881
 Frc consts  --     1.2166                 1.2486                 1.3391
 IR Inten    --     6.9119                31.8581                 2.8792
 Raman Activ --     9.8847                 2.7172                 6.2597

                    91                     92                     93
                     A                      A                      A
 Frequencies --  1332.7188              1349.7721              1359.4921
 Red. masses --     1.4002                 1.1518                 1.4703
 Frc consts  --     1.4652                 1.2364                 1.6011
 IR Inten    --    18.6254                45.9993                 2.8502
 Raman Activ --     2.7593                 2.1910                 3.9950

                    94                     95                     96
                     A                      A                      A
 Frequencies --  1361.5830              1367.8185              1373.2043
 Red. masses --     1.2932                 1.5691                 1.3787
 Frc consts  --     1.4126                 1.7296                 1.5318
 IR Inten    --    36.2212                 1.1919                16.6305
 Raman Activ --     4.8188                 6.5611                 7.0774

                    97                     98                     99
                     A                      A                      A
 Frequencies --  1377.4948              1395.3864              1401.9265
 Red. masses --     1.1540                 1.5536                 1.4766
 Frc consts  --     1.2901                 1.7823                 1.7098
 IR Inten    --     9.2422                 9.8120                 2.0436
 Raman Activ --     2.5883                 2.1282                10.0459

                   100                    101                    102
                     A                      A                      A
 Frequencies --  1409.5550              1461.4381              1462.7797
 Red. masses --     1.5839                 1.1663                 1.3401
 Frc consts  --     1.8542                 1.4677                 1.6895
 IR Inten    --    26.9373                22.8869                13.3756
 Raman Activ --     2.8857                 2.5463                 2.5656

                   103                    104                    105
                     A                      A                      A
 Frequencies --  1472.0372              1476.3799              1480.1975
 Red. masses --     1.1978                 1.0893                 1.2781
 Frc consts  --     1.5292                 1.3990                 1.6499
 IR Inten    --     8.8171                 6.5951                25.1961
 Raman Activ --     1.7738                 3.9482                 1.5079

                   106                    107                    108
                     A                      A                      A
 Frequencies --  1513.7591              1536.3093              3254.6670
 Red. masses --     1.2956                 1.2457                 1.0589
 Frc consts  --     1.7492                 1.7323                 6.6089
 IR Inten    --    66.9297                48.1051                26.4988
 Raman Activ --     0.9893                 1.0500                69.3632

                   109                    110                    111
                     A                      A                      A
 Frequencies --  3256.6396              3268.8126              3269.3813
 Red. masses --     1.0599                 1.0811                 1.0819
 Frc consts  --     6.6232                 6.8061                 6.8133
 IR Inten    --   173.0656                26.9242                44.9615
 Raman Activ --    26.1439               137.0787                17.9353

                   112                    113                    114
                     A                      A                      A
 Frequencies --  3273.7067              3275.6505              3276.4446
 Red. masses --     1.0731                 1.0787                 1.0830
 Frc consts  --     6.7761                 6.8193                 6.8496
 IR Inten    --   308.3663               122.0808                43.8606
 Raman Activ --   226.5267                91.5813                56.9630

                   115                    116                    117
                     A                      A                      A
 Frequencies --  3285.2893              3291.1973              3292.5507
 Red. masses --     1.0857                 1.0887                 1.0847
 Frc consts  --     6.9040                 6.9480                 6.9285
 IR Inten    --     5.3038                 6.6446                 2.0398
 Raman Activ --   118.7057                10.2248                 9.6638

                   118                    119                    120
                     A                      A                      A
 Frequencies --  3297.9482              3302.7422              3307.3417
 Red. masses --     1.0862                 1.0930                 1.0927
 Frc consts  --     6.9606                 7.0243                 7.0423
 IR Inten    --     9.7142                 4.1486                94.6374
 Raman Activ --    89.5605                28.2356                 3.3958

                   121                    122                    123
                     A                      A                      A
 Frequencies --  3307.9534              3316.5811              3322.0631
 Red. masses --     1.0876                 1.1057                 1.0673
 Frc consts  --     7.0122                 7.1659                 6.9401
 IR Inten    --    78.1948                64.5574               515.2330
 Raman Activ --    45.0418                42.2245               151.2442

                   124                    125                    126
                     A                      A                      A
 Frequencies --  3358.2833              3361.5998              3369.0802
 Red. masses --     1.0668                 1.0686                 1.0646
 Frc consts  --     7.0885                 7.1149                 7.1197
 IR Inten    --    39.9304                62.1739                35.7501
 Raman Activ --   162.2352               165.5437                97.9787

                   127                    128                    129
                     A                      A                      A
 Frequencies --  3381.2988              3886.3109              3891.2667
 Red. masses --     1.0675                 1.0673                 1.0675
 Frc consts  --     7.1908                 9.4976                 9.5239
 IR Inten    --    66.2059                43.8057                80.2727
 Raman Activ --   145.3906               153.1105                88.8894

 - Thermochemistry -
 -------------------
 Temperature   298.150 Kelvin.  Pressure   1.00000 Atm.
 Atom     1 has atomic number  8 and mass  15.99491

 Molecular mass:   342.11621 amu.
 Principal axes and moments of inertia in atomic units:
                           1         2         3
     Eigenvalues --  4454.38585********************
           X            0.99997   0.00710  -0.00044
           Y           -0.00710   0.99997   0.00164
           Z            0.00045  -0.00164   1.00000
 This molecule is an asymmetric top.
 Rotational symmetry number  1.
 Warning -- assumption of classical behavior for rotation
           may cause significant error
 Rotational temperatures (Kelvin)      0.01944     0.00712     0.00535
 Rotational constants (GHZ):           0.40516     0.14826     0.11144
    7 imaginary frequencies ignored.
 Zero-point vibrational energy     975891.6 (Joules/Mol)
                                  233.24370 (Kcal/Mol)
 Warning -- explicit consideration of  31 degrees of freedom as
           vibrations may cause significant error
 Vibrational temperatures:     48.13    72.04    96.70   121.64   154.67
          (Kelvin)            224.42   241.56   272.51   298.72   326.03
                              375.20   392.41   403.85   439.39   453.34
                              467.52   474.24   489.75   521.57   554.92
                              592.62   620.95   641.01   648.23   688.82
                              708.95   741.16   782.83   826.95   864.76
                              878.27   906.82   926.30   939.19   997.66
                             1029.05  1034.69  1093.38  1179.89  1207.64
                             1238.54  1331.31  1339.93  1370.47  1400.31
                             1418.32  1428.94  1441.71  1457.05  1476.93
                             1489.10  1515.73  1526.14  1533.23  1544.58
                             1556.50  1578.85  1583.48  1595.72  1602.81
                             1612.76  1626.06  1640.07  1647.83  1656.27
                             1661.42  1686.18  1697.94  1715.60  1741.05
                             1741.92  1773.68  1791.25  1809.18  1820.49
                             1838.11  1839.12  1860.18  1868.79  1876.91
                             1896.14  1896.52  1911.13  1917.48  1942.02
                             1956.00  1959.01  1967.98  1975.73  1981.91
                             2007.65  2017.06  2028.03  2102.68  2104.61
                             2117.93  2124.18  2129.67  2177.96  2210.40
                             4682.73  4685.57  4703.09  4703.90  4710.13
                             4712.92  4714.07  4726.79  4735.29  4737.24
                             4745.01  4751.90  4758.52  4759.40  4771.81
                             4779.70  4831.81  4836.59  4847.35  4864.93
                             5591.53  5598.66

 Zero-point correction=                           0.371698 (Hartree/Particle)
 Thermal correction to Energy=                    0.390039
 Thermal correction to Enthalpy=                  0.390983
 Thermal correction to Gibbs Free Energy=         0.325502
 Sum of electronic and zero-point Energies=          -1297.603352
 Sum of electronic and thermal Energies=             -1297.585011
 Sum of electronic and thermal Enthalpies=           -1297.584067
 Sum of electronic and thermal Free Energies=        -1297.649548

                     E (Thermal)             CV                S
                      KCal/Mol        Cal/Mol-Kelvin    Cal/Mol-Kelvin
 Total                  244.753             75.557            137.815
 Electronic               0.000              0.000              0.000
 Translational            0.889              2.981             43.384
 Rotational               0.889              2.981             35.128
 Vibrational            242.975             69.595             59.303
 Vibration     1          0.594              1.983              5.613
 Vibration     2          0.595              1.978              4.815
 Vibration     3          0.598              1.970              4.233
 Vibration     4          0.601              1.960              3.783
 Vibration     5          0.606              1.943              3.314
 Vibration     6          0.620              1.896              2.598
 Vibration     7          0.625              1.882              2.459
 Vibration     8          0.633              1.854              2.234
 Vibration     9          0.641              1.829              2.064
 Vibration    10          0.650              1.800              1.906
 Vibration    11          0.669              1.744              1.657
 Vibration    12          0.676              1.724              1.579
 Vibration    13          0.680              1.709              1.529
 Vibration    14          0.696              1.663              1.387
 Vibration    15          0.702              1.645              1.335
 Vibration    16          0.709              1.626              1.285
 Vibration    17          0.712              1.616              1.262
 Vibration    18          0.720              1.595              1.210
 Vibration    19          0.736              1.549              1.111
 Vibration    20          0.754              1.501              1.017
 Vibration    21          0.776              1.444              0.920
 Vibration    22          0.793              1.401              0.853
 Vibration    23          0.805              1.371              0.809
 Vibration    24          0.809              1.360              0.794
 Vibration    25          0.835              1.297              0.713
 Vibration    26          0.848              1.266              0.677
 Vibration    27          0.870              1.216              0.621
 Vibration    28          0.899              1.153              0.557
 Vibration    29          0.931              1.086              0.495
 Vibration    30          0.959              1.030              0.448
 Vibration    31          0.969              1.010              0.432

 Normal termination of Gaussian 09 at Fri Apr  1 10:56:45 2016.
