 Gaussian 09, Revision B.01,
 Gaussian 09:  EM64L-G09RevB.01 12-Aug-2010

 -------------------------------------------------
 # freq=raman b3lyp/6-31+g(2d,p) geom=connectivity
 -------------------------------------------------

 -----------------
 483 7880/7880.com
 -----------------
 Symbolic Z-matrix:
 Charge =  0 Multiplicity = 1

                         Standard orientation:
 ---------------------------------------------------------------------
 Center     Atomic      Atomic             Coordinates (Angstroms)
 Number     Number       Type             X           Y           Z
 ---------------------------------------------------------------------
      1          8           0       -5.040478   -0.498699    0.368514
      2          6           0       -3.741965   -0.096252   -0.091894
      3          6           0       -3.260912    1.282508    0.329239
      4          8           0       -4.118230    2.241975   -0.305102
      5          1           0       -5.017927    1.813532   -0.387723
      6          6           0       -1.836360    1.595438   -0.100736
      7          8           0       -1.187195    2.812768    0.293348
      8          1           0       -0.377409    2.910292   -0.284605
      9          6           0       -3.000975   -2.518873   -0.123186
     10          8           0       -4.286132   -3.100955    0.137285
     11          1           0       -4.225742   -4.079731   -0.057595
     12          6           0       -2.704852   -1.110285    0.362856
     13          8           0       -1.387079   -0.856878   -0.147893
     14          6           0       -0.904783    0.440615    0.227391
     15          8           0        0.265639    0.540894   -0.597537
     16          6           0        1.478128    0.182169    0.079098
     17          6           0        2.001570   -1.189414   -0.315136
     18          8           0        1.095683   -2.252908    0.011292
     19          1           0        0.211198   -1.789602    0.066807
     20          6           0        3.405201   -1.593961    0.107044
     21          8           0        3.811080   -2.702969   -0.707318
     22          1           0        4.675176   -2.988633   -0.293815
     23          6           0        2.253636    2.620010    0.062409
     24          8           0        1.204982    3.455893   -0.447144
     25          1           0        1.446936    4.396685   -0.207149
     26          6           0        2.586835    1.169834   -0.247232
     27          8           0        3.736807    0.792546    0.523509
     28          6           0        4.336669   -0.398824   -0.005607
     29          8           0        5.521673   -0.606832    0.777059
     30          1           0        6.268379   -0.758390    0.193055
     31          1           0        4.603471   -0.244153   -1.030202
     32          1           0        3.377977   -1.911283    1.128545
     33          1           0        2.033525   -1.168380   -1.384452
     34          1           0        1.301907    0.195254    1.134406
     35          1           0        2.826197    1.086731   -1.286800
     36          1           0        3.153114    3.153953   -0.162855
     37          1           0        2.119681    2.641787    1.123767
     38          1           0       -5.596471   -0.708547   -0.385432
     39          1           0       -2.265518   -3.165455    0.308015
     40          1           0       -2.857245   -2.526414   -1.183462
     41          1           0       -2.668345   -1.112319    1.432231
     42          1           0       -3.763422   -0.114071   -1.161531
     43          1           0       -3.342075    1.379321    1.391754
     44          1           0       -1.875669    1.636884   -1.169210
     45          1           0       -0.634907    0.456058    1.262682
 ---------------------------------------------------------------------

 SCF Done:  E(RB3LYP) =  -1297.97461946     A.U. after   13 cycles

 The electronic state is 1-A.
 Alpha  occ. eigenvalues --  -19.18865 -19.18766 -19.18394 -19.18176 -19.18084
 Alpha  occ. eigenvalues --  -19.17248 -19.16862 -19.16032 -19.15204 -19.13710
 Alpha  occ. eigenvalues --  -19.13650 -10.30695 -10.30240 -10.26555 -10.25586
 Alpha  occ. eigenvalues --  -10.25456 -10.25444 -10.25304 -10.24747 -10.24632
 Alpha  occ. eigenvalues --  -10.24321 -10.23796 -10.23681  -1.10436  -1.09318
 Alpha  occ. eigenvalues --   -1.05731  -1.05468  -1.04158  -1.03985  -1.03223
 Alpha  occ. eigenvalues --   -1.02557  -1.02165  -1.00791  -1.00290  -0.82082
 Alpha  occ. eigenvalues --   -0.80575  -0.79212  -0.78188  -0.72030  -0.70029
 Alpha  occ. eigenvalues --   -0.67438  -0.65227  -0.63209  -0.62634  -0.61406
 Alpha  occ. eigenvalues --   -0.60194  -0.56541  -0.56044  -0.55197  -0.54758
 Alpha  occ. eigenvalues --   -0.54243  -0.53410  -0.52930  -0.51548  -0.51186
 Alpha  occ. eigenvalues --   -0.50738  -0.50018  -0.49433  -0.49166  -0.46784
 Alpha  occ. eigenvalues --   -0.46172  -0.45193  -0.44236  -0.43852  -0.43333
 Alpha  occ. eigenvalues --   -0.42821  -0.41961  -0.41465  -0.39853  -0.39480
 Alpha  occ. eigenvalues --   -0.39053  -0.38489  -0.37309  -0.36340  -0.35929
 Alpha  occ. eigenvalues --   -0.35705  -0.35369  -0.34878  -0.34354  -0.33350
 Alpha  occ. eigenvalues --   -0.32991  -0.31703  -0.31223  -0.30699  -0.30000
 Alpha  occ. eigenvalues --   -0.29408  -0.28616  -0.28344  -0.27668  -0.26532
 Alpha  occ. eigenvalues --   -0.26155
 Alpha virt. eigenvalues --   -0.02276  -0.02074  -0.02007  -0.00299   0.00326
 Alpha virt. eigenvalues --    0.00983   0.02004   0.02505   0.03039   0.03492
 Alpha virt. eigenvalues --    0.03925   0.04435   0.04541   0.05369   0.05807

 Mulliken atomic charges:
              1
     1  O   -0.517343
     2  C   -0.172576
     3  C    0.313616
     4  O   -0.543876
     5  H    0.330394
     6  C   -0.246541
     7  O   -0.540545
     8  H    0.406590
     9  C   -0.189315
    10  O   -0.547296
    11  H    0.340205
    12  C    0.152567
    13  O   -0.241422
    14  C    0.330588
    15  O   -0.196939
    16  C    0.124408
    17  C    0.164047
    18  O   -0.581761
    19  H    0.383230
    20  C    0.130799
    21  O   -0.516999
    22  H    0.327588
    23  C   -0.376289
    24  O   -0.547615
    25  H    0.355160
    26  C    0.046829
    27  O   -0.246603
    28  C    0.077760
    29  O   -0.535164
    30  H    0.334678
    31  H    0.127911
    32  H    0.138824
    33  H    0.119868
    34  H    0.114804
    35  H    0.122557
    36  H    0.143482
    37  H    0.157351
    38  H    0.348560
    39  H    0.145831
    40  H    0.143524
    41  H    0.112738
    42  H    0.127242
    43  H    0.125015
    44  H    0.131534
    45  H    0.122583
 Sum of Mulliken atomic charges =   0.00000

 Dipole moment (field-independent basis, Debye):
    X=              2.5227    Y=             -0.2619    Z=             -1.7074  Tot=              3.0574
 Quadrupole moment (field-independent basis, Debye-Ang):
   XX=           -117.1633   YY=           -136.4558   ZZ=           -140.9494
   XY=             15.4908   XZ=              1.5880   YZ=             -0.7861

  Exact polarizability: 232.811  -0.893 197.602   1.006   0.033 143.109
 Approx polarizability: 272.923  -0.156 257.682   1.331  -0.278 239.976

 ******    7 imaginary frequencies (negative Signs) ******

                     1                      2                      3
                     A                      A                      A
 Frequencies --  -349.9818              -294.9949              -270.0578
 Red. masses --     1.6490                 1.4518                 1.2032
 Frc consts  --     0.1190                 0.0744                 0.0517
 IR Inten    --     3.0565                58.4139               107.6990
 Raman Activ --     0.0038                 0.3553                 0.9394

                     4                      5                      6
                     A                      A                      A
 Frequencies --  -256.6757               -71.7064               -59.0308
 Red. masses --     1.3670                 6.6928                 6.4108
 Frc consts  --     0.0531                 0.0203                 0.0132
 IR Inten    --    55.4124                 0.8939                 0.2069
 Raman Activ --     0.5735                 0.0243                 0.0204

                     7                      8                      9
                     A                      A                      A
 Frequencies --   -15.1994                24.9556                46.5953
 Red. masses --     5.8972                 6.6266                 6.3063
 Frc consts  --     0.0008                 0.0024                 0.0081
 IR Inten    --     2.5151                 0.4844                 1.0400
 Raman Activ --     0.0415                 0.0458                 0.0383

                    10                     11                     12
                     A                      A                      A
 Frequencies --    70.4872                81.6542               125.3505
 Red. masses --     6.6499                 6.7318                 5.9068
 Frc consts  --     0.0195                 0.0264                 0.0547
 IR Inten    --     0.3135                 0.5259                 0.5703
 Raman Activ --     0.1541                 0.0843                 0.0192

                    13                     14                     15
                     A                      A                      A
 Frequencies --   161.2260               185.2139               199.5950
 Red. masses --     6.2392                 6.5118                 5.8585
 Frc consts  --     0.0956                 0.1316                 0.1375
 IR Inten    --     4.2788                 4.3915                 0.8627
 Raman Activ --     0.5713                 0.9994                 0.2038

                    16                     17                     18
                     A                      A                      A
 Frequencies --   216.6076               237.9561               267.2457
 Red. masses --     7.1747                 5.9166                 4.7016
 Frc consts  --     0.1983                 0.1974                 0.1978
 IR Inten    --     0.1796                 3.6420                12.3636
 Raman Activ --     2.2475                 0.4453                 0.5575

                    19                     20                     21
                     A                      A                      A
 Frequencies --   274.6592               284.8798               298.0748
 Red. masses --     4.7554                 4.7147                 5.2112
 Frc consts  --     0.2114                 0.2254                 0.2728
 IR Inten    --     4.6253                 1.7441                 4.5712
 Raman Activ --     0.2144                 0.2331                 0.7082

                    22                     23                     24
                     A                      A                      A
 Frequencies --   303.8838               310.0071               326.2989
 Red. masses --     5.2826                 5.8204                 6.6541
 Frc consts  --     0.2874                 0.3296                 0.4174
 IR Inten    --     3.0768                 1.1027                 7.8064
 Raman Activ --     0.3192                 4.1187                 3.5572

                    25                     26                     27
                     A                      A                      A
 Frequencies --   346.8046               368.2115               391.3762
 Red. masses --     6.7590                 5.2452                 6.9754
 Frc consts  --     0.4790                 0.4190                 0.6295
 IR Inten    --     8.4414                 1.2789                 1.2673
 Raman Activ --     1.4627                 1.1666                 0.9981

                    28                     29                     30
                     A                      A                      A
 Frequencies --   409.6576               415.9094               434.5161
 Red. masses --     6.3489                 4.0773                 5.7137
 Frc consts  --     0.6278                 0.4155                 0.6356
 IR Inten    --     7.2413                13.9307                 0.7857
 Raman Activ --     5.4552                 2.9501                 1.9443

                    31                     32                     33
                     A                      A                      A
 Frequencies --   436.5305               481.2473               493.3810
 Red. masses --     4.4838                 4.5863                 4.1667
 Frc consts  --     0.5034                 0.6258                 0.5976
 IR Inten    --     8.9711                 4.9598                 7.2388
 Raman Activ --     2.6569                 1.1393                 1.9673

                    34                     35                     36
                     A                      A                      A
 Frequencies --   515.1430               529.1502               561.8986
 Red. masses --     3.7255                 3.1088                 4.9425
 Frc consts  --     0.5825                 0.5129                 0.9194
 IR Inten    --     8.3468                10.7899                21.0682
 Raman Activ --     3.5363                 3.4178                 2.9145

                    37                     38                     39
                     A                      A                      A
 Frequencies --   577.8546               591.1172               616.3110
 Red. masses --     2.9957                 6.3252                 5.2864
 Frc consts  --     0.5894                 1.3022                 1.1831
 IR Inten    --    31.0180                 2.0205                19.0717
 Raman Activ --     0.2535                 1.1335                 0.6227

                    40                     41                     42
                     A                      A                      A
 Frequencies --   634.7008               689.9740               692.9393
 Red. masses --     3.7757                 2.1084                 1.5956
 Frc consts  --     0.8962                 0.5914                 0.4514
 IR Inten    --    34.7352                47.9419                78.0256
 Raman Activ --     0.6905                 2.4097                 1.0811

                    43                     44                     45
                     A                      A                      A
 Frequencies --   713.5228               732.9624               750.9864
 Red. masses --     1.0675                 1.0783                 1.0963
 Frc consts  --     0.3202                 0.3413                 0.3643
 IR Inten    --    95.8133                86.5950                96.8892
 Raman Activ --     1.8771                 1.4289                 1.7123

                    46                     47                     48
                     A                      A                      A
 Frequencies --   771.1534               836.4640               854.7777
 Red. masses --     1.0809                 1.2230                 1.7650
 Frc consts  --     0.3787                 0.5042                 0.7598
 IR Inten    --    52.3826                88.3738                 3.5364
 Raman Activ --     0.2023                 1.5212                 0.6527

                    49                     50                     51
                     A                      A                      A
 Frequencies --   861.8374               938.1789               954.5594
 Red. masses --     1.4931                 5.3448                 5.8639
 Frc consts  --     0.6534                 2.7718                 3.1481
 IR Inten    --    21.6705               177.7383                21.4786
 Raman Activ --     0.6949                 2.2604                 0.5865

                    52                     53                     54
                     A                      A                      A
 Frequencies --   966.6873               983.5614               988.4810
 Red. masses --     6.0645                 5.4847                 6.0770
 Frc consts  --     3.3390                 3.1261                 3.4985
 IR Inten    --   136.6917               123.4360                68.3141
 Raman Activ --     0.8642                 2.8958                 2.7881

                    55                     56                     57
                     A                      A                      A
 Frequencies --  1002.6616              1010.2583              1022.6904
 Red. masses --     6.5952                 5.7696                 6.3995
 Frc consts  --     3.9065                 3.4694                 3.9435
 IR Inten    --   223.7752               195.3641               154.1039
 Raman Activ --     1.7982                 1.1376                 3.2250

                    58                     59                     60
                     A                      A                      A
 Frequencies --  1035.9689              1049.2666              1066.8633
 Red. masses --     7.5522                 4.6956                 4.9538
 Frc consts  --     4.7755                 3.0459                 3.3220
 IR Inten    --   235.3573                82.4834               137.9237
 Raman Activ --     1.3019                 4.4274                 4.7873

                    61                     62                     63
                     A                      A                      A
 Frequencies --  1067.8263              1076.3835              1081.9296
 Red. masses --     4.8899                 5.0055                 3.6123
 Frc consts  --     3.2851                 3.4169                 2.4913
 IR Inten    --    20.8728                11.7060                 0.5870
 Raman Activ --     6.9750                 2.7357                11.2872

                    64                     65                     66
                     A                      A                      A
 Frequencies --  1095.3486              1108.1421              1113.5265
 Red. masses --     2.9808                 3.5310                 3.2048
 Frc consts  --     2.1071                 2.5547                 2.3413
 IR Inten    --    56.3058                55.0755                13.9892
 Raman Activ --    21.6274                 1.1263                 3.7903

                    67                     68                     69
                     A                      A                      A
 Frequencies --  1126.6280              1131.2299              1137.9537
 Red. masses --     2.6176                 2.8584                 2.7049
 Frc consts  --     1.9576                 2.1552                 2.0638
 IR Inten    --     8.1743                48.5230                 7.2955
 Raman Activ --     6.0563                 7.4269                 3.6550

                    70                     71                     72
                     A                      A                      A
 Frequencies --  1149.4926              1161.5279              1164.7460
 Red. masses --     2.5847                 1.6107                 1.7243
 Frc consts  --     2.0122                 1.2803                 1.3782
 IR Inten    --    30.3954                 7.5537                18.4648
 Raman Activ --     3.3850                 1.0415                 7.0147

                    73                     74                     75
                     A                      A                      A
 Frequencies --  1178.9642              1185.4099              1195.9569
 Red. masses --     2.1004                 1.5637                 2.0394
 Frc consts  --     1.7201                 1.2946                 1.7186
 IR Inten    --    26.5542                 1.6716                 4.2239
 Raman Activ --     0.9545                 1.5275                 0.3824

                    76                     77                     78
                     A                      A                      A
 Frequencies --  1215.4573              1218.8076              1234.4549
 Red. masses --     1.3947                 1.3971                 1.2494
 Frc consts  --     1.2140                 1.2228                 1.1217
 IR Inten    --    24.9636                 8.7614                 1.8736
 Raman Activ --     1.9546                 1.8690                 1.8502

                    79                     80                     81
                     A                      A                      A
 Frequencies --  1240.5400              1250.4076              1257.1587
 Red. masses --     1.1975                 1.2342                 1.2361
 Frc consts  --     1.0858                 1.1370                 1.1510
 IR Inten    --     7.7119                31.3292                14.6698
 Raman Activ --     2.4998                 0.3987                 1.7384

                    82                     83                     84
                     A                      A                      A
 Frequencies --  1284.1518              1289.6384              1294.8182
 Red. masses --     1.2857                 1.3264                 1.3820
 Frc consts  --     1.2492                 1.2997                 1.3651
 IR Inten    --    21.2025                 0.8696                19.6148
 Raman Activ --     0.7571                 2.0169                 1.3841

                    85                     86                     87
                     A                      A                      A
 Frequencies --  1303.9890              1311.5685              1314.0617
 Red. masses --     1.2550                 1.2759                 1.2229
 Frc consts  --     1.2573                 1.2932                 1.2441
 IR Inten    --    16.4589                25.2062                16.8754
 Raman Activ --     2.2197                 3.0054                 7.4324

                    88                     89                     90
                     A                      A                      A
 Frequencies --  1326.6242              1331.6708              1334.8776
 Red. masses --     1.3212                 1.3197                 1.1744
 Frc consts  --     1.3700                 1.3788                 1.2330
 IR Inten    --    13.8014                 9.1710                40.4780
 Raman Activ --    11.1633                 3.3797                 1.9717

                    91                     92                     93
                     A                      A                      A
 Frequencies --  1341.1903              1344.8125              1359.3969
 Red. masses --     1.3119                 1.3099                 1.1630
 Frc consts  --     1.3904                 1.3958                 1.2662
 IR Inten    --    17.1184                19.1059                26.2883
 Raman Activ --     4.8495                 3.9882                 7.1063

                    94                     95                     96
                     A                      A                      A
 Frequencies --  1375.1433              1377.2796              1384.3835
 Red. masses --     1.3832                 1.5038                 1.1497
 Frc consts  --     1.5411                 1.6807                 1.2982
 IR Inten    --     5.6262                 1.5191                34.4907
 Raman Activ --     7.3314                 4.0982                 3.4679

                    97                     98                     99
                     A                      A                      A
 Frequencies --  1390.0115              1400.7976              1409.3809
 Red. masses --     1.3751                 1.3812                 1.4018
 Frc consts  --     1.5654                 1.5968                 1.6406
 IR Inten    --     7.5505                 4.2043                 5.7420
 Raman Activ --     8.1228                 3.6716                 5.4564

                   100                    101                    102
                     A                      A                      A
 Frequencies --  1448.8676              1458.9581              1462.8452
 Red. masses --     1.2706                 1.3364                 1.0949
 Frc consts  --     1.5715                 1.6760                 1.3804
 IR Inten    --    77.6750                36.9266                13.2444
 Raman Activ --     1.2354                 1.5021                 5.0265

                   103                    104                    105
                     A                      A                      A
 Frequencies --  1469.2622              1469.8889              1477.5558
 Red. masses --     1.2668                 1.2917                 1.2405
 Frc consts  --     1.6112                 1.6443                 1.5957
 IR Inten    --    22.8479                64.9882                10.5896
 Raman Activ --     4.6277                 2.6088                 1.0681

                   106                    107                    108
                     A                      A                      A
 Frequencies --  1493.3310              1553.3217              3250.0234
 Red. masses --     1.3300                 1.2187                 1.0588
 Frc consts  --     1.7475                 1.7325                 6.5895
 IR Inten    --    18.8140                50.7827               119.2764
 Raman Activ --     0.8149                 0.8541                38.3657

                   109                    110                    111
                     A                      A                      A
 Frequencies --  3256.3604              3260.0556              3268.0161
 Red. masses --     1.0573                 1.0799                 1.0794
 Frc consts  --     6.6054                 6.7619                 6.7919
 IR Inten    --    29.8433                25.4331                63.7290
 Raman Activ --    80.7465                83.8387                58.2567

                   112                    113                    114
                     A                      A                      A
 Frequencies --  3269.7412              3271.7142              3276.7948
 Red. masses --     1.0821                 1.0807                 1.0818
 Frc consts  --     6.8163                 6.8159                 6.8436
 IR Inten    --    26.7382                73.4009               143.4284
 Raman Activ --    86.1557               233.0387                19.5470

                   115                    116                    117
                     A                      A                      A
 Frequencies --  3277.4066              3279.4447              3283.2291
 Red. masses --     1.0748                 1.0847                 1.0866
 Frc consts  --     6.8021                 6.8733                 6.9013
 IR Inten    --   292.6355                11.2330                 4.0428
 Raman Activ --   116.8928               141.6928                24.6628

                   118                    119                    120
                     A                      A                      A
 Frequencies --  3289.7043              3296.8645              3298.3239
 Red. masses --     1.0852                 1.0867                 1.0856
 Frc consts  --     6.9194                 6.9595                 6.9582
 IR Inten    --     1.8896                68.3262               142.1629
 Raman Activ --     9.1275                27.3639                16.9263

                   121                    122                    123
                     A                      A                      A
 Frequencies --  3305.8156              3309.3636              3311.3492
 Red. masses --     1.0731                 1.1026                 1.1022
 Frc consts  --     6.9094                 7.1146                 7.1208
 IR Inten    --   557.4988                53.9446               114.1676
 Raman Activ --   116.5262                32.0140                47.8489

                   124                    125                    126
                     A                      A                      A
 Frequencies --  3359.4741              3366.2075              3367.9076
 Red. masses --     1.0660                 1.0672                 1.0671
 Frc consts  --     7.0881                 7.1250                 7.1313
 IR Inten    --    25.6604                86.4041                38.2537
 Raman Activ --    93.6282               136.4235               181.0583

                   127                    128                    129
                     A                      A                      A
 Frequencies --  3373.6393              3890.0434              3893.0612
 Red. masses --     1.0654                 1.0678                 1.0674
 Frc consts  --     7.1442                 9.5202                 9.5317
 IR Inten    --    26.1395                87.0819                75.1823
 Raman Activ --   138.7295                77.7359               110.3256

 - Thermochemistry -
 -------------------
 Temperature   298.150 Kelvin.  Pressure   1.00000 Atm.
 Atom     1 has atomic number  8 and mass  15.99491

 Molecular mass:   342.11621 amu.
 Principal axes and moments of inertia in atomic units:
                           1         2         3
     Eigenvalues --  4454.58048********************
           X            0.99997   0.00766  -0.00001
           Y           -0.00766   0.99997   0.00071
           Z            0.00002  -0.00071   1.00000
 This molecule is an asymmetric top.
 Rotational symmetry number  1.
 Warning -- assumption of classical behavior for rotation
           may cause significant error
 Rotational temperatures (Kelvin)      0.01944     0.00704     0.00531
 Rotational constants (GHZ):           0.40514     0.14666     0.11059
    7 imaginary frequencies ignored.
 Zero-point vibrational energy     976730.3 (Joules/Mol)
                                  233.44414 (Kcal/Mol)
 Warning -- explicit consideration of  32 degrees of freedom as
           vibrations may cause significant error
 Vibrational temperatures:     35.91    67.04   101.42   117.48   180.35
          (Kelvin)            231.97   266.48   287.17   311.65   342.37
                              384.51   395.17   409.88   428.86   437.22
                              446.03   469.47   498.97   529.77   563.10
                              589.41   598.40   625.17   628.07   692.41
                              709.86   741.17   761.33   808.45   831.40
                              850.48   886.73   913.19   992.72   996.98
                             1026.60  1054.57  1080.50  1109.52  1203.48
                             1229.83  1239.99  1349.83  1373.40  1390.85
                             1415.12  1422.20  1442.60  1453.53  1471.42
                             1490.53  1509.66  1534.98  1536.36  1548.67
                             1556.65  1575.96  1594.37  1602.11  1620.96
                             1627.59  1637.26  1653.86  1671.18  1675.81
                             1696.26  1705.54  1720.71  1748.77  1753.59
                             1776.10  1784.86  1799.06  1808.77  1847.61
                             1855.50  1862.95  1876.15  1887.05  1890.64
                             1908.71  1915.97  1920.59  1929.67  1934.88
                             1955.87  1978.52  1981.60  1991.82  1999.91
                             2015.43  2027.78  2084.59  2099.11  2104.71
                             2113.94  2114.84  2125.87  2148.57  2234.88
                             4676.05  4685.17  4690.49  4701.94  4704.42
                             4707.26  4714.57  4715.45  4718.38  4723.83
                             4733.14  4743.45  4745.55  4756.33  4761.43
                             4764.29  4833.53  4843.22  4845.66  4853.91
                             5596.90  5601.24

 Zero-point correction=                           0.372017 (Hartree/Particle)
 Thermal correction to Energy=                    0.390353
 Thermal correction to Enthalpy=                  0.391297
 Thermal correction to Gibbs Free Energy=         0.325712
 Sum of electronic and zero-point Energies=          -1297.602603
 Sum of electronic and thermal Energies=             -1297.584266
 Sum of electronic and thermal Enthalpies=           -1297.583322
 Sum of electronic and thermal Free Energies=        -1297.648907

                     E (Thermal)             CV                S
                      KCal/Mol        Cal/Mol-Kelvin    Cal/Mol-Kelvin
 Total                  244.950             75.648            138.036
 Electronic               0.000              0.000              0.000
 Translational            0.889              2.981             43.384
 Rotational               0.889              2.981             35.146
 Vibrational            243.173             69.686             59.505
 Vibration     1          0.593              1.985              6.195
 Vibration     2          0.595              1.979              4.957
 Vibration     3          0.598              1.968              4.140
 Vibration     4          0.600              1.962              3.851
 Vibration     5          0.610              1.928              3.016
 Vibration     6          0.622              1.890              2.535
 Vibration     7          0.631              1.860              2.275
 Vibration     8          0.638              1.840              2.137
 Vibration     9          0.645              1.816              1.987
 Vibration    10          0.656              1.783              1.818
 Vibration    11          0.672              1.733              1.614
 Vibration    12          0.677              1.720              1.567
 Vibration    13          0.683              1.702              1.504
 Vibration    14          0.691              1.677              1.428
 Vibration    15          0.695              1.666              1.395
 Vibration    16          0.699              1.655              1.362
 Vibration    17          0.710              1.623              1.278
 Vibration    18          0.725              1.582              1.181
 Vibration    19          0.741              1.538              1.087
 Vibration    20          0.759              1.489              0.995
 Vibration    21          0.774              1.449              0.928
 Vibration    22          0.779              1.436              0.906
 Vibration    23          0.795              1.395              0.844
 Vibration    24          0.797              1.391              0.838
 Vibration    25          0.838              1.292              0.707
 Vibration    26          0.849              1.265              0.675
 Vibration    27          0.870              1.216              0.621
 Vibration    28          0.884              1.185              0.589
 Vibration    29          0.918              1.114              0.520
 Vibration    30          0.934              1.079              0.489
 Vibration    31          0.949              1.051              0.465
 Vibration    32          0.976              0.997              0.422

 Normal termination of Gaussian 09 at Thu Mar 31 02:38:34 2016.
