 Gaussian 09, Revision B.01,
 Gaussian 09:  EM64L-G09RevB.01 12-Aug-2010

 -------------------------------------------------
 # freq=raman b3lyp/6-31+g(2d,p) geom=connectivity
 -------------------------------------------------

 -----------------
 320 7780/7780.com
 -----------------
 Symbolic Z-matrix:
 Charge =  0 Multiplicity = 1

                         Standard orientation:
 ---------------------------------------------------------------------
 Center     Atomic      Atomic             Coordinates (Angstroms)
 Number     Number       Type             X           Y           Z
 ---------------------------------------------------------------------
      1          8           0       -5.053867   -0.356767    0.426512
      2          6           0       -3.717004   -0.119302   -0.039772
      3          6           0       -3.238018    1.261058    0.380647
      4          8           0       -4.073015    2.272152   -0.201738
      5          1           0       -4.976988    2.098895    0.189470
      6          6           0       -1.861845    1.609464   -0.161931
      7          8           0       -1.290351    2.587082    0.719216
      8          1           0       -0.474860    3.025820    0.341137
      9          6           0       -2.995064   -2.574457   -0.200382
     10          8           0       -3.993186   -3.332762    0.498831
     11          1           0       -3.823687   -4.307360    0.353308
     12          6           0       -2.623112   -1.151629    0.180728
     13          8           0       -1.444957   -0.825357   -0.571812
     14          6           0       -0.928799    0.413400   -0.064931
     15          8           0        0.277539    0.628391   -0.811425
     16          6           0        1.449247    0.251292   -0.075010
     17          6           0        2.008396   -1.108097   -0.458671
     18          8           0        1.017727   -2.135084   -0.304222
     19          1           0        0.171109   -1.750137   -0.669767
     20          6           0        3.313919   -1.548011    0.183101
     21          8           0        3.822675   -2.816639   -0.255634
     22          1           0        4.630378   -3.020011    0.298020
     23          6           0        2.306020    2.631826    0.011980
     24          8           0        1.105021    3.317681   -0.369876
     25          1           0        1.227355    4.306836   -0.451884
     26          6           0        2.632438    1.180010   -0.297960
     27          8           0        3.791073    0.827453    0.469962
     28          6           0        4.314219   -0.419553   -0.011509
     29          8           0        5.404621   -0.499131    0.918163
     30          1           0        6.221341   -0.661194    0.440351
     31          1           0        3.112050    3.205689   -0.395326
     32          1           0        2.369503    2.724622    1.076056
     33          1           0        2.898538    1.120638   -1.332642
     34          1           0        1.210190    0.242972    0.967910
     35          1           0        2.209146   -1.049803   -1.508053
     36          1           0        3.133868   -1.631842    1.234507
     37          1           0        4.655140   -0.346042   -1.023077
     38          1           0       -5.623804   -0.550964   -0.321191
     39          1           0       -2.092135   -3.146881   -0.156231
     40          1           0       -3.298830   -2.544907   -1.225932
     41          1           0       -2.366735   -1.143500    1.219527
     42          1           0       -3.815470   -0.063011   -1.103744
     43          1           0       -3.246202    1.346238    1.447219
     44          1           0       -1.919475    1.977920   -1.164837
     45          1           0       -0.669045    0.273872    0.963640
 ---------------------------------------------------------------------

 SCF Done:  E(RB3LYP) =  -1297.97462296     A.U. after   13 cycles

 The electronic state is 1-A.
 Alpha  occ. eigenvalues --  -19.18719 -19.18670 -19.18352 -19.18214 -19.17632
 Alpha  occ. eigenvalues --  -19.16906 -19.16759 -19.15897 -19.15205 -19.13588
 Alpha  occ. eigenvalues --  -19.13403 -10.30644 -10.29731 -10.25936 -10.25569
 Alpha  occ. eigenvalues --  -10.25347 -10.25080 -10.25071 -10.24682 -10.24190
 Alpha  occ. eigenvalues --  -10.24093 -10.23947 -10.23819  -1.10202  -1.09670
 Alpha  occ. eigenvalues --   -1.05314  -1.04979  -1.04103  -1.03503  -1.02620
 Alpha  occ. eigenvalues --   -1.02315  -1.02131  -1.00616  -1.00066  -0.82027
 Alpha  occ. eigenvalues --   -0.80120  -0.79407  -0.77993  -0.71871  -0.69960
 Alpha  occ. eigenvalues --   -0.67179  -0.65026  -0.63269  -0.62503  -0.61454
 Alpha  occ. eigenvalues --   -0.60009  -0.56482  -0.55371  -0.55108  -0.54804
 Alpha  occ. eigenvalues --   -0.54169  -0.53418  -0.52581  -0.51912  -0.51420
 Alpha  occ. eigenvalues --   -0.50698  -0.49730  -0.48832  -0.48333  -0.46445
 Alpha  occ. eigenvalues --   -0.46084  -0.44657  -0.44241  -0.43568  -0.42917
 Alpha  occ. eigenvalues --   -0.42566  -0.42120  -0.41011  -0.39900  -0.39724
 Alpha  occ. eigenvalues --   -0.38983  -0.38109  -0.37358  -0.36098  -0.35891
 Alpha  occ. eigenvalues --   -0.35235  -0.34505  -0.34059  -0.33615  -0.33446
 Alpha  occ. eigenvalues --   -0.32526  -0.31639  -0.31047  -0.30413  -0.29972
 Alpha  occ. eigenvalues --   -0.29665  -0.28511  -0.28385  -0.27837  -0.26504
 Alpha  occ. eigenvalues --   -0.26157
 Alpha virt. eigenvalues --   -0.02273  -0.01850  -0.01695  -0.00109   0.00166
 Alpha virt. eigenvalues --    0.01248   0.02213   0.02340   0.02957   0.03579
 Alpha virt. eigenvalues --    0.03932   0.04284   0.04969   0.05465   0.05635

 Mulliken atomic charges:
              1
     1  O   -0.547289
     2  C   -0.216618
     3  C    0.414550
     4  O   -0.550520
     5  H    0.339087
     6  C   -0.268100
     7  O   -0.577815
     8  H    0.405869
     9  C   -0.213563
    10  O   -0.520356
    11  H    0.336697
    12  C    0.414893
    13  O   -0.276522
    14  C    0.250715
    15  O   -0.185526
    16  C    0.157944
    17  C    0.147313
    18  O   -0.561262
    19  H    0.375159
    20  C    0.035383
    21  O   -0.536843
    22  H    0.336567
    23  C   -0.368905
    24  O   -0.589394
    25  H    0.370936
    26  C   -0.032980
    27  O   -0.210652
    28  C    0.133452
    29  O   -0.527427
    30  H    0.328167
    31  H    0.138280
    32  H    0.157056
    33  H    0.113925
    34  H    0.110273
    35  H    0.111606
    36  H    0.130896
    37  H    0.133233
    38  H    0.341068
    39  H    0.148291
    40  H    0.137427
    41  H    0.109999
    42  H    0.112807
    43  H    0.134781
    44  H    0.140991
    45  H    0.116408
 Sum of Mulliken atomic charges =   0.00000

 Dipole moment (field-independent basis, Debye):
    X=              2.7888    Y=              0.9118    Z=             -2.2402  Tot=              3.6915
 Quadrupole moment (field-independent basis, Debye-Ang):
   XX=           -117.0821   YY=           -131.3271   ZZ=           -142.3723
   XY=             10.7517   XZ=              1.6755   YZ=             -2.8614

  Exact polarizability: 232.078  -2.165 197.885   0.839  -0.203 143.955
 Approx polarizability: 272.853  -2.174 256.772   0.729  -0.888 241.558

 ******    6 imaginary frequencies (negative Signs) ******

                     1                      2                      3
                     A                      A                      A
 Frequencies --  -323.1019              -305.9924              -250.6460
 Red. masses --     1.6731                 1.7036                 1.1826
 Frc consts  --     0.1029                 0.0940                 0.0438
 IR Inten    --     2.8648                 5.3448                99.5679
 Raman Activ --     0.0294                 0.1110                 0.7643

                     4                      5                      6
                     A                      A                      A
 Frequencies --  -186.4806               -66.8875               -57.4861
 Red. masses --     1.2118                 6.7857                 6.1198
 Frc consts  --     0.0248                 0.0179                 0.0119
 IR Inten    --    96.3952                 0.9089                 0.3191
 Raman Activ --     0.6070                 0.0604                 0.0413

                     7                      8                      9
                     A                      A                      A
 Frequencies --    39.9488                59.9933                79.8396
 Red. masses --     7.1798                 6.3466                 5.6460
 Frc consts  --     0.0068                 0.0135                 0.0212
 IR Inten    --     0.0825                 1.0986                 4.7321
 Raman Activ --     0.0808                 0.0689                 0.0581

                    10                     11                     12
                     A                      A                      A
 Frequencies --    82.0671                99.0615               117.5424
 Red. masses --     6.0530                 6.4435                 6.0692
 Frc consts  --     0.0240                 0.0373                 0.0494
 IR Inten    --     2.7975                 2.3976                 2.5146
 Raman Activ --     0.0870                 0.1430                 0.1967

                    13                     14                     15
                     A                      A                      A
 Frequencies --   156.1651               175.2924               187.9809
 Red. masses --     6.4050                 7.4483                 5.7757
 Frc consts  --     0.0920                 0.1348                 0.1202
 IR Inten    --     2.8733                 0.1126                 2.7948
 Raman Activ --     0.4137                 0.6684                 1.0752

                    16                     17                     18
                     A                      A                      A
 Frequencies --   211.0736               228.2427               263.3769
 Red. masses --     6.3788                 5.9938                 4.8913
 Frc consts  --     0.1674                 0.1840                 0.1999
 IR Inten    --     0.5845                 2.2981                14.6412
 Raman Activ --     1.0938                 0.5841                 0.4619

                    19                     20                     21
                     A                      A                      A
 Frequencies --   272.0815               289.6559               297.8616
 Red. masses --     5.2537                 4.3523                 5.9677
 Frc consts  --     0.2291                 0.2151                 0.3119
 IR Inten    --     0.9230                 4.3746                 4.1214
 Raman Activ --     0.1731                 0.3267                 0.1765

                    22                     23                     24
                     A                      A                      A
 Frequencies --   313.1894               317.8288               322.4892
 Red. masses --     4.6480                 6.1274                 7.0197
 Frc consts  --     0.2686                 0.3647                 0.4301
 IR Inten    --     6.5596                 2.0171                 5.3254
 Raman Activ --     0.0959                 3.0916                 5.4866

                    25                     26                     27
                     A                      A                      A
 Frequencies --   342.7013               368.5712               380.8587
 Red. masses --     6.6117                 4.4539                 7.3491
 Frc consts  --     0.4575                 0.3565                 0.6281
 IR Inten    --     4.9281                 4.2702                 0.8845
 Raman Activ --     2.6201                 0.7701                 2.1722

                    28                     29                     30
                     A                      A                      A
 Frequencies --   404.7818               429.8664               437.6243
 Red. masses --     5.9717                 4.7123                 5.5863
 Frc consts  --     0.5765                 0.5130                 0.6303
 IR Inten    --     5.3421                 8.9242                 5.6390
 Raman Activ --     2.5059                 6.2101                 2.8607

                    31                     32                     33
                     A                      A                      A
 Frequencies --   450.1736               478.0318               492.0826
 Red. masses --     4.3637                 5.1076                 3.8923
 Frc consts  --     0.5210                 0.6877                 0.5553
 IR Inten    --     7.9736                 4.7412                13.3575
 Raman Activ --     1.7748                 1.3082                 0.4764

                    34                     35                     36
                     A                      A                      A
 Frequencies --   507.6479               539.6703               566.1211
 Red. masses --     4.0650                 3.0530                 4.2776
 Frc consts  --     0.6172                 0.5239                 0.8077
 IR Inten    --     8.1914                 8.4742                 5.9116
 Raman Activ --     4.3113                 3.3258                 2.2446

                    37                     38                     39
                     A                      A                      A
 Frequencies --   584.4515               598.7304               630.1736
 Red. masses --     3.1122                 5.5044                 5.4924
 Frc consts  --     0.6263                 1.1626                 1.2851
 IR Inten    --    42.4005                17.6543                 3.5533
 Raman Activ --     0.7071                 0.3582                 0.3785

                    40                     41                     42
                     A                      A                      A
 Frequencies --   640.9684               662.5487               680.3491
 Red. masses --     4.1017                 1.0943                 1.0961
 Frc consts  --     0.9929                 0.2830                 0.2989
 IR Inten    --    41.9462                89.4899               127.7898
 Raman Activ --     1.0195                 1.5431                 1.3625

                    43                     44                     45
                     A                      A                      A
 Frequencies --   692.6449               729.5775               773.2400
 Red. masses --     4.7131                 1.0733                 1.1069
 Frc consts  --     1.3322                 0.3366                 0.3899
 IR Inten    --     9.2685                91.5373               102.0719
 Raman Activ --     1.9251                 1.7195                 1.6265

                    46                     47                     48
                     A                      A                      A
 Frequencies --   811.4788               837.6003               843.8396
 Red. masses --     1.0822                 1.3539                 1.7411
 Frc consts  --     0.4199                 0.5597                 0.7305
 IR Inten    --   128.5247                48.1558                15.7931
 Raman Activ --     2.7422                 0.9906                 0.6504

                    49                     50                     51
                     A                      A                      A
 Frequencies --   881.5405               940.6306               959.5898
 Red. masses --     1.3671                 5.2795                 6.7000
 Frc consts  --     0.6259                 2.7522                 3.6349
 IR Inten    --    23.9636               119.1532                 5.0788
 Raman Activ --     1.1309                 2.7510                 1.9429

                    52                     53                     54
                     A                      A                      A
 Frequencies --   975.4363               985.1904               987.5786
 Red. masses --     6.0885                 5.6840                 6.9469
 Frc consts  --     3.4132                 3.2505                 3.9920
 IR Inten    --   173.0011                64.2536               577.1450
 Raman Activ --     3.9943                 1.7097                 1.6157

                    55                     56                     57
                     A                      A                      A
 Frequencies --   998.3252              1013.9702              1027.1318
 Red. masses --     6.1321                 6.0773                 7.0831
 Frc consts  --     3.6009                 3.6814                 4.4028
 IR Inten    --    35.3343                35.3470               226.8066
 Raman Activ --     1.4164                 1.2972                 2.9168

                    58                     59                     60
                     A                      A                      A
 Frequencies --  1032.0333              1052.1606              1053.7762
 Red. masses --     6.3866                 4.9099                 5.6854
 Frc consts  --     4.0078                 3.2025                 3.7197
 IR Inten    --    60.1565               135.9225                39.4312
 Raman Activ --     3.0510                 3.2581                 0.9004

                    61                     62                     63
                     A                      A                      A
 Frequencies --  1060.7328              1071.5650              1080.5654
 Red. masses --     3.8028                 4.4327                 2.9167
 Frc consts  --     2.5209                 2.9988                 2.0066
 IR Inten    --    12.6724                37.9790                32.5089
 Raman Activ --     7.1204                 3.2614                 6.8214

                    64                     65                     66
                     A                      A                      A
 Frequencies --  1086.0489              1107.4403              1113.5625
 Red. masses --     3.3781                 2.3898                 2.3923
 Frc consts  --     2.3476                 1.7268                 1.7478
 IR Inten    --    20.5000                61.0708                 9.5680
 Raman Activ --    13.0289                 1.9849                14.4216

                    67                     68                     69
                     A                      A                      A
 Frequencies --  1119.9625              1127.8936              1133.2237
 Red. masses --     3.7652                 2.6307                 2.6853
 Frc consts  --     2.7826                 1.9718                 2.0318
 IR Inten    --    30.2583                42.3911                32.7065
 Raman Activ --     4.9783                 7.1079                 4.7851

                    70                     71                     72
                     A                      A                      A
 Frequencies --  1149.2958              1156.5176              1174.2872
 Red. masses --     2.0362                 2.1344                 1.5541
 Frc consts  --     1.5846                 1.6820                 1.2626
 IR Inten    --     9.3346                24.8045                16.3178
 Raman Activ --     2.0843                 3.8714                 3.2854

                    73                     74                     75
                     A                      A                      A
 Frequencies --  1175.1353              1182.0592              1198.6520
 Red. masses --     2.0961                 1.9291                 2.0733
 Frc consts  --     1.7054                 1.5881                 1.7551
 IR Inten    --     7.6608                 3.9290                13.7635
 Raman Activ --     2.4873                 1.5017                 1.9799

                    76                     77                     78
                     A                      A                      A
 Frequencies --  1208.4544              1213.4863              1233.8972
 Red. masses --     1.4311                 1.2686                 1.3504
 Frc consts  --     1.2313                 1.1006                 1.2113
 IR Inten    --    16.7326                 5.3705                 8.0449
 Raman Activ --     3.7265                 1.2995                 1.3997

                    79                     80                     81
                     A                      A                      A
 Frequencies --  1237.5099              1259.0327              1264.1017
 Red. masses --     1.3020                 1.2863                 1.2543
 Frc consts  --     1.1748                 1.2014                 1.1809
 IR Inten    --     8.4598                11.9375                12.9983
 Raman Activ --     5.2286                 3.2595                 1.2240

                    82                     83                     84
                     A                      A                      A
 Frequencies --  1277.3154              1297.7379              1298.2454
 Red. masses --     1.2902                 1.4669                 1.3752
 Frc consts  --     1.2402                 1.4555                 1.3656
 IR Inten    --    22.7026                35.6974                26.7307
 Raman Activ --     0.4643                 6.4329                 2.1657

                    85                     86                     87
                     A                      A                      A
 Frequencies --  1311.2152              1316.7489              1323.5311
 Red. masses --     1.2572                 1.2371                 1.2218
 Frc consts  --     1.2736                 1.2638                 1.2610
 IR Inten    --    19.5863                 9.4469                19.7794
 Raman Activ --     1.5764                 1.1257                 3.0863

                    88                     89                     90
                     A                      A                      A
 Frequencies --  1332.0410              1332.9118              1337.6266
 Red. masses --     1.2171                 1.3318                 1.2492
 Frc consts  --     1.2724                 1.3941                 1.3169
 IR Inten    --    15.2859                18.0178                17.4442
 Raman Activ --     6.3955                 6.0455                 3.4102

                    91                     92                     93
                     A                      A                      A
 Frequencies --  1339.8591              1352.3713              1354.2192
 Red. masses --     1.2228                 1.1965                 1.2093
 Frc consts  --     1.2933                 1.2893                 1.3067
 IR Inten    --     6.6535                46.4465                20.1442
 Raman Activ --     8.0120                 2.9405                 2.1385

                    94                     95                     96
                     A                      A                      A
 Frequencies --  1366.0293              1368.1665              1382.6206
 Red. masses --     1.2096                 1.3400                 1.5851
 Frc consts  --     1.3299                 1.4779                 1.7853
 IR Inten    --     8.9298                23.4764                 4.3962
 Raman Activ --     3.3657                 4.6522                 5.5433

                    97                     98                     99
                     A                      A                      A
 Frequencies --  1389.3256              1417.1972              1427.4885
 Red. masses --     1.5377                 1.2381                 1.2691
 Frc consts  --     1.7487                 1.4650                 1.5237
 IR Inten    --    17.1154                 2.0805                 1.6445
 Raman Activ --     4.0007                 5.1129                 8.3115

                   100                    101                    102
                     A                      A                      A
 Frequencies --  1440.6443              1442.2824              1462.5197
 Red. masses --     1.3456                 1.3057                 1.2812
 Frc consts  --     1.6454                 1.6003                 1.6146
 IR Inten    --    39.3428                28.2151                10.5512
 Raman Activ --     1.6636                 4.0251                 1.6104

                   103                    104                    105
                     A                      A                      A
 Frequencies --  1465.2068              1470.1046              1474.0162
 Red. masses --     1.2548                 1.1183                 1.1703
 Frc consts  --     1.5871                 1.4240                 1.4981
 IR Inten    --    23.9013                 2.1153                 6.6997
 Raman Activ --     3.1363                 3.7654                 1.4556

                   106                    107                    108
                     A                      A                      A
 Frequencies --  1480.1397              1515.4999              3253.0710
 Red. masses --     1.3556                 1.2682                 1.0595
 Frc consts  --     1.7498                 1.7161                 6.6061
 IR Inten    --    43.3469                47.3085                21.9348
 Raman Activ --     2.1064                 2.2425               105.5237

                   109                    110                    111
                     A                      A                      A
 Frequencies --  3253.8008              3255.6245              3260.5524
 Red. masses --     1.0782                 1.0637                 1.0805
 Frc consts  --     6.7253                 6.6424                 6.7679
 IR Inten    --    14.1823               283.2223                 0.4062
 Raman Activ --    16.9016                36.5181                86.1885

                   112                    113                    114
                     A                      A                      A
 Frequencies --  3263.6887              3271.2384              3274.0910
 Red. masses --     1.0816                 1.0675                 1.0840
 Frc consts  --     6.7880                 6.7303                 6.8467
 IR Inten    --    25.1375               422.0223                45.9947
 Raman Activ --    94.8963               309.3431                14.7856

                   115                    116                    117
                     A                      A                      A
 Frequencies --  3278.5703              3282.5226              3290.0140
 Red. masses --     1.0857                 1.0838                 1.0845
 Frc consts  --     6.8761                 6.8804                 6.9166
 IR Inten    --     5.5027                 1.0652                 6.2228
 Raman Activ --    57.2457                35.2252                67.2083

                   118                    119                    120
                     A                      A                      A
 Frequencies --  3294.0392              3299.0103              3305.0048
 Red. masses --     1.0857                 1.0880                 1.1031
 Frc consts  --     6.9411                 6.9766                 7.0990
 IR Inten    --     9.8335                68.1865                24.8845
 Raman Activ --    80.8350                15.7710                24.8086

                   121                    122                    123
                     A                      A                      A
 Frequencies --  3308.8601              3309.8069              3323.0761
 Red. masses --     1.0905                 1.0990                 1.0677
 Frc consts  --     7.0344                 7.0932                 6.9466
 IR Inten    --     8.7842               114.0368               526.7776
 Raman Activ --    25.4009                36.4494               144.6353

                   124                    125                    126
                     A                      A                      A
 Frequencies --  3367.9816              3369.4167              3369.9955
 Red. masses --     1.0648                 1.0679                 1.0662
 Frc consts  --     7.1163                 7.1428                 7.1345
 IR Inten    --    27.1203                86.2410                23.6264
 Raman Activ --   116.6291               119.0364               162.3597

                   127                    128                    129
                     A                      A                      A
 Frequencies --  3370.9847              3886.4958              3891.4357
 Red. masses --     1.0680                 1.0678                 1.0673
 Frc consts  --     7.1506                 9.5030                 9.5228
 IR Inten    --    55.2370                82.9712                60.4092
 Raman Activ --   152.6512                76.8081               129.8498

 - Thermochemistry -
 -------------------
 Temperature   298.150 Kelvin.  Pressure   1.00000 Atm.
 Atom     1 has atomic number  8 and mass  15.99491

 Molecular mass:   342.11621 amu.
 Principal axes and moments of inertia in atomic units:
                           1         2         3
     Eigenvalues --  4504.57955********************
           X            0.99998   0.00701  -0.00006
           Y           -0.00701   0.99998   0.00058
           Z            0.00006  -0.00058   1.00000
 This molecule is an asymmetric top.
 Rotational symmetry number  1.
 Warning -- assumption of classical behavior for rotation
           may cause significant error
 Rotational temperatures (Kelvin)      0.01923     0.00715     0.00540
 Rotational constants (GHZ):           0.40065     0.14897     0.11242
    6 imaginary frequencies ignored.
 Zero-point vibrational energy     977424.1 (Joules/Mol)
                                  233.60998 (Kcal/Mol)
 Warning -- explicit consideration of  32 degrees of freedom as
           vibrations may cause significant error
 Vibrational temperatures:     57.48    86.32   114.87   118.08   142.53
          (Kelvin)            169.12   224.69   252.21   270.46   303.69
                              328.39   378.94   391.46   416.75   428.56
                              450.61   457.28   463.99   493.07   530.29
                              547.97   582.39   618.48   629.64   647.70
                              687.78   708.00   730.39   776.46   814.52
                              840.89   861.44   906.68   922.21   953.26
                              978.87   996.56  1049.70  1112.52  1167.54
                             1205.12  1214.10  1268.34  1353.36  1380.63
                             1403.43  1417.47  1420.90  1436.37  1458.88
                             1477.81  1484.86  1513.82  1516.15  1526.16
                             1541.74  1554.69  1562.58  1593.36  1602.17
                             1611.37  1622.79  1630.45  1653.58  1663.97
                             1689.54  1690.76  1700.72  1724.59  1738.69
                             1745.93  1775.30  1780.50  1811.46  1818.76
                             1837.77  1867.15  1867.88  1886.54  1894.51
                             1904.26  1916.51  1917.76  1924.54  1927.76
                             1945.76  1948.42  1965.41  1968.48  1989.28
                             1998.93  2039.03  2053.83  2072.76  2075.12
                             2104.24  2108.10  2115.15  2120.78  2129.59
                             2180.46  4680.44  4681.49  4684.11  4691.20
                             4695.71  4706.58  4710.68  4717.13  4722.81
                             4733.59  4739.38  4746.53  4755.16  4760.71
                             4762.07  4781.16  4845.77  4847.83  4848.67
                             4850.09  5591.79  5598.90

 Zero-point correction=                           0.372281 (Hartree/Particle)
 Thermal correction to Energy=                    0.391321
 Thermal correction to Enthalpy=                  0.392266
 Thermal correction to Gibbs Free Energy=         0.325649
 Sum of electronic and zero-point Energies=          -1297.602342
 Sum of electronic and thermal Energies=             -1297.583302
 Sum of electronic and thermal Enthalpies=           -1297.582357
 Sum of electronic and thermal Free Energies=        -1297.648974

                     E (Thermal)             CV                S
                      KCal/Mol        Cal/Mol-Kelvin    Cal/Mol-Kelvin
 Total                  245.558             77.550            140.205
 Electronic               0.000              0.000              0.000
 Translational            0.889              2.981             43.384
 Rotational               0.889              2.981             35.126
 Vibrational            243.780             71.588             61.695
 Vibration     1          0.594              1.981              5.262
 Vibration     2          0.597              1.973              4.457
 Vibration     3          0.600              1.963              3.895
 Vibration     4          0.600              1.961              3.841
 Vibration     5          0.604              1.950              3.473
 Vibration     6          0.608              1.935              3.140
 Vibration     7          0.620              1.896              2.596
 Vibration     8          0.627              1.873              2.378
 Vibration     9          0.633              1.856              2.248
 Vibration    10          0.643              1.824              2.034
 Vibration    11          0.651              1.798              1.893
 Vibration    12          0.670              1.740              1.639
 Vibration    13          0.675              1.725              1.583
 Vibration    14          0.686              1.693              1.476
 Vibration    15          0.691              1.678              1.429
 Vibration    16          0.701              1.649              1.345
 Vibration    17          0.704              1.640              1.321
 Vibration    18          0.707              1.630              1.297
 Vibration    19          0.722              1.590              1.200
 Vibration    20          0.741              1.537              1.086
 Vibration    21          0.751              1.511              1.036
 Vibration    22          0.770              1.460              0.945
 Vibration    23          0.791              1.405              0.859
 Vibration    24          0.798              1.388              0.834
 Vibration    25          0.809              1.361              0.795
 Vibration    26          0.835              1.299              0.715
 Vibration    27          0.848              1.268              0.678
 Vibration    28          0.863              1.233              0.639
 Vibration    29          0.895              1.162              0.566
 Vibration    30          0.922              1.105              0.512
 Vibration    31          0.941              1.065              0.477
 Vibration    32          0.957              1.034              0.452

 Normal termination of Gaussian 09 at Fri Mar 25 00:19:09 2016.
