 Gaussian 09, Revision B.01,
 Gaussian 09:  EM64L-G09RevB.01 12-Aug-2010

 --------------------------------------------------
 # freq=raman b3lyp/6-31+g(2df,p) geom=connectivity
 --------------------------------------------------

 ------------
 550 6000.com
 ------------
 Symbolic Z-matrix:
 Charge =  0 Multiplicity = 1

                         Standard orientation:
 ---------------------------------------------------------------------
 Center     Atomic      Atomic             Coordinates (Angstroms)
 Number     Number       Type             X           Y           Z
 ---------------------------------------------------------------------
      1          8           0       -4.993778    0.738533   -0.554311
      2          6           0       -3.921319    0.335957    0.309475
      3          6           0       -3.398169   -0.999575   -0.192726
      4          8           0       -4.411274   -1.952635   -0.545895
      5          1           0       -5.164068   -1.342344   -0.792876
      6          6           0       -2.199391   -1.621041    0.505097
      7          8           0       -1.820804   -2.798783   -0.222857
      8          1           0       -2.507026   -3.526322   -0.187186
      9          6           0       -2.490449    2.366340   -0.558923
     10          8           0       -2.336741    3.481544    0.330541
     11          1           0       -3.099489    3.463939    0.977076
     12          6           0       -2.577910    1.032452    0.165071
     13          8           0       -1.621638    0.589493    1.138893
     14          6           0       -1.117150   -0.555719    0.437416
     15          8           0        0.187408   -0.892669    0.930051
     16          6           0        1.361325   -0.535180    0.185573
     17          6           0        1.624224    0.961881    0.190748
     18          8           0        0.709452    1.577194   -0.727003
     19          1           0        0.948265    2.503200   -1.020181
     20          6           0        2.943993    1.466661   -0.369235
     21          8           0        3.270576    2.860641   -0.266944
     22          1           0        3.979712    3.002851   -0.956483
     23          6           0        2.447938   -2.677509    0.140792
     24          8           0        2.961361   -3.005935   -1.158147
     25          1           0        2.218948   -3.162726   -1.809495
     26          6           0        2.595724   -1.266807    0.687333
     27          8           0        3.904509   -0.746788    0.408087
     28          6           0        4.032358    0.681106    0.344701
     29          8           0        5.269889    0.801429   -0.372517
     30          1           0       -5.829780    0.445443   -0.184447
     31          1           0       -1.653846    2.340980   -1.225521
     32          1           0       -3.383158    2.504971   -1.132292
     33          1           0       -2.208221    0.443960   -0.648506
     34          1           0       -4.229295    0.274464    1.332348
     35          1           0       -2.990225   -0.734293   -1.145672
     36          1           0       -2.434288   -1.860230    1.521223
     37          1           0       -1.006052   -0.280290   -0.590541
     38          1           0        5.966110    0.353082    0.113139
     39          1           0        4.157283    1.069283    1.333950
     40          1           0        2.976338    1.203522   -1.405870
     41          1           0        1.471629    1.355462    1.173961
     42          1           0        1.200830   -0.831206   -0.830060
     43          1           0        2.509314   -1.328914    1.752029
     44          1           0        1.402395   -2.904851    0.133317
     45          1           0        2.915904   -3.337565    0.840959
 ---------------------------------------------------------------------

 SCF Done:  E(RB3LYP) =  -1297.91545950     A.U. after   14 cycles

 The electronic state is 1-A.
 Alpha  occ. eigenvalues --  -19.19819 -19.18099 -19.17670 -19.17646 -19.16774
 Alpha  occ. eigenvalues --  -19.16748 -19.16647 -19.15724 -19.15351 -19.15341
 Alpha  occ. eigenvalues --  -19.14956 -10.30530 -10.28809 -10.26559 -10.26155
 Alpha  occ. eigenvalues --  -10.25863 -10.25147 -10.24995 -10.24726 -10.24630
 Alpha  occ. eigenvalues --  -10.23956 -10.23396 -10.22661  -1.09686  -1.07829
 Alpha  occ. eigenvalues --   -1.07572  -1.04638  -1.04278  -1.04085  -1.02182
 Alpha  occ. eigenvalues --   -1.01915  -1.01610  -1.01345  -1.00214  -0.83407
 Alpha  occ. eigenvalues --   -0.81812  -0.78660  -0.77595  -0.72032  -0.70448
 Alpha  occ. eigenvalues --   -0.67085  -0.64775  -0.63486  -0.63027  -0.61799
 Alpha  occ. eigenvalues --   -0.59483  -0.56974  -0.56229  -0.54969  -0.54388
 Alpha  occ. eigenvalues --   -0.53909  -0.53078  -0.52685  -0.51400  -0.50737
 Alpha  occ. eigenvalues --   -0.50325  -0.48924  -0.47929  -0.47556  -0.46677
 Alpha  occ. eigenvalues --   -0.45697  -0.45645  -0.45097  -0.44325  -0.44078
 Alpha  occ. eigenvalues --   -0.42923  -0.42405  -0.40773  -0.39711  -0.39301
 Alpha  occ. eigenvalues --   -0.38396  -0.37714  -0.37221  -0.37020  -0.36368
 Alpha  occ. eigenvalues --   -0.35051  -0.34704  -0.34261  -0.33169  -0.32782
 Alpha  occ. eigenvalues --   -0.31917  -0.31282  -0.30393  -0.30180  -0.29899
 Alpha  occ. eigenvalues --   -0.29552  -0.29149  -0.28254  -0.27629  -0.26640
 Alpha  occ. eigenvalues --   -0.26415
 Alpha virt. eigenvalues --   -0.03285  -0.01280  -0.00985  -0.00195   0.00251
 Alpha virt. eigenvalues --    0.00522   0.01380   0.02383   0.02857   0.03357
 Alpha virt. eigenvalues --    0.03873   0.04231   0.04517   0.04888   0.05474

 Mulliken atomic charges:
              1
     1  O   -0.458040
     2  C   -0.391570
     3  C    0.216146
     4  O   -0.546429
     5  H    0.324636
     6  C    0.167966
     7  O   -0.454763
     8  H    0.369635
     9  C   -0.235836
    10  O   -0.408836
    11  H    0.323309
    12  C    0.312567
    13  O   -0.077222
    14  C   -0.256776
    15  O   -0.134696
    16  C    0.072987
    17  C    0.058009
    18  O   -0.527138
    19  H    0.376289
    20  C   -0.308069
    21  O   -0.441820
    22  H    0.359132
    23  C   -0.363750
    24  O   -0.397579
    25  H    0.338255
    26  C   -0.182160
    27  O   -0.069294
    28  C    0.193299
    29  O   -0.468553
    30  H    0.347791
    31  H    0.164389
    32  H    0.167018
    33  H    0.051931
    34  H    0.133641
    35  H    0.113516
    36  H    0.135303
    37  H    0.147847
    38  H    0.340287
    39  H    0.128986
    40  H    0.149663
    41  H    0.149471
    42  H    0.135012
    43  H    0.128208
    44  H    0.177572
    45  H    0.139668
 Sum of Mulliken atomic charges =   0.00000

 Dipole moment (field-independent basis, Debye):
    X=             -4.1390    Y=             -0.2719    Z=              0.5369  Tot=              4.1826
 Quadrupole moment (field-independent basis, Debye-Ang):
   XX=           -116.5396   YY=           -148.8371   ZZ=           -134.9656
   XY=              6.0308   XZ=             -0.3612   YZ=             -5.1737

  Exact polarizability: 222.058   2.616 196.826   1.735  -1.968 148.936
 Approx polarizability: 268.793   1.578 260.580   0.549  -0.660 246.294

 ******    8 imaginary frequencies (negative Signs) ******

                     1                      2                      3
                     A                      A                      A
 Frequencies --  -198.8773              -137.8830              -111.6928
 Red. masses --     1.8494                 1.3727                 2.3150
 Frc consts  --     0.0431                 0.0154                 0.0170
 IR Inten    --     4.6838                86.7727                59.2713
 Raman Activ --     0.3180                 1.3361                 0.5353

                     4                      5                      6
                     A                      A                      A
 Frequencies --   -95.2831               -93.7753               -77.1705
 Red. masses --     3.1373                 3.8604                 3.6974
 Frc consts  --     0.0168                 0.0200                 0.0130
 IR Inten    --     7.5307                24.6853                31.8191
 Raman Activ --     0.2542                 0.0505                 0.3040

                     7                      8                      9
                     A                      A                      A
 Frequencies --   -58.9535               -16.1765                24.1320
 Red. masses --     5.3268                 4.4792                 4.9340
 Frc consts  --     0.0109                 0.0007                 0.0017
 IR Inten    --     8.3277                 3.2844                 6.0252
 Raman Activ --     0.2104                 0.3740                 0.3737

                    10                     11                     12
                     A                      A                      A
 Frequencies --    61.5169                69.7536               103.0237
 Red. masses --     4.6294                 5.6901                 4.6939
 Frc consts  --     0.0103                 0.0163                 0.0294
 IR Inten    --    12.7882                 0.3761                 2.4594
 Raman Activ --     0.0584                 0.0468                 0.1045

                    13                     14                     15
                     A                      A                      A
 Frequencies --   130.5813               140.6011               175.0769
 Red. masses --     4.8150                 5.5675                 6.0755
 Frc consts  --     0.0484                 0.0648                 0.1097
 IR Inten    --     0.4562                 0.1711                 3.3961
 Raman Activ --     0.4686                 1.6466                 0.7020

                    16                     17                     18
                     A                      A                      A
 Frequencies --   191.9291               207.4444               234.7511
 Red. masses --     3.8612                 7.5002                 4.7498
 Frc consts  --     0.0838                 0.1902                 0.1542
 IR Inten    --     4.9491                 1.6168                 0.5087
 Raman Activ --     0.1713                 1.3169                 0.4647

                    19                     20                     21
                     A                      A                      A
 Frequencies --   262.6744               271.8724               282.1428
 Red. masses --     4.3114                 5.3903                 4.9846
 Frc consts  --     0.1753                 0.2347                 0.2338
 IR Inten    --     5.2401                 2.7865                 7.3018
 Raman Activ --     0.9486                 0.1013                 0.5869

                    22                     23                     24
                     A                      A                      A
 Frequencies --   314.7132               320.3554               324.8534
 Red. masses --     6.4922                 5.9314                 4.4645
 Frc consts  --     0.3789                 0.3587                 0.2776
 IR Inten    --     0.4994                16.5946                 2.0952
 Raman Activ --     1.0585                 0.2871                 0.7922

                    25                     26                     27
                     A                      A                      A
 Frequencies --   365.3135               384.7566               402.4181
 Red. masses --     6.3163                 3.1765                 5.8261
 Frc consts  --     0.4966                 0.2771                 0.5559
 IR Inten    --     1.7781                40.0474                 6.1081
 Raman Activ --     1.3472                 1.2563                 0.8679

                    28                     29                     30
                     A                      A                      A
 Frequencies --   415.2744               435.5102               453.0899
 Red. masses --     5.4486                 4.5885                 6.9407
 Frc consts  --     0.5536                 0.5128                 0.8395
 IR Inten    --    12.7930                 4.7811                 3.0561
 Raman Activ --     3.7783                 4.1138                 3.5216

                    31                     32                     33
                     A                      A                      A
 Frequencies --   485.4699               502.5922               529.2693
 Red. masses --     6.5526                 4.6696                 5.7572
 Frc consts  --     0.9099                 0.6950                 0.9502
 IR Inten    --     0.8970                 6.0404                11.8066
 Raman Activ --     1.0539                 6.4880                 1.3767

                    34                     35                     36
                     A                      A                      A
 Frequencies --   533.6970               552.8779               568.4054
 Red. masses --     5.5703                 3.5922                 3.3194
 Frc consts  --     0.9348                 0.6469                 0.6319
 IR Inten    --     5.6524                20.2470                18.3473
 Raman Activ --     4.4025                 1.6486                 0.5826

                    37                     38                     39
                     A                      A                      A
 Frequencies --   583.5914               604.3194               657.7893
 Red. masses --     3.0037                 5.2471                 4.1405
 Frc consts  --     0.6027                 1.1290                 1.0555
 IR Inten    --    58.6652                37.3529                22.7901
 Raman Activ --     0.1472                 2.1711                 0.2580

                    40                     41                     42
                     A                      A                      A
 Frequencies --   677.8207               684.8960               704.9303
 Red. masses --     1.3008                 1.0833                 1.1050
 Frc consts  --     0.3521                 0.2994                 0.3235
 IR Inten    --    67.8891               121.7602                70.3489
 Raman Activ --     0.8652                 1.7734                 1.1437

                    43                     44                     45
                     A                      A                      A
 Frequencies --   716.7819               721.0582               734.0274
 Red. masses --     2.6100                 1.3597                 2.0612
 Frc consts  --     0.7901                 0.4165                 0.6543
 IR Inten    --    10.8883                43.6656                89.9839
 Raman Activ --     0.5291                 1.8564                 3.6076

                    46                     47                     48
                     A                      A                      A
 Frequencies --   739.8768               746.7448               851.5188
 Red. masses --     1.1205                 1.1908                 4.2127
 Frc consts  --     0.3614                 0.3912                 1.7997
 IR Inten    --    84.1926                61.2102                 7.9129
 Raman Activ --     1.9191                 1.1854                 2.1954

                    49                     50                     51
                     A                      A                      A
 Frequencies --   871.8860               882.7711               889.5001
 Red. masses --     3.0424                 2.1461                 2.0431
 Frc consts  --     1.3627                 0.9854                 0.9524
 IR Inten    --    44.8519                 1.1764                 2.8928
 Raman Activ --     4.3221                 1.8951                 2.0750

                    52                     53                     54
                     A                      A                      A
 Frequencies --   935.9073               970.7317               975.9684
 Red. masses --     5.4495                 6.9320                 7.1326
 Frc consts  --     2.8124                 3.8487                 4.0028
 IR Inten    --   183.8887               207.4588               301.1433
 Raman Activ --     2.6495                 2.4664                 0.3459

                    55                     56                     57
                     A                      A                      A
 Frequencies --   987.5037              1002.6090              1012.3696
 Red. masses --     5.2873                 7.8263                 4.9998
 Frc consts  --     3.0378                 4.6352                 3.0192
 IR Inten    --    68.4418               250.6388                83.0663
 Raman Activ --     7.6537                 1.0018                 1.4697

                    58                     59                     60
                     A                      A                      A
 Frequencies --  1014.4173              1036.4934              1046.5196
 Red. masses --     4.6411                 3.9390                 5.5945
 Frc consts  --     2.8138                 2.4933                 3.6100
 IR Inten    --    96.2186                29.7554               192.8036
 Raman Activ --     1.5028                20.6563                 1.5681

                    61                     62                     63
                     A                      A                      A
 Frequencies --  1048.5412              1061.2568              1069.6418
 Red. masses --     4.8296                 3.7265                 2.8405
 Frc consts  --     3.1285                 2.4728                 1.9148
 IR Inten    --    27.6921                42.9694                83.8547
 Raman Activ --     6.7721                 1.0963                 2.1913

                    64                     65                     66
                     A                      A                      A
 Frequencies --  1080.7777              1088.0088              1101.3603
 Red. masses --     3.1522                 2.3940                 2.6006
 Frc consts  --     2.1694                 1.6697                 1.8586
 IR Inten    --   100.5621                59.2771                34.3345
 Raman Activ --     8.2656                 2.0633                 2.1966

                    67                     68                     69
                     A                      A                      A
 Frequencies --  1119.2989              1122.4390              1133.8123
 Red. masses --     2.0941                 2.3616                 2.1458
 Frc consts  --     1.5458                 1.7530                 1.6252
 IR Inten    --    22.3481                12.0185                37.1230
 Raman Activ --     6.7395                 3.5054                 1.4443

                    70                     71                     72
                     A                      A                      A
 Frequencies --  1146.1782              1151.4229              1164.1726
 Red. masses --     3.3098                 2.9407                 2.0937
 Frc consts  --     2.5619                 2.2971                 1.6718
 IR Inten    --    43.2200                18.8677                20.3164
 Raman Activ --     2.1515                 3.3778                 2.4799

                    73                     74                     75
                     A                      A                      A
 Frequencies --  1169.3320              1186.9566              1194.3002
 Red. masses --     1.7554                 2.0495                 1.5636
 Frc consts  --     1.4142                 1.7013                 1.3140
 IR Inten    --     8.9825                 0.8894                 2.8042
 Raman Activ --     2.9521                 4.3748                 2.6037

                    76                     77                     78
                     A                      A                      A
 Frequencies --  1207.3408              1214.0436              1225.0329
 Red. masses --     1.3095                 1.9487                 1.3426
 Frc consts  --     1.1247                 1.6922                 1.1871
 IR Inten    --    15.5267                 8.7102                38.4407
 Raman Activ --     2.9389                 0.4818                 3.1643

                    79                     80                     81
                     A                      A                      A
 Frequencies --  1241.0218              1258.5029              1258.7672
 Red. masses --     1.2812                 1.2532                 1.2588
 Frc consts  --     1.1626                 1.1694                 1.1752
 IR Inten    --    22.3597                11.9733                26.2659
 Raman Activ --     1.3749                 1.7291                 1.7720

                    82                     83                     84
                     A                      A                      A
 Frequencies --  1272.7048              1278.0806              1286.4023
 Red. masses --     1.4086                 1.2431                 1.3312
 Frc consts  --     1.3443                 1.1963                 1.2979
 IR Inten    --     7.2498                 0.5728                28.7579
 Raman Activ --     0.3004                 1.1522                 2.0249

                    85                     86                     87
                     A                      A                      A
 Frequencies --  1294.3368              1301.6453              1316.9374
 Red. masses --     1.4540                 1.4647                 1.2911
 Frc consts  --     1.4352                 1.4621                 1.3193
 IR Inten    --     9.6126                11.1100                 8.7528
 Raman Activ --     9.7747                 5.7446                 0.5396

                    88                     89                     90
                     A                      A                      A
 Frequencies --  1326.9452              1333.6775              1343.1380
 Red. masses --     1.2163                 1.2773                 1.3059
 Frc consts  --     1.2618                 1.3386                 1.3880
 IR Inten    --    19.8711                61.1076                 8.8757
 Raman Activ --     4.3659                 9.0808                 0.8957

                    91                     92                     93
                     A                      A                      A
 Frequencies --  1352.0359              1360.3076              1381.0458
 Red. masses --     1.2068                 1.5766                 1.8357
 Frc consts  --     1.2997                 1.7189                 2.0628
 IR Inten    --    26.4704                 9.5754                 1.5866
 Raman Activ --     0.7696                 3.9614                 3.9410

                    94                     95                     96
                     A                      A                      A
 Frequencies --  1390.3134              1398.5746              1401.6690
 Red. masses --     1.1778                 1.5216                 1.4177
 Frc consts  --     1.3414                 1.7536                 1.6411
 IR Inten    --    21.9835                40.5933                20.5555
 Raman Activ --     2.5275                 5.5331                 3.1558

                    97                     98                     99
                     A                      A                      A
 Frequencies --  1413.8534              1432.7637              1444.2828
 Red. masses --     1.6118                 1.2056                 1.1785
 Frc consts  --     1.8983                 1.4581                 1.4483
 IR Inten    --    14.9824                47.1309                72.6485
 Raman Activ --     2.5587                 4.2048                 1.7114

                   100                    101                    102
                     A                      A                      A
 Frequencies --  1457.0809              1459.2582              1466.3905
 Red. masses --     1.0943                 1.1534                 1.2002
 Frc consts  --     1.3688                 1.4471                 1.5206
 IR Inten    --    44.1065                16.3851                13.0164
 Raman Activ --     6.1620                 4.1398                 5.8395

                   103                    104                    105
                     A                      A                      A
 Frequencies --  1467.8253              1480.9592              1534.7134
 Red. masses --     1.1634                 1.3236                 1.1026
 Frc consts  --     1.4768                 1.7104                 1.5301
 IR Inten    --    36.3854                46.7760                 2.9791
 Raman Activ --     1.2130                 1.7355                 2.4255

                   106                    107                    108
                     A                      A                      A
 Frequencies --  1671.6894              1750.0173              3182.2732
 Red. masses --     1.0608                 1.0451                 1.0788
 Frc consts  --     1.7466                 1.8859                 6.4365
 IR Inten    --     1.8172                 6.6519                 7.0177
 Raman Activ --     4.1508                11.6148                28.5076

                   109                    110                    111
                     A                      A                      A
 Frequencies --  3225.7493              3245.3247              3256.3668
 Red. masses --     1.0808                 1.0822                 1.0643
 Frc consts  --     6.6259                 6.7157                 6.6497
 IR Inten    --    29.2045                13.9595                12.7950
 Raman Activ --    52.3694                85.1270                51.8213

                   112                    113                    114
                     A                      A                      A
 Frequencies --  3270.4519              3273.4817              3273.7240
 Red. masses --     1.0785                 1.0573                 1.0826
 Frc consts  --     6.7965                 6.6752                 6.8360
 IR Inten    --    15.6243                20.9126                 8.5127
 Raman Activ --   104.7349               113.9406               230.1063

                   115                    116                    117
                     A                      A                      A
 Frequencies --  3277.3100              3282.4056              3286.8654
 Red. masses --     1.0821                 1.0850                 1.0859
 Frc consts  --     6.8479                 6.8872                 6.9117
 IR Inten    --    27.5577                 9.2889                 2.5466
 Raman Activ --    13.2434                15.0001                12.9741

                   118                    119                    120
                     A                      A                      A
 Frequencies --  3293.8997              3297.7500              3312.2059
 Red. masses --     1.0865                 1.0859                 1.1027
 Frc consts  --     6.9455                 6.9579                 7.1275
 IR Inten    --    44.5646                66.4506                35.2335
 Raman Activ --    87.4374                26.0410                67.7204

                   121                    122                    123
                     A                      A                      A
 Frequencies --  3328.8893              3344.8245              3345.4668
 Red. masses --     1.1003                 1.0672                 1.0637
 Frc consts  --     7.1842                 7.0349                 7.0143
 IR Inten    --    14.4027                47.1965                53.1570
 Raman Activ --    72.0826                69.2383                88.6472

                   124                    125                    126
                     A                      A                      A
 Frequencies --  3356.6744              3356.8562              3359.1263
 Red. masses --     1.0708                 1.0705                 1.0725
 Frc consts  --     7.1087                 7.1071                 7.1301
 IR Inten    --    57.1207                28.4701                27.6317
 Raman Activ --    46.1969               102.5425                59.0865

                   127                    128                    129
                     A                      A                      A
 Frequencies --  3378.3991              3866.8294              3873.5345
 Red. masses --     1.0663                 1.0674                 1.0666
 Frc consts  --     7.1702                 9.4033                 9.4286
 IR Inten    --    77.2978                70.1290                60.8978
 Raman Activ --    98.9120               119.0555               136.3623

 - Thermochemistry -
 -------------------
 Temperature   298.150 Kelvin.  Pressure   1.00000 Atm.
 Atom     1 has atomic number  8 and mass  15.99491

 Molecular mass:   342.11621 amu.
 Principal axes and moments of inertia in atomic units:
                           1         2         3
     Eigenvalues --  4448.53747********************
           X            1.00000  -0.00176   0.00183
           Y            0.00177   0.99998  -0.00561
           Z           -0.00182   0.00561   0.99998
 This molecule is an asymmetric top.
 Rotational symmetry number  1.
 Warning -- assumption of classical behavior for rotation
           may cause significant error
 Rotational temperatures (Kelvin)      0.01947     0.00730     0.00563
 Rotational constants (GHZ):           0.40569     0.15219     0.11731
    8 imaginary frequencies ignored.
 Zero-point vibrational energy     976998.5 (Joules/Mol)
                                  233.50824 (Kcal/Mol)
 Warning -- explicit consideration of  30 degrees of freedom as
           vibrations may cause significant error
 Vibrational temperatures:     34.72    88.51   100.36   148.23   187.88
          (Kelvin)            202.29   251.90   276.14   298.47   337.75
                              377.93   391.16   405.94   452.80   460.92
                              467.39   525.60   553.58   578.99   597.49
                              626.60   651.89   698.48   723.12   761.50
                              767.87   795.47   817.81   839.66   869.48
                              946.41   975.23   985.41  1014.24  1031.29
                             1037.44  1056.10  1064.52  1074.40  1225.14
                             1254.45  1270.11  1279.79  1346.56  1396.66
                             1404.20  1420.80  1442.53  1456.57  1459.52
                             1491.28  1505.71  1508.62  1526.91  1538.97
                             1555.00  1565.40  1584.61  1610.42  1614.94
                             1631.30  1649.09  1656.64  1674.98  1682.41
                             1707.76  1718.33  1737.09  1746.74  1762.55
                             1785.55  1810.70  1811.08  1831.14  1838.87
                             1850.84  1862.26  1872.77  1894.78  1909.18
                             1918.86  1932.47  1945.28  1957.18  1987.01
                             2000.35  2012.23  2016.69  2034.22  2061.42
                             2078.00  2096.41  2099.54  2109.81  2111.87
                             2130.77  2208.11  2405.19  2517.88  4578.58
                             4641.13  4669.29  4685.18  4705.45  4709.80
                             4710.15  4715.31  4722.64  4729.06  4739.18
                             4744.72  4765.52  4789.52  4812.45  4813.37
                             4829.50  4829.76  4833.03  4860.76  5563.50
                             5573.15

 Zero-point correction=                           0.372119 (Hartree/Particle)
 Thermal correction to Energy=                    0.389863
 Thermal correction to Enthalpy=                  0.390807
 Thermal correction to Gibbs Free Energy=         0.326480
 Sum of electronic and zero-point Energies=          -1297.543340
 Sum of electronic and thermal Energies=             -1297.525597
 Sum of electronic and thermal Enthalpies=           -1297.524652
 Sum of electronic and thermal Free Energies=        -1297.588980

                     E (Thermal)             CV                S
                      KCal/Mol        Cal/Mol-Kelvin    Cal/Mol-Kelvin
 Total                  244.643             73.772            135.388
 Electronic               0.000              0.000              0.000
 Translational            0.889              2.981             43.384
 Rotational               0.889              2.981             35.050
 Vibrational            242.865             67.811             56.954
 Vibration     1          0.593              1.985              6.261
 Vibration     2          0.597              1.973              4.408
 Vibration     3          0.598              1.969              4.160
 Vibration     4          0.605              1.947              3.396
 Vibration     5          0.612              1.923              2.937
 Vibration     6          0.615              1.913              2.796
 Vibration     7          0.627              1.873              2.380
 Vibration     8          0.634              1.851              2.209
 Vibration     9          0.641              1.829              2.066
 Vibration    10          0.655              1.788              1.842
 Vibration    11          0.670              1.741              1.644
 Vibration    12          0.675              1.725              1.584
 Vibration    13          0.681              1.707              1.521
 Vibration    14          0.702              1.646              1.337
 Vibration    15          0.706              1.635              1.308
 Vibration    16          0.709              1.626              1.286
 Vibration    17          0.739              1.544              1.099
 Vibration    18          0.754              1.503              1.020
 Vibration    19          0.768              1.465              0.954
 Vibration    20          0.779              1.437              0.908
 Vibration    21          0.796              1.393              0.841
 Vibration    22          0.812              1.354              0.786
 Vibration    23          0.842              1.282              0.695
 Vibration    24          0.858              1.244              0.652
 Vibration    25          0.884              1.185              0.589
 Vibration    26          0.889              1.175              0.579
 Vibration    27          0.908              1.133              0.538
 Vibration    28          0.924              1.100              0.507
 Vibration    29          0.940              1.067              0.479
 Vibration    30          0.963              1.023              0.442

 Normal termination of Gaussian 09 at Tue Feb 16 12:32:25 2016.
