 Gaussian 09, Revision B.01,
 Gaussian 09:  EM64L-G09RevB.01 12-Aug-2010

 --------------------------------------------------
 # freq=raman b3lyp/6-31+g(2df,p) geom=connectivity
 --------------------------------------------------

 -------------
 290 10000.com
 -------------
 Symbolic Z-matrix:
 Charge =  0 Multiplicity = 1

                         Standard orientation:
 ---------------------------------------------------------------------
 Center     Atomic      Atomic             Coordinates (Angstroms)
 Number     Number       Type             X           Y           Z
 ---------------------------------------------------------------------
      1          8           0        5.007985   -0.427835   -0.440029
      2          6           0        3.744672   -0.147825    0.179551
      3          6           0        3.220472    1.174132   -0.355900
      4          8           0        4.115946    2.168110    0.162112
      5          1           0        5.015625    2.094883   -0.268594
      6          6           0        1.832526    1.629544    0.066377
      7          8           0        1.251321    2.814130   -0.497655
      8          1           0        0.426355    3.006798    0.035369
      9          6           0        3.018758   -2.532864    0.411336
     10          8           0        4.073490   -3.278067   -0.214413
     11          1           0        3.866236   -4.219660    0.050941
     12          6           0        2.704476   -1.182839   -0.214953
     13          8           0        1.454311   -0.800479    0.376312
     14          6           0        0.924181    0.428109   -0.143041
     15          8           0       -0.298866    0.536557    0.599803
     16          6           0       -1.482207    0.202476   -0.139825
     17          6           0       -2.012182   -1.174293    0.227304
     18          8           0       -1.055792   -2.102482   -0.307029
     19          1           0       -0.172176   -1.844865    0.083063
     20          6           0       -3.418558   -1.594314   -0.166866
     21          8           0       -3.901579   -2.705215    0.602311
     22          1           0       -4.693178   -3.099633    0.134996
     23          6           0       -2.174259    2.690202   -0.049318
     24          8           0       -1.142588    3.385863    0.665880
     25          1           0       -1.296148    4.372340    0.715895
     26          6           0       -2.553089    1.234908    0.169140
     27          8           0       -3.799636    0.878304   -0.445861
     28          6           0       -4.303577   -0.375342    0.037066
     29          8           0       -5.509252   -0.639409   -0.695065
     30          1           0        5.655408   -0.641743    0.235758
     31          1           0       -6.216978   -0.848993   -0.081226
     32          1           0       -4.537352   -0.281918    1.077028
     33          1           0       -3.424942   -1.860010   -1.203333
     34          1           0       -1.959707   -1.248849    1.293412
     35          1           0       -1.261410    0.226793   -1.186514
     36          1           0       -2.725044    1.149911    1.221807
     37          1           0       -3.070599    3.254536    0.102346
     38          1           0       -1.925273    2.777973   -1.086238
     39          1           0        1.880754    1.796826    1.122119
     40          1           0        0.705870    0.316152   -1.184533
     41          1           0        3.279173    1.169060   -1.424277
     42          1           0        3.848482   -0.106559    1.243703
     43          1           0        2.619446   -1.260907   -1.278708
     44          1           0        2.129593   -3.127542    0.385960
     45          1           0        3.285860   -2.371772    1.434862
 ---------------------------------------------------------------------

 SCF Done:  E(RB3LYP) =  -1298.01411815     A.U. after   13 cycles

 The electronic state is 1-A.
 Alpha  occ. eigenvalues --  -19.19069 -19.18192 -19.18165 -19.17780 -19.17392
 Alpha  occ. eigenvalues --  -19.17072 -19.16739 -19.16222 -19.14624 -19.13937
 Alpha  occ. eigenvalues --  -19.13873 -10.30203 -10.29727 -10.25826 -10.25431
 Alpha  occ. eigenvalues --  -10.25054 -10.24929 -10.24855 -10.24820 -10.24216
 Alpha  occ. eigenvalues --  -10.24144 -10.23917 -10.23737  -1.09747  -1.08646
 Alpha  occ. eigenvalues --   -1.05428  -1.05025  -1.03792  -1.03693  -1.02775
 Alpha  occ. eigenvalues --   -1.02459  -1.01756  -1.00833  -1.00131  -0.81727
 Alpha  occ. eigenvalues --   -0.79918  -0.79120  -0.78097  -0.71992  -0.69821
 Alpha  occ. eigenvalues --   -0.66930  -0.64637  -0.63297  -0.62241  -0.61026
 Alpha  occ. eigenvalues --   -0.59899  -0.56181  -0.55663  -0.54937  -0.54526
 Alpha  occ. eigenvalues --   -0.53938  -0.53162  -0.52653  -0.52278  -0.51194
 Alpha  occ. eigenvalues --   -0.50579  -0.49828  -0.48996  -0.48369  -0.46779
 Alpha  occ. eigenvalues --   -0.45980  -0.44727  -0.44237  -0.43421  -0.43068
 Alpha  occ. eigenvalues --   -0.42755  -0.41868  -0.41160  -0.40077  -0.38876
 Alpha  occ. eigenvalues --   -0.38726  -0.37776  -0.36833  -0.36392  -0.36075
 Alpha  occ. eigenvalues --   -0.35139  -0.34755  -0.34353  -0.33990  -0.33339
 Alpha  occ. eigenvalues --   -0.32496  -0.31671  -0.30967  -0.30673  -0.29939
 Alpha  occ. eigenvalues --   -0.29656  -0.28889  -0.28387  -0.27500  -0.26389
 Alpha  occ. eigenvalues --   -0.26184
 Alpha virt. eigenvalues --   -0.02166  -0.01654  -0.01563   0.00025   0.00368
 Alpha virt. eigenvalues --    0.00973   0.02071   0.02177   0.02838   0.03304
 Alpha virt. eigenvalues --    0.03799   0.04488   0.04964   0.05250   0.05601

 Mulliken atomic charges:
              1
     1  O   -0.442829
     2  C   -0.062235
     3  C    0.187684
     4  O   -0.473438
     5  H    0.349298
     6  C   -0.552391
     7  O   -0.479109
     8  H    0.438388
     9  C   -0.300247
    10  O   -0.428782
    11  H    0.336263
    12  C   -0.067864
    13  O   -0.036136
    14  C    0.281924
    15  O   -0.002744
    16  C    0.107791
    17  C    0.078560
    18  O   -0.478079
    19  H    0.385704
    20  C   -0.111009
    21  O   -0.452836
    22  H    0.347522
    23  C   -0.503150
    24  O   -0.499945
    25  H    0.376645
    26  C   -0.106842
    27  O   -0.080179
    28  C    0.041628
    29  O   -0.485129
    30  H    0.349720
    31  H    0.349437
    32  H    0.133214
    33  H    0.149580
    34  H    0.136769
    35  H    0.124020
    36  H    0.122538
    37  H    0.151213
    38  H    0.164975
    39  H    0.139371
    40  H    0.126942
    41  H    0.134368
    42  H    0.134524
    43  H    0.130028
    44  H    0.143144
    45  H    0.141693
 Sum of Mulliken atomic charges =   0.00000

 Dipole moment (field-independent basis, Debye):
    X=             -1.9747    Y=             -0.1166    Z=              2.3461  Tot=              3.0688
 Quadrupole moment (field-independent basis, Debye-Ang):
   XX=           -119.6291   YY=           -130.3239   ZZ=           -141.5895
   XY=             -8.7242   XZ=             -0.4823   YZ=             -0.3697

  Exact polarizability: 232.188   2.639 198.311  -0.356   0.067 143.883
 Approx polarizability: 272.301   3.091 256.327  -0.756   1.503 241.066

 ******    6 imaginary frequencies (negative Signs) ******

                     1                      2                      3
                     A                      A                      A
 Frequencies --  -325.9642              -264.0371              -256.1534
 Red. masses --     1.6270                 1.4750                 1.2002
 Frc consts  --     0.1019                 0.0606                 0.0464
 IR Inten    --     5.4447                50.3741               125.6484
 Raman Activ --     0.0159                 0.3494                 1.1583

                     4                      5                      6
                     A                      A                      A
 Frequencies --  -217.0445               -75.0562               -57.8754
 Red. masses --     1.3592                 6.5204                 6.2612
 Frc consts  --     0.0377                 0.0216                 0.0124
 IR Inten    --    52.9814                 0.8811                 0.1527
 Raman Activ --     0.6608                 0.0228                 0.0292

                     7                      8                      9
                     A                      A                      A
 Frequencies --    47.2344                54.6490                68.9266
 Red. masses --     6.2405                 6.3887                 5.8188
 Frc consts  --     0.0082                 0.0112                 0.0163
 IR Inten    --     1.1732                 1.5015                 3.2109
 Raman Activ --     0.0896                 0.0462                 0.0513

                    10                     11                     12
                     A                      A                      A
 Frequencies --    91.0902                97.8709               125.7745
 Red. masses --     6.4420                 6.4102                 6.0946
 Frc consts  --     0.0315                 0.0362                 0.0568
 IR Inten    --     1.5773                 0.3259                 1.2340
 Raman Activ --     0.1018                 0.1017                 0.1509

                    13                     14                     15
                     A                      A                      A
 Frequencies --   152.2739               175.9839               178.8396
 Red. masses --     6.2380                 6.2838                 6.3022
 Frc consts  --     0.0852                 0.1147                 0.1188
 IR Inten    --     4.6868                 4.5934                 0.6318
 Raman Activ --     0.4560                 0.5344                 0.2293

                    16                     17                     18
                     A                      A                      A
 Frequencies --   201.4453               228.8049               272.3664
 Red. masses --     7.1066                 5.9531                 5.1738
 Frc consts  --     0.1699                 0.1836                 0.2261
 IR Inten    --     1.0792                 1.7340                 8.1696
 Raman Activ --     1.6337                 0.8168                 0.4682

                    19                     20                     21
                     A                      A                      A
 Frequencies --   281.0430               290.0993               297.5107
 Red. masses --     5.4697                 5.1502                 6.1135
 Frc consts  --     0.2545                 0.2554                 0.3188
 IR Inten    --     7.6189                 3.6015                11.3651
 Raman Activ --     0.1847                 0.2088                 1.0367

                    22                     23                     24
                     A                      A                      A
 Frequencies --   302.0048               312.8609               326.2285
 Red. masses --     4.7960                 5.3062                 6.9138
 Frc consts  --     0.2577                 0.3060                 0.4335
 IR Inten    --     0.0467                 1.0106                 0.5568
 Raman Activ --     1.0100                 2.4468                 1.8927

                    25                     26                     27
                     A                      A                      A
 Frequencies --   336.8976               353.6314               374.8442
 Red. masses --     7.2093                 5.0513                 7.4597
 Frc consts  --     0.4821                 0.3722                 0.6176
 IR Inten    --     7.7295                 5.0006                 0.8543
 Raman Activ --     5.4245                 0.4966                 1.1358

                    28                     29                     30
                     A                      A                      A
 Frequencies --   408.1200               415.5380               434.1218
 Red. masses --     5.4498                 4.0199                 4.9901
 Frc consts  --     0.5348                 0.4090                 0.5541
 IR Inten    --     8.4761                17.7950                 2.7924
 Raman Activ --     6.1915                 1.8811                 1.4502

                    31                     32                     33
                     A                      A                      A
 Frequencies --   442.8712               482.0937               499.4575
 Red. masses --     4.9768                 4.4532                 3.8439
 Frc consts  --     0.5751                 0.6098                 0.5650
 IR Inten    --     0.6692                 6.7104                10.7697
 Raman Activ --     4.5489                 1.2103                 1.6694

                    34                     35                     36
                     A                      A                      A
 Frequencies --   519.7679               533.8864               561.1481
 Red. masses --     4.4341                 3.1972                 4.4425
 Frc consts  --     0.7058                 0.5369                 0.8242
 IR Inten    --     6.3624                 7.1762                 9.1913
 Raman Activ --     2.0738                 3.9774                 1.0814

                    37                     38                     39
                     A                      A                      A
 Frequencies --   573.2174               583.5631               612.3526
 Red. masses --     2.9288                 5.9245                 4.8120
 Frc consts  --     0.5670                 1.1887                 1.0631
 IR Inten    --    41.4695                 1.0234                16.0890
 Raman Activ --     0.2059                 0.8657                 0.2883

                    40                     41                     42
                     A                      A                      A
 Frequencies --   624.6612               675.6638               691.6652
 Red. masses --     3.8710                 1.0998                 4.8654
 Frc consts  --     0.8899                 0.2958                 1.3714
 IR Inten    --    47.8044               113.3094                 5.8438
 Raman Activ --     0.8861                 1.5306                 0.9141

                    43                     44                     45
                     A                      A                      A
 Frequencies --   734.0980               735.6776               739.3859
 Red. masses --     1.0737                 1.0791                 1.0861
 Frc consts  --     0.3409                 0.3441                 0.3498
 IR Inten    --    51.1804                95.7944               139.9470
 Raman Activ --     0.7075                 2.2114                 1.9095

                    46                     47                     48
                     A                      A                      A
 Frequencies --   836.4373               853.7673               858.0747
 Red. masses --     1.6147                 1.0934                 1.7026
 Frc consts  --     0.6656                 0.4696                 0.7386
 IR Inten    --    19.4175                85.3506                 6.1371
 Raman Activ --     0.5635                 1.5441                 1.0714

                    49                     50                     51
                     A                      A                      A
 Frequencies --   901.8240               941.0819               962.8409
 Red. masses --     1.1714                 5.0404                 4.7948
 Frc consts  --     0.5613                 2.6301                 2.6190
 IR Inten    --    46.9509               170.0568                65.0237
 Raman Activ --     0.6043                 2.7481                 0.3385

                    52                     53                     54
                     A                      A                      A
 Frequencies --   981.2943               988.8714               997.2793
 Red. masses --     7.4271                 6.6001                 4.6924
 Frc consts  --     4.2138                 3.8026                 2.7497
 IR Inten    --    86.5755                90.0469                23.6765
 Raman Activ --     2.2127                 2.3836                 0.6471

                    55                     56                     57
                     A                      A                      A
 Frequencies --  1002.7120              1017.9830              1028.3893
 Red. masses --     5.9028                 6.3694                 6.5415
 Frc consts  --     3.4967                 3.8889                 4.0761
 IR Inten    --   366.6643               164.2653               129.9471
 Raman Activ --     3.1211                 2.9053                 4.6655

                    58                     59                     60
                     A                      A                      A
 Frequencies --  1037.8025              1047.5944              1062.2680
 Red. masses --     6.7740                 5.5175                 5.4111
 Frc consts  --     4.2986                 3.5676                 3.5975
 IR Inten    --   295.6905                73.6109                75.6243
 Raman Activ --     1.4089                 2.5120                 0.6446

                    61                     62                     63
                     A                      A                      A
 Frequencies --  1068.6828              1072.3481              1081.7845
 Red. masses --     4.0435                 2.7835                 5.7716
 Frc consts  --     2.7209                 1.8859                 3.9795
 IR Inten    --   105.9473                 6.5024                67.0320
 Raman Activ --     4.2954                22.8638                 0.8723

                    64                     65                     66
                     A                      A                      A
 Frequencies --  1091.0795              1099.4153              1110.6222
 Red. masses --     3.4499                 3.2683                 2.6304
 Frc consts  --     2.4197                 2.3275                 1.9116
 IR Inten    --    25.8142                25.4830                21.1138
 Raman Activ --    21.6442                 1.3541                 3.7751

                    67                     68                     69
                     A                      A                      A
 Frequencies --  1121.3547              1124.0362              1125.1760
 Red. masses --     2.1178                 2.3227                 2.6146
 Frc consts  --     1.5690                 1.7290                 1.9502
 IR Inten    --    24.5436                13.0100                 8.6607
 Raman Activ --     3.0989                 0.4439                 1.3030

                    70                     71                     72
                     A                      A                      A
 Frequencies --  1127.0836              1151.1024              1163.7527
 Red. masses --     2.1151                 2.3103                 1.4975
 Frc consts  --     1.5830                 1.8036                 1.1949
 IR Inten    --    22.4047                13.6530                 0.2915
 Raman Activ --     8.8259                 5.6862                 2.1078

                    73                     74                     75
                     A                      A                      A
 Frequencies --  1165.6381              1168.2406              1191.1961
 Red. masses --     2.0662                 1.6238                 1.4858
 Frc consts  --     1.6540                 1.3057                 1.2421
 IR Inten    --     4.5986                 2.5649                 1.8897
 Raman Activ --     0.6416                 3.0792                 1.4260

                    76                     77                     78
                     A                      A                      A
 Frequencies --  1194.5471              1208.5814              1214.0924
 Red. masses --     1.4899                 1.5479                 1.2889
 Frc consts  --     1.2526                 1.3321                 1.1193
 IR Inten    --    23.6714                 5.2443                10.2667
 Raman Activ --     1.3982                 1.8768                 2.0968

                    79                     80                     81
                     A                      A                      A
 Frequencies --  1235.1655              1241.2485              1260.2826
 Red. masses --     1.2524                 1.2415                 1.1788
 Frc consts  --     1.1258                 1.1270                 1.1031
 IR Inten    --     2.8028                36.6776                10.8463
 Raman Activ --     1.5654                 0.7519                 0.9938

                    82                     83                     84
                     A                      A                      A
 Frequencies --  1265.7243              1275.8065              1279.1604
 Red. masses --     1.2642                 1.3365                 1.3927
 Frc consts  --     1.1933                 1.2818                 1.3426
 IR Inten    --    18.3962                 8.0766                 2.5036
 Raman Activ --     1.3959                 1.7841                 4.8627

                    85                     86                     87
                     A                      A                      A
 Frequencies --  1291.7090              1293.1870              1300.1484
 Red. masses --     1.2592                 1.2249                 1.3316
 Frc consts  --     1.2378                 1.2069                 1.3262
 IR Inten    --    17.0726                10.0696                23.9888
 Raman Activ --     2.7664                 1.6599                 3.2687

                    88                     89                     90
                     A                      A                      A
 Frequencies --  1308.0747              1319.1470              1325.4778
 Red. masses --     1.4156                 1.2818                 1.3856
 Frc consts  --     1.4271                 1.3142                 1.4343
 IR Inten    --    12.4761                19.3870                43.7396
 Raman Activ --     7.9582                 6.6963                 1.4473

                    91                     92                     93
                     A                      A                      A
 Frequencies --  1339.9045              1340.5047              1351.0621
 Red. masses --     1.2499                 1.2523                 1.2009
 Frc consts  --     1.3222                 1.3259                 1.2915
 IR Inten    --    17.0538                47.9677                15.4582
 Raman Activ --     5.6052                 1.3185                 7.4342

                    94                     95                     96
                     A                      A                      A
 Frequencies --  1352.3749              1362.9078              1366.4061
 Red. masses --     1.6536                 1.2388                 1.4131
 Frc consts  --     1.7818                 1.3558                 1.5545
 IR Inten    --     5.2767                29.6043                13.1629
 Raman Activ --     4.1520                 4.9926                 3.5385

                    97                     98                     99
                     A                      A                      A
 Frequencies --  1380.3125              1382.7226              1402.7024
 Red. masses --     1.4206                 1.4517                 1.4298
 Frc consts  --     1.5946                 1.6353                 1.6575
 IR Inten    --     3.5715                 5.6396                 3.0236
 Raman Activ --     1.0621                10.6287                 6.1089

                   100                    101                    102
                     A                      A                      A
 Frequencies --  1418.2719              1425.6577              1443.0074
 Red. masses --     1.3799                 1.3334                 1.3624
 Frc consts  --     1.6354                 1.5968                 1.6715
 IR Inten    --    40.0051                27.5348                13.3250
 Raman Activ --     3.1394                 2.3619                 0.9532

                   103                    104                    105
                     A                      A                      A
 Frequencies --  1460.8725              1465.1546              1488.5624
 Red. masses --     1.0858                 1.0745                 1.3330
 Frc consts  --     1.3653                 1.3590                 1.7402
 IR Inten    --     4.6741                 4.5789                39.1555
 Raman Activ --     4.1116                 4.3031                 1.2059

                   106                    107                    108
                     A                      A                      A
 Frequencies --  1498.9122              1503.8328              3215.1339
 Red. masses --     1.2541                 1.2798                 1.0698
 Frc consts  --     1.6601                 1.7053                 6.5155
 IR Inten    --    32.4725                28.8411               862.2357
 Raman Activ --     1.9939                 1.8458               148.3272

                   109                    110                    111
                     A                      A                      A
 Frequencies --  3249.5169              3250.5869              3259.9769
 Red. masses --     1.0768                 1.0563                 1.0631
 Frc consts  --     6.6990                 6.5757                 6.6564
 IR Inten    --     5.5884                34.4364                35.8929
 Raman Activ --   111.7534                82.5051                92.1676

                   112                    113                    114
                     A                      A                      A
 Frequencies --  3269.9339              3272.8471              3276.5711
 Red. masses --     1.0816                 1.0820                 1.0842
 Frc consts  --     6.8141                 6.8283                 6.8582
 IR Inten    --     8.3275                 3.8259                25.5948
 Raman Activ --    26.0887               117.4279               138.9236

                   115                    116                    117
                     A                      A                      A
 Frequencies --  3277.7680              3284.9450              3287.3222
 Red. masses --     1.0838                 1.0844                 1.0857
 Frc consts  --     6.8602                 6.8941                 6.9125
 IR Inten    --     8.2735                28.9259                 1.1578
 Raman Activ --    11.2419               107.2080                11.6937

                   118                    119                    120
                     A                      A                      A
 Frequencies --  3291.0947              3298.9563              3299.4677
 Red. masses --     1.0840                 1.0805                 1.0874
 Frc consts  --     6.9177                 6.9286                 6.9745
 IR Inten    --    24.5941               253.3723                29.2266
 Raman Activ --     9.2765                97.2110                21.9455

                   121                    122                    123
                     A                      A                      A
 Frequencies --  3302.4197              3307.5479              3310.1161
 Red. masses --     1.0822                 1.1029                 1.0988
 Frc consts  --     6.9536                 7.1091                 7.0937
 IR Inten    --   193.9614                44.1782                94.7965
 Raman Activ --    81.0634                43.0064                25.5524

                   124                    125                    126
                     A                      A                      A
 Frequencies --  3357.6596              3358.3969              3359.6245
 Red. masses --     1.0661                 1.0666                 1.0673
 Frc consts  --     7.0814                 7.0879                 7.0976
 IR Inten    --    35.7556                44.9698                34.2615
 Raman Activ --   132.3108               150.5742               143.6532

                   127                    128                    129
                     A                      A                      A
 Frequencies --  3367.0412              3877.4686              3878.1641
 Red. masses --     1.0683                 1.0675                 1.0674
 Frc consts  --     7.1360                 9.4563                 9.4584
 IR Inten    --    79.4824                84.7107                66.1202
 Raman Activ --   162.5922                83.4296               116.1723

 - Thermochemistry -
 -------------------
 Temperature   298.150 Kelvin.  Pressure   1.00000 Atm.
 Atom     1 has atomic number  8 and mass  15.99491

 Molecular mass:   342.11621 amu.
 Principal axes and moments of inertia in atomic units:
                           1         2         3
     Eigenvalues --  4497.73156********************
           X            0.99998  -0.00599  -0.00019
           Y            0.00599   0.99998  -0.00227
           Z            0.00020   0.00227   1.00000
 This molecule is an asymmetric top.
 Rotational symmetry number  1.
 Warning -- assumption of classical behavior for rotation
           may cause significant error
 Rotational temperatures (Kelvin)      0.01926     0.00709     0.00533
 Rotational constants (GHZ):           0.40126     0.14764     0.11111
    6 imaginary frequencies ignored.
 Zero-point vibrational energy     974151.9 (Joules/Mol)
                                  232.82790 (Kcal/Mol)
 Warning -- explicit consideration of  33 degrees of freedom as
           vibrations may cause significant error
 Vibrational temperatures:     67.96    78.63    99.17   131.06   140.81
          (Kelvin)            180.96   219.09   253.20   257.31   289.83
                              329.20   391.87   404.36   417.39   428.05
                              434.52   450.14   469.37   484.72   508.80
                              539.32   587.19   597.87   624.60   637.19
                              693.62   718.61   747.83   768.14   807.37
                              824.73   839.62   881.04   898.75   972.13
                              995.15  1056.20  1058.47  1063.81  1203.45
                             1228.38  1234.58  1297.52  1354.01  1385.31
                             1411.86  1422.76  1434.86  1442.68  1464.65
                             1479.62  1493.16  1507.25  1528.36  1537.59
                             1542.87  1556.44  1569.82  1581.81  1597.94
                             1613.38  1617.24  1618.88  1621.62  1656.18
                             1674.38  1677.09  1680.84  1713.86  1718.68
                             1738.88  1746.81  1777.13  1785.88  1813.26
                             1821.09  1835.60  1840.42  1858.48  1860.61
                             1870.62  1882.03  1897.96  1907.06  1927.82
                             1928.68  1943.87  1945.76  1960.92  1965.95
                             1985.96  1989.43  2018.17  2040.57  2051.20
                             2076.16  2101.87  2108.03  2141.71  2156.60
                             2163.68  4625.85  4675.32  4676.86  4690.37
                             4704.70  4708.89  4714.25  4715.97  4726.30
                             4729.72  4735.15  4746.46  4747.19  4751.44
                             4758.82  4762.51  4830.92  4831.98  4833.74
                             4844.42  5578.81  5579.81

 Zero-point correction=                           0.371035 (Hartree/Particle)
 Thermal correction to Energy=                    0.390138
 Thermal correction to Enthalpy=                  0.391083
 Thermal correction to Gibbs Free Energy=         0.324369
 Sum of electronic and zero-point Energies=          -1297.643083
 Sum of electronic and thermal Energies=             -1297.623980
 Sum of electronic and thermal Enthalpies=           -1297.623036
 Sum of electronic and thermal Free Energies=        -1297.689749

                     E (Thermal)             CV                S
                      KCal/Mol        Cal/Mol-Kelvin    Cal/Mol-Kelvin
 Total                  244.815             77.762            140.409
 Electronic               0.000              0.000              0.000
 Translational            0.889              2.981             43.384
 Rotational               0.889              2.981             35.145
 Vibrational            243.038             71.800             61.880
 Vibration     1          0.595              1.979              4.930
 Vibration     2          0.596              1.976              4.642
 Vibration     3          0.598              1.969              4.184
 Vibration     4          0.602              1.956              3.637
 Vibration     5          0.603              1.951              3.496
 Vibration     6          0.611              1.927              3.010
 Vibration     7          0.619              1.900              2.644
 Vibration     8          0.628              1.872              2.371
 Vibration     9          0.629              1.868              2.340
 Vibration    10          0.638              1.838              2.120
 Vibration    11          0.651              1.797              1.888
 Vibration    12          0.675              1.724              1.581
 Vibration    13          0.681              1.709              1.527
 Vibration    14          0.686              1.692              1.473
 Vibration    15          0.691              1.678              1.431
 Vibration    16          0.694              1.670              1.406
 Vibration    17          0.701              1.649              1.347
 Vibration    18          0.710              1.623              1.279
 Vibration    19          0.718              1.602              1.227
 Vibration    20          0.730              1.568              1.150
 Vibration    21          0.746              1.524              1.060
 Vibration    22          0.773              1.453              0.933
 Vibration    23          0.779              1.436              0.907
 Vibration    24          0.795              1.396              0.845
 Vibration    25          0.803              1.377              0.818
 Vibration    26          0.838              1.290              0.704
 Vibration    27          0.855              1.251              0.659
 Vibration    28          0.875              1.206              0.611
 Vibration    29          0.889              1.175              0.579
 Vibration    30          0.917              1.115              0.522
 Vibration    31          0.929              1.089              0.498
 Vibration    32          0.940              1.067              0.479
 Vibration    33          0.972              1.006              0.429

 Normal termination of Gaussian 09 at Fri Feb 12 13:39:57 2016.
