 Gaussian 09, Revision B.01,
 Gaussian 09:  EM64L-G09RevB.01 12-Aug-2010

 -------------------------------------------------
 # freq=raman b3lyp/6-31+g(2d,p) geom=connectivity
 -------------------------------------------------

 -----------------
 550 6570/6570.com
 -----------------
 Symbolic Z-matrix:
 Charge =  0 Multiplicity = 1

                         Standard orientation:
 ---------------------------------------------------------------------
 Center     Atomic      Atomic             Coordinates (Angstroms)
 Number     Number       Type             X           Y           Z
 ---------------------------------------------------------------------
      1          8           0        5.155538   -0.480879   -0.641608
      2          6           0        3.922619   -0.075877   -0.027841
      3          6           0        3.250006    1.213023   -0.472829
      4          8           0        4.071155    2.375143   -0.291431
      5          1           0        5.027891    2.138225   -0.462417
      6          6           0        1.923788    1.547642    0.190711
      7          8           0        1.330774    2.770687   -0.269275
      8          1           0        1.794393    3.647676   -0.142441
      9          6           0        3.248113   -2.449624    0.616397
     10          8           0        2.498441   -3.620731    0.262542
     11          1           0        3.016900   -4.468222    0.373688
     12          6           0        2.826301   -1.128877   -0.005572
     13          8           0        1.654333   -0.704286    0.705382
     14          6           0        0.945559    0.387346    0.101549
     15          8           0       -0.307600    0.560051    0.778516
     16          6           0       -1.461487    0.395405   -0.058295
     17          6           0       -1.785758   -1.070996    0.174579
     18          8           0       -0.965849   -2.113801   -0.373859
     19          1           0       -0.015320   -2.092807   -0.065278
     20          6           0       -3.024253   -1.371491   -0.653260
     21          8           0       -3.480366   -2.720106   -0.839614
     22          1           0       -2.893452   -3.008739   -1.596051
     23          6           0       -2.269156    2.689906    0.582623
     24          8           0       -2.437653    3.536932   -0.563525
     25          1           0       -1.733389    4.246060   -0.532577
     26          6           0       -2.587376    1.203945    0.566044
     27          8           0       -3.818718    0.736730   -0.004971
     28          6           0       -4.062919   -0.662991    0.199931
     29          8           0       -5.456330   -0.936496   -0.005527
     30          1           0       -5.954863   -0.653930    0.764682
     31          1           0       -3.842185   -0.885050    1.223096
     32          1           0       -2.947819   -0.884203   -1.602790
     33          1           0       -1.979888   -1.253172    1.210931
     34          1           0       -1.279257    0.632633   -1.085629
     35          1           0       -2.621542    0.911631    1.594774
     36          1           0       -1.244223    2.777714    0.877076
     37          1           0       -2.858996    3.118065    1.365993
     38          1           0        5.886532   -0.284904   -0.050980
     39          1           0        3.198605   -2.339802    1.679594
     40          1           0        4.269724   -2.623774    0.350162
     41          1           0        2.541725   -1.321617   -1.018868
     42          1           0        4.175871    0.086033    0.999072
     43          1           0        3.061944    1.119344   -1.521999
     44          1           0        2.134060    1.687260    1.230515
     45          1           0        0.760863    0.161139   -0.927828
 ---------------------------------------------------------------------

 SCF Done:  E(RB3LYP) =  -1297.94688449     A.U. after   14 cycles

 The electronic state is 1-A.
 Alpha  occ. eigenvalues --  -19.19949 -19.18723 -19.18098 -19.17797 -19.16995
 Alpha  occ. eigenvalues --  -19.16720 -19.15185 -19.14998 -19.14997 -19.14980
 Alpha  occ. eigenvalues --  -19.14241 -10.31165 -10.27892 -10.27552 -10.26900
 Alpha  occ. eigenvalues --  -10.26434 -10.26344 -10.24956 -10.24884 -10.24751
 Alpha  occ. eigenvalues --  -10.23400 -10.23033 -10.22729  -1.09917  -1.07538
 Alpha  occ. eigenvalues --   -1.06584  -1.05153  -1.04679  -1.02915  -1.02666
 Alpha  occ. eigenvalues --   -1.02375  -1.01442  -1.00397  -0.99623  -0.82835
 Alpha  occ. eigenvalues --   -0.81868  -0.79157  -0.78217  -0.72112  -0.69956
 Alpha  occ. eigenvalues --   -0.67419  -0.64444  -0.63315  -0.62590  -0.60899
 Alpha  occ. eigenvalues --   -0.60658  -0.57670  -0.56193  -0.55397  -0.54133
 Alpha  occ. eigenvalues --   -0.53427  -0.53360  -0.53214  -0.52375  -0.50924
 Alpha  occ. eigenvalues --   -0.50080  -0.49970  -0.48815  -0.46860  -0.46633
 Alpha  occ. eigenvalues --   -0.46373  -0.45023  -0.44572  -0.43857  -0.43531
 Alpha  occ. eigenvalues --   -0.42939  -0.42124  -0.41178  -0.40218  -0.39084
 Alpha  occ. eigenvalues --   -0.38135  -0.37654  -0.36529  -0.36312  -0.35577
 Alpha  occ. eigenvalues --   -0.35123  -0.34636  -0.34033  -0.33438  -0.33250
 Alpha  occ. eigenvalues --   -0.33063  -0.31195  -0.30876  -0.30202  -0.29656
 Alpha  occ. eigenvalues --   -0.29516  -0.28947  -0.28407  -0.27566  -0.26502
 Alpha  occ. eigenvalues --   -0.25282
 Alpha virt. eigenvalues --   -0.04122  -0.01939  -0.01366  -0.00260   0.00416
 Alpha virt. eigenvalues --    0.00867   0.01159   0.02493   0.02614   0.03282
 Alpha virt. eigenvalues --    0.03902   0.04134   0.04569   0.04720   0.05731

 Mulliken atomic charges:
              1
     1  O   -0.530996
     2  C   -0.630839
     3  C    0.564815
     4  O   -0.588240
     5  H    0.334506
     6  C    0.130077
     7  O   -0.598044
     8  H    0.362259
     9  C   -0.383114
    10  O   -0.531626
    11  H    0.342714
    12  C    0.661793
    13  O   -0.294117
    14  C   -0.071232
    15  O   -0.285900
    16  C    0.369857
    17  C    0.249850
    18  O   -0.585068
    19  H    0.366780
    20  C   -0.158893
    21  O   -0.480783
    22  H    0.330874
    23  C   -0.550198
    24  O   -0.495038
    25  H    0.329191
    26  C    0.155579
    27  O   -0.310314
    28  C    0.357405
    29  O   -0.522131
    30  H    0.318600
    31  H    0.091739
    32  H    0.124584
    33  H    0.120707
    34  H    0.132168
    35  H    0.115500
    36  H    0.174912
    37  H    0.132234
    38  H    0.339098
    39  H    0.150131
    40  H    0.148216
    41  H    0.123002
    42  H    0.117773
    43  H    0.120500
    44  H    0.124819
    45  H    0.126849
 Sum of Mulliken atomic charges =   0.00000

 Dipole moment (field-independent basis, Debye):
    X=              9.4224    Y=              1.3851    Z=              3.0549  Tot=             10.0017
 Quadrupole moment (field-independent basis, Debye-Ang):
   XX=           -128.1237   YY=           -135.9213   ZZ=           -135.5224
   XY=             -7.8380   XZ=             -6.3568   YZ=              2.5579

  Exact polarizability: 225.341   1.865 202.990  -1.760   1.957 146.461
 Approx polarizability: 270.655   1.479 263.869  -0.139   2.804 241.102

 ******    7 imaginary frequencies (negative Signs) ******

                     1                      2                      3
                     A                      A                      A
 Frequencies --  -256.1914              -254.5940              -217.1654
 Red. masses --     1.7750                 1.7712                 1.0994
 Frc consts  --     0.0686                 0.0676                 0.0305
 IR Inten    --     1.8608                 7.6595               100.8733
 Raman Activ --     0.0425                 0.1255                 1.1670

                     4                      5                      6
                     A                      A                      A
 Frequencies --  -116.5981               -72.5491               -69.9810
 Red. masses --     1.4817                 6.9361                 5.5125
 Frc consts  --     0.0119                 0.0215                 0.0159
 IR Inten    --    95.8464                 0.0149                 3.7262
 Raman Activ --     0.3784                 0.0542                 0.2799

                     7                      8                      9
                     A                      A                      A
 Frequencies --    -5.2223                39.1394                52.0777
 Red. masses --     6.8083                 6.9558                 6.0972
 Frc consts  --     0.0001                 0.0063                 0.0097
 IR Inten    --     2.2571                 0.8067                 0.7480
 Raman Activ --     0.0912                 0.1287                 0.0315

                    10                     11                     12
                     A                      A                      A
 Frequencies --    63.0682                89.8182               116.8036
 Red. masses --     6.2928                 6.2559                 5.8285
 Frc consts  --     0.0147                 0.0297                 0.0469
 IR Inten    --     0.3039                 6.1515                 2.9392
 Raman Activ --     0.1223                 0.1547                 0.5389

                    13                     14                     15
                     A                      A                      A
 Frequencies --   141.7442               154.3224               184.1658
 Red. masses --     6.4337                 6.3825                 5.4799
 Frc consts  --     0.0762                 0.0896                 0.1095
 IR Inten    --     1.4497                 0.6333                 0.4941
 Raman Activ --     0.4201                 0.2258                 0.3120

                    16                     17                     18
                     A                      A                      A
 Frequencies --   200.9741               224.3760               249.5322
 Red. masses --     5.5686                 6.0663                 4.9991
 Frc consts  --     0.1325                 0.1799                 0.1834
 IR Inten    --     4.7038                 1.9831                10.7075
 Raman Activ --     0.2965                 3.6176                 0.8376

                    19                     20                     21
                     A                      A                      A
 Frequencies --   253.1390               271.3314               289.7620
 Red. masses --     4.2788                 4.3342                 5.6855
 Frc consts  --     0.1615                 0.1880                 0.2813
 IR Inten    --     2.0986                 6.4390                 3.5717
 Raman Activ --     1.2417                 0.2298                 0.0793

                    22                     23                     24
                     A                      A                      A
 Frequencies --   308.3465               313.7438               324.6019
 Red. masses --     5.7811                 5.6303                 4.5954
 Frc consts  --     0.3238                 0.3265                 0.2853
 IR Inten    --     2.1484                 1.9731                 1.9564
 Raman Activ --     1.3205                 0.6230                 1.8832

                    25                     26                     27
                     A                      A                      A
 Frequencies --   332.5811               362.0745               382.2617
 Red. masses --     5.2369                 6.4369                 4.2677
 Frc consts  --     0.3413                 0.4972                 0.3674
 IR Inten    --     4.0481                 0.0798                16.5252
 Raman Activ --     2.1912                 1.3314                 6.2736

                    28                     29                     30
                     A                      A                      A
 Frequencies --   394.5872               411.8256               419.4637
 Red. masses --     6.0890                 6.6562                 4.0011
 Frc consts  --     0.5586                 0.6651                 0.4148
 IR Inten    --     1.6764                12.5560                 4.1563
 Raman Activ --     5.1170                 1.1748                 1.7502

                    31                     32                     33
                     A                      A                      A
 Frequencies --   459.9560               475.7346               506.8124
 Red. masses --     3.6758                 6.2898                 4.0815
 Frc consts  --     0.4582                 0.8387                 0.6177
 IR Inten    --    24.8622                15.3658                 7.4164
 Raman Activ --     1.4985                 0.4710                 1.7122

                    34                     35                     36
                     A                      A                      A
 Frequencies --   532.1640               542.5197               548.8859
 Red. masses --     5.0150                 5.1106                 4.7038
 Frc consts  --     0.8368                 0.8862                 0.8350
 IR Inten    --    31.2498                 9.2778                31.5646
 Raman Activ --     3.1865                 8.9380                 0.2868

                    37                     38                     39
                     A                      A                      A
 Frequencies --   559.6210               604.1165               607.4134
 Red. masses --     2.8217                 3.5415                 2.9605
 Frc consts  --     0.5207                 0.7615                 0.6436
 IR Inten    --    11.2065                49.1771                11.6785
 Raman Activ --     0.6348                 0.9320                 0.9677

                    40                     41                     42
                     A                      A                      A
 Frequencies --   639.2074               646.3597               653.7989
 Red. masses --     1.3503                 1.1263                 2.6202
 Frc consts  --     0.3250                 0.2772                 0.6599
 IR Inten    --    71.0645               106.6893                 8.0657
 Raman Activ --     1.4859                 1.1848                 1.3800

                    43                     44                     45
                     A                      A                      A
 Frequencies --   673.1771               703.0809               710.7738
 Red. masses --     1.1866                 2.3093                 1.0645
 Frc consts  --     0.3168                 0.6726                 0.3169
 IR Inten    --   127.8887                17.4911                82.3749
 Raman Activ --     1.0342                 0.5032                 1.7087

                    46                     47                     48
                     A                      A                      A
 Frequencies --   728.1838               810.5658               836.7300
 Red. masses --     1.3072                 1.0807                 2.7437
 Frc consts  --     0.4084                 0.4184                 1.1318
 IR Inten    --    99.8331                76.1654                13.8511
 Raman Activ --     1.0858                 1.3667                 2.7949

                    49                     50                     51
                     A                      A                      A
 Frequencies --   844.6103               880.5014               945.4233
 Red. masses --     2.6250                 2.5751                 6.3364
 Frc consts  --     1.1033                 1.1763                 3.3369
 IR Inten    --     1.0086                13.5760               210.4290
 Raman Activ --     1.8458                 0.6465                 1.2338

                    52                     53                     54
                     A                      A                      A
 Frequencies --   954.0799               960.5357               982.6603
 Red. masses --     5.7102                 6.4711                 4.3474
 Frc consts  --     3.0625                 3.5177                 2.4733
 IR Inten    --   195.4298                 6.9390                26.6817
 Raman Activ --     3.9634                 5.3009                 2.7787

                    55                     56                     57
                     A                      A                      A
 Frequencies --   989.3089              1007.8809              1023.3446
 Red. masses --     5.0773                 6.9833                 4.2904
 Frc consts  --     2.9278                 4.1796                 2.6472
 IR Inten    --   175.7165               181.0642               300.7694
 Raman Activ --     5.4024                 0.3864                 6.7067

                    58                     59                     60
                     A                      A                      A
 Frequencies --  1032.2808              1034.9512              1042.3006
 Red. masses --     3.7103                 3.2524                 5.2387
 Frc consts  --     2.3295                 2.0525                 3.3532
 IR Inten    --   169.0968                 5.3100               198.8922
 Raman Activ --     2.4779                 3.2359                 3.0691

                    61                     62                     63
                     A                      A                      A
 Frequencies --  1058.1173              1064.5000              1072.5464
 Red. masses --     4.7570                 3.2386                 2.5885
 Frc consts  --     3.1380                 2.1622                 1.7544
 IR Inten    --    24.7601                50.1046                47.3994
 Raman Activ --     5.1602                 6.8423                 2.8053

                    64                     65                     66
                     A                      A                      A
 Frequencies --  1080.6367              1097.4576              1105.9067
 Red. masses --     3.9365                 3.2399                 3.2982
 Frc consts  --     2.7084                 2.2991                 2.3766
 IR Inten    --   101.5658                40.6429                10.5517
 Raman Activ --    13.8265                 1.3600                 5.4116

                    67                     68                     69
                     A                      A                      A
 Frequencies --  1116.3913              1129.6876              1131.4242
 Red. masses --     2.7170                 2.7433                 2.2566
 Frc consts  --     1.9951                 2.0627                 1.7020
 IR Inten    --    26.7540                35.7665                58.4436
 Raman Activ --     4.1214                 5.2385                 3.6668

                    70                     71                     72
                     A                      A                      A
 Frequencies --  1137.8684              1149.6986              1157.8046
 Red. masses --     3.0947                 3.2367                 2.4769
 Frc consts  --     2.3608                 2.5207                 1.9563
 IR Inten    --    79.7982                 7.8582                18.2582
 Raman Activ --     1.6172                 4.7956                 4.6880

                    73                     74                     75
                     A                      A                      A
 Frequencies --  1163.0871              1179.8109              1189.6171
 Red. masses --     1.9689                 1.5466                 2.2941
 Frc consts  --     1.5693                 1.2684                 1.9129
 IR Inten    --    82.5415                11.3573                22.1491
 Raman Activ --     1.7697                 0.7755                 0.6601

                    76                     77                     78
                     A                      A                      A
 Frequencies --  1211.9206              1223.1344              1233.3178
 Red. masses --     1.5767                 1.4065                 1.2032
 Frc consts  --     1.3644                 1.2398                 1.0783
 IR Inten    --     6.8587                 7.3084                 8.8864
 Raman Activ --     3.9720                 1.1299                 4.1985

                    79                     80                     81
                     A                      A                      A
 Frequencies --  1245.9802              1256.6339              1265.2912
 Red. masses --     1.2386                 1.2002                 1.3213
 Frc consts  --     1.1329                 1.1167                 1.2464
 IR Inten    --    11.5967                 3.4096                 6.4313
 Raman Activ --     4.0529                 1.6248                 1.2125

                    82                     83                     84
                     A                      A                      A
 Frequencies --  1272.4158              1276.9737              1287.6230
 Red. masses --     1.2160                 1.1899                 1.2236
 Frc consts  --     1.1600                 1.1432                 1.1953
 IR Inten    --     7.9414                 9.4573                 7.6463
 Raman Activ --     5.2194                 2.9774                 2.6697

                    85                     86                     87
                     A                      A                      A
 Frequencies --  1294.0627              1314.2215              1315.7565
 Red. masses --     1.2328                 1.3259                 1.2754
 Frc consts  --     1.2164                 1.3493                 1.3009
 IR Inten    --     4.7780                 4.1808                17.3364
 Raman Activ --     6.6869                 5.8355                 3.5529

                    88                     89                     90
                     A                      A                      A
 Frequencies --  1324.7395              1332.7407              1346.8697
 Red. masses --     1.3122                 1.2622                 1.2380
 Frc consts  --     1.3568                 1.3209                 1.3231
 IR Inten    --    45.1267                75.4907                 6.2552
 Raman Activ --     0.9851                 7.4227                 0.6023

                    91                     92                     93
                     A                      A                      A
 Frequencies --  1348.3694              1351.5915              1352.1184
 Red. masses --     1.2931                 1.3814                 1.2362
 Frc consts  --     1.3851                 1.4869                 1.3316
 IR Inten    --     5.4159                20.1758                35.1003
 Raman Activ --     7.3061                 3.1157                 1.8521

                    94                     95                     96
                     A                      A                      A
 Frequencies --  1356.3716              1365.4455              1370.3251
 Red. masses --     1.4253                 1.2416                 1.2337
 Frc consts  --     1.5450                 1.3639                 1.3649
 IR Inten    --    12.3459                10.3947                10.5732
 Raman Activ --     1.3761                 4.9706                 4.1270

                    97                     98                     99
                     A                      A                      A
 Frequencies --  1393.1730              1402.6846              1411.3195
 Red. masses --     1.2992                 1.3810                 1.4638
 Frc consts  --     1.4858                 1.6009                 1.7178
 IR Inten    --    45.8715                 3.5141                 4.9914
 Raman Activ --     2.0615                 4.3801                 6.7518

                   100                    101                    102
                     A                      A                      A
 Frequencies --  1417.4542              1429.5151              1437.0785
 Red. masses --     1.2203                 1.4249                 1.4106
 Frc consts  --     1.4446                 1.7155                 1.7163
 IR Inten    --     7.1631                37.4130                25.1897
 Raman Activ --     4.2446                 3.0111                 0.3078

                   103                    104                    105
                     A                      A                      A
 Frequencies --  1458.4863              1460.4468              1461.1538
 Red. masses --     1.1849                 1.1201                 1.0821
 Frc consts  --     1.4851                 1.4076                 1.3611
 IR Inten    --     4.1081                 9.3528                 8.7350
 Raman Activ --     3.2776                 4.7835                 5.7175

                   106                    107                    108
                     A                      A                      A
 Frequencies --  1465.1752              1507.5465              3247.8078
 Red. masses --     1.2624                 1.3750                 1.0852
 Frc consts  --     1.5967                 1.8412                 6.7446
 IR Inten    --    17.7073                47.0944                27.5101
 Raman Activ --     1.0809                 2.2283                16.8743

                   109                    110                    111
                     A                      A                      A
 Frequencies --  3255.2452              3258.6983              3262.3878
 Red. masses --     1.0669                 1.0790                 1.0610
 Frc consts  --     6.6608                 6.7507                 6.6534
 IR Inten    --    24.3178                 1.9785                25.6699
 Raman Activ --    77.0101                78.5145               126.7869

                   112                    113                    114
                     A                      A                      A
 Frequencies --  3267.7466              3273.4351              3274.8321
 Red. masses --     1.0798                 1.0802                 1.0808
 Frc consts  --     6.7935                 6.8197                 6.8292
 IR Inten    --     1.2739                22.9520                 9.6763
 Raman Activ --    47.3143                12.6692               133.5147

                   115                    116                    117
                     A                      A                      A
 Frequencies --  3280.8867              3284.8474              3292.3926
 Red. masses --     1.0844                 1.0839                 1.0864
 Frc consts  --     6.8771                 6.8911                 6.9386
 IR Inten    --    14.8672                 9.9960                81.8093
 Raman Activ --    13.4154               131.1504                26.1175

                   118                    119                    120
                     A                      A                      A
 Frequencies --  3293.9873              3310.9291              3312.0835
 Red. masses --     1.0865                 1.0904                 1.0977
 Frc consts  --     6.9457                 7.0426                 7.0946
 IR Inten    --    21.6058                22.7321                25.4087
 Raman Activ --    16.6230                24.4515                34.3418

                   121                    122                    123
                     A                      A                      A
 Frequencies --  3314.7240              3359.2371              3364.3094
 Red. masses --     1.1051                 1.0668                 1.0663
 Frc consts  --     7.1540                 7.0926                 7.1111
 IR Inten    --    32.9708               119.6880                28.0922
 Raman Activ --    38.0430               203.5657               116.9273

                   124                    125                    126
                     A                      A                      A
 Frequencies --  3371.9866              3374.9685              3375.2006
 Red. masses --     1.0687                 1.0682                 1.0682
 Frc consts  --     7.1591                 7.1691                 7.1697
 IR Inten    --    28.1680               137.6879                14.3386
 Raman Activ --    74.7426                43.5669               300.3941

                   127                    128                    129
                     A                      A                      A
 Frequencies --  3377.9398              3884.5051              3886.0692
 Red. masses --     1.0652                 1.0679                 1.0670
 Frc consts  --     7.1609                 9.4940                 9.4941
 IR Inten    --    29.9522                86.1566                57.3599
 Raman Activ --    82.3777                88.1959               133.3437

 - Thermochemistry -
 -------------------
 Temperature   298.150 Kelvin.  Pressure   1.00000 Atm.
 Atom     1 has atomic number  8 and mass  15.99491

 Molecular mass:   342.11621 amu.
 Principal axes and moments of inertia in atomic units:
                           1         2         3
     Eigenvalues --  4783.72873********************
           X            0.99997  -0.00714  -0.00164
           Y            0.00714   0.99997   0.00183
           Z            0.00163  -0.00184   1.00000
 This molecule is an asymmetric top.
 Rotational symmetry number  1.
 Warning -- assumption of classical behavior for rotation
           may cause significant error
 Rotational temperatures (Kelvin)      0.01811     0.00733     0.00544
 Rotational constants (GHZ):           0.37727     0.15284     0.11334
    7 imaginary frequencies ignored.
 Zero-point vibrational energy     971759.1 (Joules/Mol)
                                  232.25599 (Kcal/Mol)
 Warning -- explicit consideration of  32 degrees of freedom as
           vibrations may cause significant error
 Vibrational temperatures:     56.31    74.93    90.74   129.23   168.05
          (Kelvin)            203.94   222.04   264.97   289.16   322.83
                              359.02   364.21   390.38   416.90   443.64
                              451.41   467.03   478.51   520.94   549.99
                              567.72   592.52   603.51   661.77   684.48
                              729.19   765.66   780.56   789.72   805.17
                              869.19   873.93   919.68   929.97   940.67
                              968.55  1011.58  1022.64  1047.69  1166.22
                             1203.87  1215.20  1266.84  1360.25  1372.71
                             1381.99  1413.83  1423.39  1450.11  1472.36
                             1485.22  1489.06  1499.64  1522.39  1531.58
                             1543.15  1554.79  1578.99  1591.15  1606.24
                             1625.37  1627.87  1637.14  1654.16  1665.82
                             1673.42  1697.48  1711.59  1743.68  1759.82
                             1774.47  1792.69  1808.01  1820.47  1830.72
                             1837.28  1852.60  1861.87  1890.87  1893.08
                             1906.00  1917.51  1937.84  1940.00  1944.64
                             1945.39  1951.51  1964.57  1971.59  2004.46
                             2018.15  2030.57  2039.40  2056.75  2067.63
                             2098.43  2101.25  2102.27  2108.06  2169.02
                             4672.87  4683.57  4688.53  4693.84  4701.55
                             4709.74  4711.75  4720.46  4726.16  4737.01
                             4739.31  4763.68  4765.34  4769.14  4833.19
                             4840.48  4851.53  4855.82  4856.15  4860.10
                             5588.93  5591.18

 Zero-point correction=                           0.370123 (Hartree/Particle)
 Thermal correction to Energy=                    0.388847
 Thermal correction to Enthalpy=                  0.389791
 Thermal correction to Gibbs Free Energy=         0.323744
 Sum of electronic and zero-point Energies=          -1297.576761
 Sum of electronic and thermal Energies=             -1297.558037
 Sum of electronic and thermal Enthalpies=           -1297.557093
 Sum of electronic and thermal Free Energies=        -1297.623141

                     E (Thermal)             CV                S
                      KCal/Mol        Cal/Mol-Kelvin    Cal/Mol-Kelvin
 Total                  244.005             76.840            139.009
 Electronic               0.000              0.000              0.000
 Translational            0.889              2.981             43.384
 Rotational               0.889              2.981             35.152
 Vibrational            242.228             70.879             60.472
 Vibration     1          0.594              1.981              5.302
 Vibration     2          0.596              1.977              4.737
 Vibration     3          0.597              1.972              4.359
 Vibration     4          0.602              1.956              3.664
 Vibration     5          0.608              1.935              3.153
 Vibration     6          0.615              1.912              2.780
 Vibration     7          0.620              1.898              2.618
 Vibration     8          0.631              1.861              2.286
 Vibration     9          0.638              1.839              2.124
 Vibration    10          0.649              1.804              1.924
 Vibration    11          0.662              1.764              1.734
 Vibration    12          0.664              1.757              1.709
 Vibration    13          0.675              1.726              1.588
 Vibration    14          0.686              1.693              1.475
 Vibration    15          0.698              1.658              1.371
 Vibration    16          0.702              1.647              1.343
 Vibration    17          0.709              1.626              1.287
 Vibration    18          0.715              1.610              1.248
 Vibration    19          0.736              1.550              1.113
 Vibration    20          0.752              1.508              1.030
 Vibration    21          0.762              1.482              0.983
 Vibration    22          0.776              1.445              0.920
 Vibration    23          0.782              1.428              0.894
 Vibration    24          0.818              1.339              0.766
 Vibration    25          0.832              1.304              0.722
 Vibration    26          0.862              1.235              0.641
 Vibration    27          0.887              1.179              0.582
 Vibration    28          0.898              1.156              0.560
 Vibration    29          0.904              1.142              0.546
 Vibration    30          0.915              1.119              0.525
 Vibration    31          0.963              1.023              0.443
 Vibration    32          0.966              1.016              0.437

 Normal termination of Gaussian 09 at Mon Apr  4 20:06:41 2016.
