 Gaussian 09, Revision B.01,
 Gaussian 09:  EM64L-G09RevB.01 12-Aug-2010

 ------------------------------------------------
 # freq=raman b3lyp/6-31+g(d,p) geom=connectivity
 ------------------------------------------------

 -------------
 450 10000.com
 -------------
 Symbolic Z-matrix:
 Charge =  0 Multiplicity = 1

                         Standard orientation:
 ---------------------------------------------------------------------
 Center     Atomic      Atomic             Coordinates (Angstroms)
 Number     Number       Type             X           Y           Z
 ---------------------------------------------------------------------
      1          8           0       -4.886611   -0.293467    1.241199
      2          6           0       -3.870816   -0.084852    0.249612
      3          6           0       -3.277518    1.309973    0.354587
      4          8           0       -4.214878    2.259318   -0.175178
      5          1           0       -5.090662    2.019272    0.244977
      6          6           0       -1.939484    1.589435   -0.310877
      7          8           0       -1.214863    2.676634    0.281644
      8          1           0       -1.607844    3.537273    0.606189
      9          6           0       -3.348727   -2.384568   -0.347623
     10          8           0       -2.456725   -3.481380   -0.594033
     11          1           0       -2.837088   -4.276993   -1.066460
     12          6           0       -2.775000   -1.137800    0.305053
     13          8           0       -1.645427   -0.814489   -0.518658
     14          6           0       -1.009503    0.403903   -0.106673
     15          8           0        0.187221    0.399021   -0.897698
     16          6           0        1.366473    0.037988   -0.164320
     17          6           0        1.969176   -1.336144   -0.407532
     18          8           0        0.953133   -2.312028   -0.140900
     19          1           0        0.048224   -2.037249   -0.466233
     20          6           0        3.180221   -1.526115    0.491220
     21          8           0        3.623966   -2.885711    0.378266
     22          1           0        2.917402   -3.428799    0.832904
     23          6           0        1.890031    2.569806   -0.124102
     24          8           0        2.654185    3.781252   -0.207558
     25          1           0        3.067070    4.081685   -1.067813
     26          6           0        2.356563    1.157512   -0.438095
     27          8           0        3.598990    0.907417    0.234301
     28          6           0        4.137281   -0.415372    0.089048
     29          8           0        5.404950   -0.451650    0.761248
     30          1           0       -5.674505    0.199522    1.000814
     31          1           0        6.041469    0.075284    0.272591
     32          1           0       -3.774196   -2.094297   -1.285503
     33          1           0       -4.140670   -2.743185    0.276173
     34          1           0       -2.475787   -1.334389    1.313381
     35          1           0       -4.339827   -0.161944   -0.709025
     36          1           0       -3.161000    1.523424    1.396586
     37          1           0       -2.079588    1.768877   -1.356377
     38          1           0       -0.748842    0.334050    0.928738
     39          1           0        1.540983    2.529663    0.886569
     40          1           0        1.042814    2.730635   -0.757550
     41          1           0        2.562981    1.131002   -1.487661
     42          1           0        1.115070    0.085711    0.874630
     43          1           0        2.272985   -1.412809   -1.430627
     44          1           0        2.878476   -1.356962    1.503760
     45          1           0        4.338831   -0.551720   -0.952915
 ---------------------------------------------------------------------

 SCF Done:  E(RB3LYP) =  -1297.91923055     A.U. after   14 cycles

 The electronic state is 1-A.
 Alpha  occ. eigenvalues --  -19.20711 -19.19839 -19.19797 -19.18930 -19.17967
 Alpha  occ. eigenvalues --  -19.16936 -19.16547 -19.16258 -19.15882 -19.15501
 Alpha  occ. eigenvalues --  -19.15220 -10.31614 -10.29537 -10.27940 -10.27519
 Alpha  occ. eigenvalues --  -10.27423 -10.27145 -10.25405 -10.25197 -10.24723
 Alpha  occ. eigenvalues --  -10.24413 -10.24346 -10.22473  -1.10511  -1.08248
 Alpha  occ. eigenvalues --   -1.06796  -1.05730  -1.04544  -1.03373  -1.02655
 Alpha  occ. eigenvalues --   -1.02201  -1.01023  -1.00287  -0.99981  -0.82938
 Alpha  occ. eigenvalues --   -0.81873  -0.79480  -0.78144  -0.72351  -0.70136
 Alpha  occ. eigenvalues --   -0.68119  -0.65176  -0.63954  -0.62759  -0.62048
 Alpha  occ. eigenvalues --   -0.60166  -0.58157  -0.57148  -0.55237  -0.54356
 Alpha  occ. eigenvalues --   -0.54066  -0.53451  -0.53272  -0.52245  -0.51305
 Alpha  occ. eigenvalues --   -0.50322  -0.49199  -0.48816  -0.48399  -0.47726
 Alpha  occ. eigenvalues --   -0.46426  -0.44940  -0.44582  -0.44187  -0.43450
 Alpha  occ. eigenvalues --   -0.43046  -0.42397  -0.41282  -0.40680  -0.39487
 Alpha  occ. eigenvalues --   -0.38986  -0.37154  -0.36623  -0.35990  -0.35698
 Alpha  occ. eigenvalues --   -0.34974  -0.34664  -0.34232  -0.33721  -0.33532
 Alpha  occ. eigenvalues --   -0.31755  -0.31459  -0.31238  -0.30635  -0.30148
 Alpha  occ. eigenvalues --   -0.29660  -0.28882  -0.28535  -0.27544  -0.26457
 Alpha  occ. eigenvalues --   -0.26114
 Alpha virt. eigenvalues --   -0.04736  -0.01687  -0.00708  -0.00501   0.00500
 Alpha virt. eigenvalues --    0.01275   0.01465   0.01962   0.02142   0.03051
 Alpha virt. eigenvalues --    0.03842   0.04106   0.04816   0.04991   0.05507

 Mulliken atomic charges:
              1
     1  O   -0.501977
     2  C   -0.164442
     3  C    0.087840
     4  O   -0.470382
     5  H    0.310067
     6  C   -0.170057
     7  O   -0.581727
     8  H    0.395834
     9  C   -0.208905
    10  O   -0.581923
    11  H    0.369066
    12  C    0.268806
    13  O   -0.378168
    14  C    0.436033
    15  O   -0.293948
    16  C   -0.150047
    17  C    0.075975
    18  O   -0.563804
    19  H    0.417901
    20  C   -0.083683
    21  O   -0.457308
    22  H    0.368738
    23  C    0.092997
    24  O   -0.551768
    25  H    0.341719
    26  C   -0.129500
    27  O   -0.320282
    28  C    0.339652
    29  O   -0.494541
    30  H    0.341365
    31  H    0.350531
    32  H    0.122333
    33  H    0.149706
    34  H    0.150340
    35  H    0.139418
    36  H    0.160290
    37  H    0.161888
    38  H    0.109519
    39  H    0.139718
    40  H    0.159997
    41  H    0.120220
    42  H    0.111558
    43  H    0.137726
    44  H    0.139708
    45  H    0.103516
 Sum of Mulliken atomic charges =   0.00000

 Dipole moment (field-independent basis, Debye):
    X=             -8.2644    Y=              1.2894    Z=             -1.7595  Tot=              8.5474
 Quadrupole moment (field-independent basis, Debye-Ang):
   XX=           -119.3309   YY=           -143.3476   ZZ=           -137.3708
   XY=              8.7480   XZ=            -12.7182   YZ=             -0.7386

  Exact polarizability: 219.626  -0.403 198.558  -2.282  -0.635 144.201
 Approx polarizability: 258.832   0.376 254.493  -3.224  -1.583 234.437

 ******    8 imaginary frequencies (negative Signs) ******

                     1                      2                      3
                     A                      A                      A
 Frequencies --  -310.2084              -275.2267              -268.1989
 Red. masses --     1.1331                 1.8052                 1.5462
 Frc consts  --     0.0642                 0.0806                 0.0655
 IR Inten    --   106.2766                 7.3327                25.1509
 Raman Activ --     0.8094                 0.1118                 0.2617

                     4                      5                      6
                     A                      A                      A
 Frequencies --  -254.7811               -85.6631               -75.4994
 Red. masses --     1.1263                 6.6673                 7.5778
 Frc consts  --     0.0431                 0.0288                 0.0254
 IR Inten    --   107.5072                 2.2607                 3.2778
 Raman Activ --     1.2990                 0.0681                 0.0685

                     7                      8                      9
                     A                      A                      A
 Frequencies --   -44.9962               -37.1657                52.1207
 Red. masses --     7.0773                 6.5238                 7.0994
 Frc consts  --     0.0084                 0.0053                 0.0114
 IR Inten    --     3.1533                 0.4123                 0.5589
 Raman Activ --     0.0764                 0.1645                 0.0579

                    10                     11                     12
                     A                      A                      A
 Frequencies --    70.9865                80.3589               101.2788
 Red. masses --     6.7726                 6.4059                 7.0736
 Frc consts  --     0.0201                 0.0244                 0.0427
 IR Inten    --     2.2296                 5.5040                 1.0836
 Raman Activ --     0.0642                 0.1473                 0.3536

                    13                     14                     15
                     A                      A                      A
 Frequencies --   124.6419               144.6526               171.2227
 Red. masses --     6.0867                 6.9163                 6.8272
 Frc consts  --     0.0557                 0.0853                 0.1179
 IR Inten    --     1.6944                 2.6119                 2.2454
 Raman Activ --     0.1921                 0.4006                 0.6220

                    16                     17                     18
                     A                      A                      A
 Frequencies --   191.6508               219.1856               243.4907
 Red. masses --     5.5773                 6.3936                 5.3171
 Frc consts  --     0.1207                 0.1810                 0.1857
 IR Inten    --     2.7745                 4.4636                 8.9627
 Raman Activ --     0.4315                 2.0710                 0.5914

                    19                     20                     21
                     A                      A                      A
 Frequencies --   272.7060               281.7067               290.4809
 Red. masses --     6.0171                 5.7241                 4.6162
 Frc consts  --     0.2636                 0.2676                 0.2295
 IR Inten    --     5.2912                 3.8467                18.0028
 Raman Activ --     0.2437                 0.1810                 0.5833

                    22                     23                     24
                     A                      A                      A
 Frequencies --   305.0445               315.5755               331.0601
 Red. masses --     4.7065                 6.3790                 5.9223
 Frc consts  --     0.2580                 0.3743                 0.3824
 IR Inten    --     0.9030                 1.2694                 2.7953
 Raman Activ --     0.4341                 6.2203                 2.2813

                    25                     26                     27
                     A                      A                      A
 Frequencies --   354.5006               361.4482               373.5520
 Red. masses --     5.3621                 6.4602                 4.6007
 Frc consts  --     0.3970                 0.4973                 0.3782
 IR Inten    --    14.4830                 2.8765                 4.6296
 Raman Activ --     1.5857                 0.2612                 2.8077

                    28                     29                     30
                     A                      A                      A
 Frequencies --   417.7105               420.6425               426.4159
 Red. masses --     6.3081                 5.6359                 3.6324
 Frc consts  --     0.6485                 0.5875                 0.3891
 IR Inten    --     1.4715                 0.4239                38.4128
 Raman Activ --     6.1170                 0.6126                 4.8537

                    31                     32                     33
                     A                      A                      A
 Frequencies --   437.7395               476.8955               485.4252
 Red. masses --     5.8553                 4.6328                 2.9831
 Frc consts  --     0.6610                 0.6208                 0.4142
 IR Inten    --     1.8846                 7.7328                21.3390
 Raman Activ --     1.2643                 0.9063                 3.3112

                    34                     35                     36
                     A                      A                      A
 Frequencies --   509.0822               531.2157               549.3318
 Red. masses --     3.3233                 2.5064                 5.1612
 Frc consts  --     0.5075                 0.4167                 0.9176
 IR Inten    --    20.4849                64.9662                 5.1411
 Raman Activ --     4.5474                 0.9739                 4.6392

                    37                     38                     39
                     A                      A                      A
 Frequencies --   569.6133               583.0218               601.0563
 Red. masses --     2.6965                 1.6543                 1.4502
 Frc consts  --     0.5155                 0.3313                 0.3087
 IR Inten    --    17.7680               134.7645                26.3130
 Raman Activ --     0.1379                 1.1777                 2.8603

                    40                     41                     42
                     A                      A                      A
 Frequencies --   602.3375               609.0387               622.2168
 Red. masses --     1.2307                 2.2524                 1.9590
 Frc consts  --     0.2631                 0.4923                 0.4469
 IR Inten    --    88.9384                28.3277                44.2561
 Raman Activ --     1.9580                 0.7526                 1.0916

                    43                     44                     45
                     A                      A                      A
 Frequencies --   649.2319               668.6333               686.7106
 Red. masses --     2.8005                 4.7494                 1.1291
 Frc consts  --     0.6955                 1.2510                 0.3137
 IR Inten    --    23.2144                 6.6568               123.9044
 Raman Activ --     0.7798                 0.3859                 1.2715

                    46                     47                     48
                     A                      A                      A
 Frequencies --   715.6961               763.9928               837.4830
 Red. masses --     1.1123                 1.0586                 2.5855
 Frc consts  --     0.3357                 0.3640                 1.0684
 IR Inten    --   122.4483               113.0447                 6.6551
 Raman Activ --     1.8118                 2.1605                 1.7095

                    49                     50                     51
                     A                      A                      A
 Frequencies --   867.5016               956.9108               962.0326
 Red. masses --     2.4922                 5.8666                 6.2622
 Frc consts  --     1.1050                 3.1651                 3.4147
 IR Inten    --     0.3243                59.6759               225.6359
 Raman Activ --     4.4672                 2.4917                 1.2742

                    52                     53                     54
                     A                      A                      A
 Frequencies --   972.1771               976.2102              1001.4606
 Red. masses --     3.9009                 5.3339                 5.5489
 Frc consts  --     2.1723                 2.9949                 3.2789
 IR Inten    --    76.2358                40.1636               171.5710
 Raman Activ --     1.4435                 4.1060                 2.1269

                    55                     56                     57
                     A                      A                      A
 Frequencies --  1002.7509              1013.1073              1021.3024
 Red. masses --     4.5450                 4.2385                 2.2376
 Frc consts  --     2.6926                 2.5631                 1.3751
 IR Inten    --    71.8049                93.1511                88.8831
 Raman Activ --     1.2164                 1.3215                 1.2604

                    58                     59                     60
                     A                      A                      A
 Frequencies --  1037.6038              1040.3552              1060.6751
 Red. masses --     2.1749                 4.2721                 5.6484
 Frc consts  --     1.3796                 2.7243                 3.7440
 IR Inten    --   229.5326               329.6801               103.7881
 Raman Activ --     5.0193                 1.9705                 1.0658

                    61                     62                     63
                     A                      A                      A
 Frequencies --  1071.6153              1081.6820              1095.3131
 Red. masses --     4.7556                 5.1642                 3.5820
 Frc consts  --     3.2176                 3.5600                 2.5319
 IR Inten    --    19.5137                63.1261                66.8608
 Raman Activ --    10.1885                 6.2147                 3.3373

                    64                     65                     66
                     A                      A                      A
 Frequencies --  1096.5127              1099.9098              1103.7265
 Red. masses --     3.2649                 3.2631                 2.7358
 Frc consts  --     2.3128                 2.3259                 1.9636
 IR Inten    --    69.6660                28.6295                92.4101
 Raman Activ --     9.4152                 9.0556                 4.5899

                    67                     68                     69
                     A                      A                      A
 Frequencies --  1111.1036              1121.6497              1139.1586
 Red. masses --     2.8883                 2.2912                 1.8219
 Frc consts  --     2.1009                 1.6983                 1.3930
 IR Inten    --    13.4729                89.7178                12.8977
 Raman Activ --     2.2854                 7.0796                 4.8588

                    70                     71                     72
                     A                      A                      A
 Frequencies --  1141.4249              1152.6986              1154.2177
 Red. masses --     2.6257                 2.3821                 2.5397
 Frc consts  --     2.0155                 1.8648                 1.9935
 IR Inten    --    28.8318                41.0400                21.5609
 Raman Activ --     2.2085                 3.8011                 3.3680

                    73                     74                     75
                     A                      A                      A
 Frequencies --  1164.5384              1181.2633              1189.3718
 Red. masses --     2.3723                 1.9669                 1.7758
 Frc consts  --     1.8955                 1.6171                 1.4801
 IR Inten    --     4.3924                 5.3833                15.5788
 Raman Activ --     2.6267                 2.1076                 1.4844

                    76                     77                     78
                     A                      A                      A
 Frequencies --  1208.0869              1216.8733              1232.7829
 Red. masses --     1.3617                 1.6235                 1.2189
 Frc consts  --     1.1709                 1.4164                 1.0915
 IR Inten    --    15.6781                 5.2896                28.3846
 Raman Activ --     3.1354                 2.6764                 2.1743

                    79                     80                     81
                     A                      A                      A
 Frequencies --  1239.0241              1246.2363              1250.0428
 Red. masses --     1.2821                 1.1721                 1.4703
 Frc consts  --     1.1596                 1.0725                 1.3537
 IR Inten    --    10.2973                23.5870                25.7344
 Raman Activ --     1.0332                 5.4796                 2.5159

                    82                     83                     84
                     A                      A                      A
 Frequencies --  1259.7704              1263.5767              1278.2261
 Red. masses --     1.2159                 1.2604                 1.4183
 Frc consts  --     1.1369                 1.1857                 1.3653
 IR Inten    --    21.3206                16.3554                48.1450
 Raman Activ --     2.8507                 3.0595                 3.8640

                    85                     86                     87
                     A                      A                      A
 Frequencies --  1280.3017              1296.3200              1298.9817
 Red. masses --     1.3864                 1.2396                 1.3069
 Frc consts  --     1.3389                 1.2273                 1.2993
 IR Inten    --     2.5329                45.3739                14.8572
 Raman Activ --     1.7034                 2.1168                 1.7564

                    88                     89                     90
                     A                      A                      A
 Frequencies --  1309.9472              1312.8311              1321.7923
 Red. masses --     1.2477                 1.2281                 1.4174
 Frc consts  --     1.2614                 1.2471                 1.4591
 IR Inten    --     1.8427                32.3168                36.5811
 Raman Activ --     2.1932                 3.6201                 4.7324

                    91                     92                     93
                     A                      A                      A
 Frequencies --  1327.9207              1333.6901              1340.8657
 Red. masses --     1.2453                 1.2591                 1.2769
 Frc consts  --     1.2938                 1.3195                 1.3526
 IR Inten    --     3.9747                12.8609                20.1710
 Raman Activ --     3.6293                 6.3477                11.1411

                    94                     95                     96
                     A                      A                      A
 Frequencies --  1352.2999              1364.5420              1376.6601
 Red. masses --     1.4438                 1.4056                 1.4160
 Frc consts  --     1.5557                 1.5420                 1.5812
 IR Inten    --     8.0736                18.8287                27.9113
 Raman Activ --     2.1627                 4.3708                 1.5652

                    97                     98                     99
                     A                      A                      A
 Frequencies --  1384.0596              1407.2567              1408.1728
 Red. masses --     1.1386                 1.5424                 1.4194
 Frc consts  --     1.2851                 1.7997                 1.6583
 IR Inten    --    25.6028                 4.7640                 1.8518
 Raman Activ --     2.8597                 6.5461                 5.0330

                   100                    101                    102
                     A                      A                      A
 Frequencies --  1413.8777              1418.4199              1428.6308
 Red. masses --     1.3436                 1.2617                 1.3773
 Frc consts  --     1.5824                 1.4956                 1.6562
 IR Inten    --    27.4008                13.9039                 9.1069
 Raman Activ --     2.1789                 1.1680                 0.2442

                   103                    104                    105
                     A                      A                      A
 Frequencies --  1438.8988              1442.9882              1455.2554
 Red. masses --     1.2927                 1.0956                 1.4396
 Frc consts  --     1.5769                 1.3441                 1.7963
 IR Inten    --     2.3174                13.1263                50.4541
 Raman Activ --    11.9873                 6.7170                 3.0500

                   106                    107                    108
                     A                      A                      A
 Frequencies --  1470.5628              1476.2079              3267.2852
 Red. masses --     1.0808                 1.4900                 1.0818
 Frc consts  --     1.3771                 1.9131                 6.8041
 IR Inten    --     2.2492                52.8635                 1.0249
 Raman Activ --     5.6852                 4.2654                 7.5661

                   109                    110                    111
                     A                      A                      A
 Frequencies --  3267.5924              3270.2334              3280.2751
 Red. masses --     1.0601                 1.0824                 1.0591
 Frc consts  --     6.6691                 6.8200                 6.7143
 IR Inten    --    39.5380                48.0939                26.3571
 Raman Activ --    63.3230               128.9669                73.9382

                   112                    113                    114
                     A                      A                      A
 Frequencies --  3285.5519              3286.2281              3292.3290
 Red. masses --     1.0836                 1.0827                 1.0834
 Frc consts  --     6.8918                 6.8891                 6.9188
 IR Inten    --     1.3624                 5.7267                 7.5999
 Raman Activ --   123.3068                39.4514               140.6507

                   115                    116                    117
                     A                      A                      A
 Frequencies --  3295.0018              3298.8966              3307.7002
 Red. masses --     1.0846                 1.0843                 1.0888
 Frc consts  --     6.9380                 6.9528                 7.0189
 IR Inten    --    13.5497                 3.0513                 2.8902
 Raman Activ --     8.5153                68.3970                66.8935

                   118                    119                    120
                     A                      A                      A
 Frequencies --  3309.7336              3320.0772              3327.2289
 Red. masses --     1.0864                 1.0869                 1.1015
 Frc consts  --     7.0115                 7.0589                 7.1846
 IR Inten    --   104.4282                22.4931                56.9237
 Raman Activ --     7.5427                27.1849                42.9199

                   121                    122                    123
                     A                      A                      A
 Frequencies --  3344.7494              3359.9074              3373.8610
 Red. masses --     1.1029                 1.0689                 1.0654
 Frc consts  --     7.2697                 7.1097                 7.1450
 IR Inten    --    30.0690               343.3920                 6.8076
 Raman Activ --    47.6137               160.0592               120.9315

                   124                    125                    126
                     A                      A                      A
 Frequencies --  3380.6893              3386.1680              3393.3151
 Red. masses --     1.0715                 1.0684                 1.0692
 Frc consts  --     7.2156                 7.2177                 7.2539
 IR Inten    --    25.8926                63.2226                72.3642
 Raman Activ --   122.2435               198.8079               159.1212

                   127                    128                    129
                     A                      A                      A
 Frequencies --  3395.6991              3907.4545              3917.5495
 Red. masses --     1.0661                 1.0671                 1.0671
 Frc consts  --     7.2429                 9.5997                 9.6486
 IR Inten    --    53.4553                35.8903                62.1189
 Raman Activ --    72.1409               109.8068               123.3657

 - Thermochemistry -
 -------------------
 Temperature   298.150 Kelvin.  Pressure   1.00000 Atm.
 Atom     1 has atomic number  8 and mass  15.99491

 Molecular mass:   342.11621 amu.
 Principal axes and moments of inertia in atomic units:
                           1         2         3
     Eigenvalues --  4850.83849********************
           X            0.99998   0.00653  -0.00262
           Y           -0.00652   0.99998   0.00046
           Z            0.00263  -0.00044   1.00000
 This molecule is an asymmetric top.
 Rotational symmetry number  1.
 Warning -- assumption of classical behavior for rotation
           may cause significant error
 Rotational temperatures (Kelvin)      0.01786     0.00740     0.00546
 Rotational constants (GHZ):           0.37205     0.15411     0.11386
    8 imaginary frequencies ignored.
 Zero-point vibrational energy     971296.3 (Joules/Mol)
                                  232.14538 (Kcal/Mol)
 Warning -- explicit consideration of  33 degrees of freedom as
           vibrations may cause significant error
 Vibrational temperatures:     74.99   102.13   115.62   145.72   179.33
          (Kelvin)            208.12   246.35   275.74   315.36   350.33
                              392.36   405.31   417.94   438.89   454.04
                              476.32   510.05   520.04   537.46   600.99
                              605.21   613.52   629.81   686.15   698.42
                              732.45   764.30   790.37   819.55   838.84
                              864.78   866.63   876.27   895.23   934.10
                              962.01   988.02  1029.73  1099.21  1204.95
                             1248.14  1376.78  1384.15  1398.74  1404.55
                             1440.88  1442.73  1457.63  1469.42  1492.88
                             1496.84  1526.07  1541.81  1556.30  1575.91
                             1577.64  1582.52  1588.01  1598.63  1613.80
                             1638.99  1642.25  1658.47  1660.66  1675.51
                             1699.57  1711.24  1738.17  1750.81  1773.70
                             1782.68  1793.05  1798.53  1812.53  1818.00
                             1839.08  1842.07  1865.11  1868.94  1884.72
                             1888.87  1901.76  1910.58  1918.88  1929.20
                             1945.66  1963.27  1980.70  1991.35  2024.73
                             2026.04  2034.25  2040.79  2055.48  2070.25
                             2076.14  2093.79  2115.81  2123.93  4700.89
                             4701.33  4705.13  4719.58  4727.17  4728.14
                             4736.92  4740.77  4746.37  4759.04  4761.96
                             4776.84  4787.13  4812.34  4834.15  4854.23
                             4864.05  4871.93  4882.22  4885.65  5621.95
                             5636.47

 Zero-point correction=                           0.369947 (Hartree/Particle)
 Thermal correction to Energy=                    0.387988
 Thermal correction to Enthalpy=                  0.388932
 Thermal correction to Gibbs Free Energy=         0.324939
 Sum of electronic and zero-point Energies=          -1297.549283
 Sum of electronic and thermal Energies=             -1297.531242
 Sum of electronic and thermal Enthalpies=           -1297.530298
 Sum of electronic and thermal Free Energies=        -1297.594291

                     E (Thermal)             CV                S
                      KCal/Mol        Cal/Mol-Kelvin    Cal/Mol-Kelvin
 Total                  243.466             75.283            134.685
 Electronic               0.000              0.000              0.000
 Translational            0.889              2.981             43.384
 Rotational               0.889              2.981             35.153
 Vibrational            241.689             69.321             56.148
 Vibration     1          0.596              1.977              4.735
 Vibration     2          0.598              1.968              4.126
 Vibration     3          0.600              1.962              3.882
 Vibration     4          0.604              1.948              3.430
 Vibration     5          0.610              1.928              3.027
 Vibration     6          0.616              1.908              2.741
 Vibration     7          0.626              1.878              2.422
 Vibration     8          0.634              1.851              2.212
 Vibration     9          0.647              1.812              1.966
 Vibration    10          0.659              1.774              1.777
 Vibration    11          0.676              1.724              1.579
 Vibration    12          0.681              1.708              1.523
 Vibration    13          0.686              1.691              1.471
 Vibration    14          0.696              1.664              1.389
 Vibration    15          0.703              1.644              1.333
 Vibration    16          0.713              1.613              1.255
 Vibration    17          0.730              1.566              1.146
 Vibration    18          0.736              1.552              1.116
 Vibration    19          0.745              1.526              1.065
 Vibration    20          0.781              1.432              0.900
 Vibration    21          0.783              1.425              0.890
 Vibration    22          0.788              1.413              0.870
 Vibration    23          0.798              1.388              0.834
 Vibration    24          0.833              1.301              0.718
 Vibration    25          0.841              1.282              0.696
 Vibration    26          0.864              1.230              0.636
 Vibration    27          0.886              1.181              0.584
 Vibration    28          0.905              1.141              0.546
 Vibration    29          0.926              1.097              0.505
 Vibration    30          0.940              1.068              0.480
 Vibration    31          0.959              1.030              0.448
 Vibration    32          0.961              1.027              0.446
 Vibration    33          0.968              1.013              0.434

 Normal termination of Gaussian 09 at Tue Mar  1 16:37:52 2016.
