 Gaussian 09, Revision B.01,
 Gaussian 09:  EM64L-G09RevB.01 12-Aug-2010

 -------------------------------------------------
 # freq=raman b3lyp/6-31+g(2d,p) geom=connectivity
 -------------------------------------------------

 -----------------
 473 8911/8911.com
 -----------------
 Symbolic Z-matrix:
 Charge =  0 Multiplicity = 1

                         Standard orientation:
 ---------------------------------------------------------------------
 Center     Atomic      Atomic             Coordinates (Angstroms)
 Number     Number       Type             X           Y           Z
 ---------------------------------------------------------------------
      1          8           0       -5.014988   -0.423273    0.299684
      2          6           0       -3.695636   -0.117993   -0.175667
      3          6           0       -3.165564    1.219526    0.313849
      4          8           0       -4.065967    2.309809    0.071266
      5          1           0       -4.956158    1.952110    0.354149
      6          6           0       -1.800600    1.588178   -0.244649
      7          8           0       -1.330048    2.861411    0.219457
      8          1           0       -0.533708    3.136934   -0.319129
      9          6           0       -3.037342   -2.570891   -0.099609
     10          8           0       -4.247195   -3.155127    0.405259
     11          1           0       -4.134625   -4.137825    0.263646
     12          6           0       -2.684067   -1.147355    0.298528
     13          8           0       -1.392117   -0.831405   -0.239634
     14          6           0       -0.894994    0.445893    0.185440
     15          8           0        0.291903    0.488639   -0.620450
     16          6           0        1.506457    0.191198    0.082609
     17          6           0        2.018843   -1.141346   -0.439930
     18          8           0        1.049063   -2.185681   -0.600587
     19          1           0        0.166033   -1.758759   -0.798323
     20          6           0        3.309175   -1.589781    0.226248
     21          8           0        3.776871   -2.697238   -0.556877
     22          1           0        4.724323   -2.807029   -0.255585
     23          6           0        2.331593    2.708321    0.046170
     24          8           0        1.254025    3.352868   -0.649408
     25          1           0        1.241438    4.324753   -0.412782
     26          6           0        2.618267    1.219175   -0.052562
     27          8           0        3.734338    0.743894    0.714118
     28          6           0        4.278720   -0.427109    0.087662
     29          8           0        5.415913   -0.708617    0.916317
     30          1           0        6.175574   -0.902165    0.362192
     31          1           0        3.227842    3.208857   -0.255658
     32          1           0        2.189469    2.920052    1.085338
     33          1           0        2.938847    1.105075   -1.067012
     34          1           0        1.275284    0.080782    1.121487
     35          1           0        2.315421   -0.919553   -1.443798
     36          1           0        3.154508   -1.861388    1.249580
     37          1           0        4.557038   -0.248298   -0.929916
     38          1           0       -5.591035   -0.601349   -0.447350
     39          1           0       -2.226739   -3.199249    0.205333
     40          1           0       -3.088560   -2.601291   -1.167950
     41          1           0       -2.627755   -1.098927    1.365947
     42          1           0       -3.707903   -0.113418   -1.245587
     43          1           0       -3.055154    1.137465    1.374969
     44          1           0       -1.854865    1.606266   -1.313119
     45          1           0       -0.672779    0.467829    1.231881
 ---------------------------------------------------------------------

 SCF Done:  E(RB3LYP) =  -1297.97358135     A.U. after   13 cycles

 The electronic state is 1-A.
 Alpha  occ. eigenvalues --  -19.18978 -19.18472 -19.18354 -19.18266 -19.17411
 Alpha  occ. eigenvalues --  -19.17033 -19.16392 -19.16186 -19.14840 -19.14310
 Alpha  occ. eigenvalues --  -19.13438 -10.30972 -10.30232 -10.26306 -10.25853
 Alpha  occ. eigenvalues --  -10.25275 -10.25140 -10.25099 -10.24521 -10.24432
 Alpha  occ. eigenvalues --  -10.23977 -10.23917 -10.23419  -1.10206  -1.09659
 Alpha  occ. eigenvalues --   -1.05515  -1.05143  -1.03974  -1.03654  -1.02951
 Alpha  occ. eigenvalues --   -1.02590  -1.02122  -1.00373  -0.99815  -0.82027
 Alpha  occ. eigenvalues --   -0.80590  -0.79290  -0.78388  -0.72225  -0.70146
 Alpha  occ. eigenvalues --   -0.66974  -0.64755  -0.63084  -0.62159  -0.61649
 Alpha  occ. eigenvalues --   -0.60534  -0.56510  -0.55758  -0.55060  -0.54186
 Alpha  occ. eigenvalues --   -0.53755  -0.53201  -0.53048  -0.51573  -0.51082
 Alpha  occ. eigenvalues --   -0.50611  -0.49931  -0.49182  -0.48756  -0.47134
 Alpha  occ. eigenvalues --   -0.46311  -0.45288  -0.44340  -0.43595  -0.43011
 Alpha  occ. eigenvalues --   -0.42526  -0.41815  -0.40977  -0.39947  -0.39420
 Alpha  occ. eigenvalues --   -0.38841  -0.38349  -0.37434  -0.36387  -0.35682
 Alpha  occ. eigenvalues --   -0.35593  -0.34987  -0.34698  -0.34082  -0.33619
 Alpha  occ. eigenvalues --   -0.32808  -0.31544  -0.31017  -0.30498  -0.29690
 Alpha  occ. eigenvalues --   -0.29277  -0.28639  -0.28111  -0.27559  -0.26600
 Alpha  occ. eigenvalues --   -0.26066
 Alpha virt. eigenvalues --   -0.02504  -0.02310  -0.01778  -0.00077   0.00424
 Alpha virt. eigenvalues --    0.00770   0.01870   0.02079   0.03409   0.03647
 Alpha virt. eigenvalues --    0.03883   0.04153   0.04764   0.05296   0.05671

 Mulliken atomic charges:
              1
     1  O   -0.546019
     2  C   -0.005286
     3  C    0.175789
     4  O   -0.553596
     5  H    0.342069
     6  C   -0.152479
     7  O   -0.541762
     8  H    0.382697
     9  C   -0.232300
    10  O   -0.511662
    11  H    0.335982
    12  C    0.106474
    13  O   -0.244829
    14  C    0.314675
    15  O   -0.186587
    16  C    0.472605
    17  C    0.126434
    18  O   -0.578276
    19  H    0.380526
    20  C    0.066739
    21  O   -0.506467
    22  H    0.318683
    23  C   -0.549903
    24  O   -0.538171
    25  H    0.357103
    26  C   -0.007694
    27  O   -0.265433
    28  C    0.127192
    29  O   -0.530402
    30  H    0.333491
    31  H    0.148733
    32  H    0.152674
    33  H    0.106418
    34  H    0.095010
    35  H    0.104011
    36  H    0.134690
    37  H    0.146682
    38  H    0.342547
    39  H    0.150605
    40  H    0.137533
    41  H    0.111729
    42  H    0.114097
    43  H    0.109910
    44  H    0.129453
    45  H    0.126318
 Sum of Mulliken atomic charges =   0.00000

 Dipole moment (field-independent basis, Debye):
    X=              2.5209    Y=              0.4069    Z=             -1.4792  Tot=              2.9510
 Quadrupole moment (field-independent basis, Debye-Ang):
   XX=           -118.4418   YY=           -135.2822   ZZ=           -141.4100
   XY=             15.5808   XZ=              1.4121   YZ=             -1.8665

  Exact polarizability: 230.509  -0.841 198.337   0.946   1.077 144.180
 Approx polarizability: 271.911  -0.270 258.823   0.075   1.963 242.000

 ******    6 imaginary frequencies (negative Signs) ******

                     1                      2                      3
                     A                      A                      A
 Frequencies --  -321.1872              -287.4950              -270.2782
 Red. masses --     1.7130                 1.6043                 1.2155
 Frc consts  --     0.1041                 0.0781                 0.0523
 IR Inten    --     4.1827                27.9368               106.6644
 Raman Activ --     0.0439                 0.1953                 0.8841

                     4                      5                      6
                     A                      A                      A
 Frequencies --  -242.5791               -68.6625               -53.5339
 Red. masses --     1.2326                 6.5395                 6.4927
 Frc consts  --     0.0427                 0.0182                 0.0110
 IR Inten    --    75.4785                 0.7055                 0.6869
 Raman Activ --     0.6994                 0.0642                 0.0753

                     7                      8                      9
                     A                      A                      A
 Frequencies --    43.0780                60.1113                70.7278
 Red. masses --     6.4825                 6.2742                 6.4332
 Frc consts  --     0.0071                 0.0134                 0.0190
 IR Inten    --     0.2561                 0.5879                 0.2807
 Raman Activ --     0.1158                 0.0923                 0.0696

                    10                     11                     12
                     A                      A                      A
 Frequencies --    84.1730               108.0095               142.6452
 Red. masses --     6.1543                 6.2868                 5.9151
 Frc consts  --     0.0257                 0.0432                 0.0709
 IR Inten    --     1.8894                 2.0947                 1.6847
 Raman Activ --     0.1280                 0.0425                 0.0064

                    13                     14                     15
                     A                      A                      A
 Frequencies --   155.4894               181.6690               188.9695
 Red. masses --     6.4363                 7.2649                 5.8694
 Frc consts  --     0.0917                 0.1413                 0.1235
 IR Inten    --     2.8979                 0.2005                 1.2310
 Raman Activ --     0.5168                 0.6364                 0.9500

                    16                     17                     18
                     A                      A                      A
 Frequencies --   204.6280               235.9518               270.7185
 Red. masses --     6.4394                 6.2807                 4.4418
 Frc consts  --     0.1589                 0.2060                 0.1918
 IR Inten    --     1.2958                 5.3097                16.0873
 Raman Activ --     0.5045                 0.9055                 0.2909

                    19                     20                     21
                     A                      A                      A
 Frequencies --   276.9954               286.2588               300.2647
 Red. masses --     4.5668                 4.6074                 5.6490
 Frc consts  --     0.2064                 0.2224                 0.3001
 IR Inten    --     2.3130                 2.0920                 2.5770
 Raman Activ --     0.0437                 0.2083                 0.9230

                    22                     23                     24
                     A                      A                      A
 Frequencies --   306.1211               314.3334               321.7529
 Red. masses --     6.2274                 5.7488                 4.5551
 Frc consts  --     0.3438                 0.3347                 0.2778
 IR Inten    --     0.5979                 0.7282                 5.0882
 Raman Activ --     3.9996                 2.4862                 0.5214

                    25                     26                     27
                     A                      A                      A
 Frequencies --   332.5650               355.4956               381.6677
 Red. masses --     6.6886                 5.0275                 7.0890
 Frc consts  --     0.4359                 0.3743                 0.6084
 IR Inten    --    11.0468                 4.3915                 0.4291
 Raman Activ --     4.0889                 0.0719                 2.2702

                    28                     29                     30
                     A                      A                      A
 Frequencies --   403.0456               421.8711               423.9299
 Red. masses --     6.0034                 4.2165                 5.3023
 Frc consts  --     0.5746                 0.4421                 0.5614
 IR Inten    --    11.7792                 7.8029                 2.5266
 Raman Activ --     2.8017                 4.1178                 1.0853

                    31                     32                     33
                     A                      A                      A
 Frequencies --   433.7685               479.6168               497.1171
 Red. masses --     5.0628                 4.5977                 6.3911
 Frc consts  --     0.5613                 0.6231                 0.9306
 IR Inten    --     2.1217                 2.5808                 3.7528
 Raman Activ --     3.9422                 5.6277                 0.2533

                    34                     35                     36
                     A                      A                      A
 Frequencies --   508.5483               534.3887               568.0403
 Red. masses --     3.1980                 3.0419                 4.8386
 Frc consts  --     0.4873                 0.5118                 0.9199
 IR Inten    --    27.7847                 7.3290                16.2460
 Raman Activ --     1.6187                 3.4011                 1.7466

                    37                     38                     39
                     A                      A                      A
 Frequencies --   590.3394               593.9225               624.7453
 Red. masses --     5.9395                 3.1971                 5.3573
 Frc consts  --     1.2196                 0.6645                 1.2320
 IR Inten    --     9.2348                22.5936                40.4112
 Raman Activ --     0.6143                 0.0765                 1.1811

                    40                     41                     42
                     A                      A                      A
 Frequencies --   634.6021               697.9690               703.4758
 Red. masses --     3.2837                 5.7569                 1.0720
 Frc consts  --     0.7791                 1.6524                 0.3126
 IR Inten    --    12.9872                17.9483               136.5960
 Raman Activ --     0.2697                 1.7408                 1.3654

                    43                     44                     45
                     A                      A                      A
 Frequencies --   718.2008               727.2222               757.0895
 Red. masses --     1.0753                 1.0855                 1.0930
 Frc consts  --     0.3268                 0.3382                 0.3691
 IR Inten    --    83.6968               141.9548               167.8117
 Raman Activ --     1.6482                 3.1433                 2.7690

                    46                     47                     48
                     A                      A                      A
 Frequencies --   768.9627               776.1492               852.8452
 Red. masses --     1.0904                 1.0849                 1.7921
 Frc consts  --     0.3799                 0.3851                 0.7680
 IR Inten    --    74.5466                86.7319                 4.9904
 Raman Activ --     2.0312                 1.6078                 0.7384

                    49                     50                     51
                     A                      A                      A
 Frequencies --   869.0460               927.9647               947.2143
 Red. masses --     1.9225                 5.5960                 5.1058
 Frc consts  --     0.8554                 2.8392                 2.6990
 IR Inten    --     2.3707               210.6954                45.7512
 Raman Activ --     0.9199                 3.0011                 0.7316

                    52                     53                     54
                     A                      A                      A
 Frequencies --   974.5612               975.5433               989.8143
 Red. masses --     5.0198                 5.9706                 4.6574
 Frc consts  --     2.8090                 3.3478                 2.6885
 IR Inten    --    73.5419               119.6111                17.9798
 Raman Activ --     1.7579                 1.3026                 1.6894

                    55                     56                     57
                     A                      A                      A
 Frequencies --   998.7660              1009.0268              1013.8262
 Red. masses --     4.3974                 8.7226                 5.7833
 Frc consts  --     2.5845                 5.2324                 3.5023
 IR Inten    --   287.3981               101.0250                76.8803
 Raman Activ --     2.4756                 1.5406                 3.0167

                    58                     59                     60
                     A                      A                      A
 Frequencies --  1029.3866              1051.1470              1065.7049
 Red. masses --     8.0905                 5.8068                 6.3008
 Frc consts  --     5.0511                 3.7802                 4.2162
 IR Inten    --   350.9552               136.5076                64.2511
 Raman Activ --     1.8849                 2.0370                 2.3734

                    61                     62                     63
                     A                      A                      A
 Frequencies --  1073.6514              1075.5514              1082.9489
 Red. masses --     3.2951                 4.6871                 2.4013
 Frc consts  --     2.2380                 3.1946                 1.6592
 IR Inten    --    28.9913                22.9854                75.7817
 Raman Activ --    15.7831                 8.1673                 4.0346

                    64                     65                     66
                     A                      A                      A
 Frequencies --  1086.7976              1097.4382              1110.2636
 Red. masses --     3.3580                 2.5676                 2.5621
 Frc consts  --     2.3369                 1.8219                 1.8608
 IR Inten    --     4.5670                54.8261                29.0171
 Raman Activ --    16.2278                 2.7111                11.3735

                    67                     68                     69
                     A                      A                      A
 Frequencies --  1124.2450              1132.7081              1139.8023
 Red. masses --     2.5921                 2.1625                 2.5442
 Frc consts  --     1.9303                 1.6347                 1.9474
 IR Inten    --     1.2361                31.4039                35.0269
 Raman Activ --     4.3622                 0.4349                 9.8453

                    70                     71                     72
                     A                      A                      A
 Frequencies --  1140.3548              1145.1592              1156.7160
 Red. masses --     2.4802                 2.3807                 1.9474
 Frc consts  --     1.9003                 1.8395                 1.5352
 IR Inten    --     1.5631                34.5412                 3.6622
 Raman Activ --     2.7667                 4.5771                 3.1518

                    73                     74                     75
                     A                      A                      A
 Frequencies --  1170.8299              1179.5920              1208.0950
 Red. masses --     1.8388                 2.2452                 1.3782
 Frc consts  --     1.4852                 1.8406                 1.1851
 IR Inten    --    17.1920                 7.8865                10.5061
 Raman Activ --     4.1870                 1.3495                 1.4315

                    76                     77                     78
                     A                      A                      A
 Frequencies --  1210.5992              1222.2771              1224.2983
 Red. masses --     1.7970                 1.6910                 1.2005
 Frc consts  --     1.5517                 1.4885                 1.0602
 IR Inten    --    10.9398                 7.0446                15.4064
 Raman Activ --     1.5742                 2.5970                 1.3675

                    79                     80                     81
                     A                      A                      A
 Frequencies --  1236.5118              1239.1511              1257.6112
 Red. masses --     1.2707                 1.2672                 1.4926
 Frc consts  --     1.1447                 1.1465                 1.3909
 IR Inten    --    28.7304                10.8380                48.2749
 Raman Activ --     0.9757                 1.1803                 2.6860

                    82                     83                     84
                     A                      A                      A
 Frequencies --  1279.3209              1289.8500              1293.5044
 Red. masses --     1.1846                 1.3419                 1.4403
 Frc consts  --     1.1423                 1.3153                 1.4198
 IR Inten    --    12.1308                 2.4902                21.7566
 Raman Activ --     2.3315                 2.0485                 2.6068

                    85                     86                     87
                     A                      A                      A
 Frequencies --  1303.1045              1307.4599              1317.0647
 Red. masses --     1.2832                 1.2294                 1.3263
 Frc consts  --     1.2839                 1.2382                 1.3555
 IR Inten    --    11.7362                 3.9519                 9.3988
 Raman Activ --     1.4620                 2.4013                 9.0489

                    88                     89                     90
                     A                      A                      A
 Frequencies --  1320.6478              1332.1111              1337.7842
 Red. masses --     1.2713                 1.2378                 1.1984
 Frc consts  --     1.3063                 1.2942                 1.2637
 IR Inten    --    37.5512                29.2678                12.4503
 Raman Activ --     3.4834                 2.7862                11.7891

                    91                     92                     93
                     A                      A                      A
 Frequencies --  1347.0425              1356.2575              1357.1373
 Red. masses --     1.1805                 1.3120                 1.3093
 Frc consts  --     1.2620                 1.4219                 1.4208
 IR Inten    --    39.5681                 9.3300                14.0264
 Raman Activ --     0.8459                 1.2385                 3.7269

                    94                     95                     96
                     A                      A                      A
 Frequencies --  1366.9881              1375.6563              1388.8705
 Red. masses --     1.3874                 1.5759                 1.2023
 Frc consts  --     1.5275                 1.7571                 1.3665
 IR Inten    --    14.5243                 7.7930                14.5445
 Raman Activ --     7.1369                 4.8988                 4.7855

                    97                     98                     99
                     A                      A                      A
 Frequencies --  1394.9983              1399.8328              1432.8131
 Red. masses --     1.4225                 1.2770                 1.1907
 Frc consts  --     1.6310                 1.4743                 1.4403
 IR Inten    --     3.9681                 3.6856                13.0281
 Raman Activ --     2.7276                 9.2453                 3.5086

                   100                    101                    102
                     A                      A                      A
 Frequencies --  1457.3491              1461.6973              1471.6438
 Red. masses --     1.2986                 1.3141                 1.3705
 Frc consts  --     1.6250                 1.6543                 1.7488
 IR Inten    --    42.6754                25.6676                28.9178
 Raman Activ --     0.6508                 3.8484                 0.8080

                   103                    104                    105
                     A                      A                      A
 Frequencies --  1473.5592              1480.3050              1485.6579
 Red. masses --     1.0878                 1.1076                 1.3678
 Frc consts  --     1.3917                 1.4300                 1.7788
 IR Inten    --     3.2195                 0.1091                29.1441
 Raman Activ --     5.3100                 3.7381                 0.8502

                   106                    107                    108
                     A                      A                      A
 Frequencies --  1492.0169              1510.4114              3238.3927
 Red. masses --     1.3651                 1.2565                 1.0809
 Frc consts  --     1.7905                 1.6889                 6.6788
 IR Inten    --    45.6457                28.8165                 3.2533
 Raman Activ --     1.2545                 1.4058                17.1356

                   109                    110                    111
                     A                      A                      A
 Frequencies --  3250.5360              3254.0049              3256.8775
 Red. masses --     1.0791                 1.0581                 1.0588
 Frc consts  --     6.7176                 6.6011                 6.6172
 IR Inten    --    37.8419                27.5412                67.2368
 Raman Activ --   132.8745                67.2184                60.3086

                   112                    113                    114
                     A                      A                      A
 Frequencies --  3261.6731              3273.7995              3278.4597
 Red. masses --     1.0810                 1.0823                 1.0858
 Frc consts  --     6.7756                 6.8343                 6.8760
 IR Inten    --    17.3868                 7.1302                11.9309
 Raman Activ --    70.4359                93.1069                 7.5382

                   115                    116                    117
                     A                      A                      A
 Frequencies --  3287.0941              3292.3027              3293.9869
 Red. masses --     1.0860                 1.0859                 1.0862
 Frc consts  --     6.9135                 6.9351                 6.9440
 IR Inten    --    22.0969                 3.9060                 5.7942
 Raman Activ --    31.5311                63.5386               123.0725

                   118                    119                    120
                     A                      A                      A
 Frequencies --  3302.4583              3305.2336              3306.6999
 Red. masses --     1.0868                 1.0976                 1.0819
 Frc consts  --     6.9837                 7.0651                 6.9702
 IR Inten    --    48.5187                 9.9953                82.0492
 Raman Activ --    15.3591               111.0777               115.7212

                   121                    122                    123
                     A                      A                      A
 Frequencies --  3308.4968              3309.4007              3326.0222
 Red. masses --     1.0900                 1.0935                 1.0668
 Frc consts  --     7.0298                 7.0563                 6.9535
 IR Inten    --   188.7705               278.8484               529.8476
 Raman Activ --    62.9780                55.0293               110.5577

                   124                    125                    126
                     A                      A                      A
 Frequencies --  3358.3760              3361.1512              3365.6488
 Red. masses --     1.0649                 1.0650                 1.0665
 Frc consts  --     7.0764                 7.0887                 7.1176
 IR Inten    --    16.6214                31.3722                77.3958
 Raman Activ --   126.8780               104.2212               115.8879

                   127                    128                    129
                     A                      A                      A
 Frequencies --  3377.4351              3891.1616              3891.3476
 Red. masses --     1.0669                 1.0674                 1.0676
 Frc consts  --     7.1703                 9.5222                 9.5253
 IR Inten    --    39.6285                98.1038                54.2367
 Raman Activ --   153.1070                71.9337               125.4113

 - Thermochemistry -
 -------------------
 Temperature   298.150 Kelvin.  Pressure   1.00000 Atm.
 Atom     1 has atomic number  8 and mass  15.99491

 Molecular mass:   342.11621 amu.
 Principal axes and moments of inertia in atomic units:
                           1         2         3
     Eigenvalues --  4534.78510********************
           X            0.99996   0.00835  -0.00061
           Y           -0.00835   0.99997   0.00037
           Z            0.00061  -0.00036   1.00000
 This molecule is an asymmetric top.
 Rotational symmetry number  1.
 Warning -- assumption of classical behavior for rotation
           may cause significant error
 Rotational temperatures (Kelvin)      0.01910     0.00712     0.00536
 Rotational constants (GHZ):           0.39798     0.14826     0.11174
    6 imaginary frequencies ignored.
 Zero-point vibrational energy     976916.7 (Joules/Mol)
                                  233.48870 (Kcal/Mol)
 Warning -- explicit consideration of  32 degrees of freedom as
           vibrations may cause significant error
 Vibrational temperatures:     61.98    86.49   101.76   121.11   155.40
          (Kelvin)            205.23   223.71   261.38   271.88   294.41
                              339.48   389.50   398.53   411.86   432.01
                              440.44   452.26   462.93   478.49   511.48
                              549.13   579.89   606.98   609.94   624.10
                              690.06   715.24   731.69   768.87   817.28
                              849.37   854.52   898.87   913.05  1004.22
                             1012.14  1033.33  1046.31  1089.28  1106.36
                             1116.70  1227.05  1250.36  1335.13  1362.83
                             1402.17  1403.59  1424.12  1437.00  1451.76
                             1458.67  1481.06  1512.36  1533.31  1544.74
                             1547.48  1558.12  1563.66  1578.97  1597.42
                             1617.54  1629.71  1639.92  1640.71  1647.63
                             1664.25  1684.56  1697.17  1738.18  1741.78
                             1758.58  1761.49  1779.06  1782.86  1809.42
                             1840.66  1855.80  1861.06  1874.87  1881.14
                             1894.96  1900.12  1916.61  1924.77  1938.09
                             1951.35  1952.62  1966.79  1979.26  1998.27
                             2007.09  2014.04  2061.50  2096.80  2103.05
                             2117.36  2120.12  2129.83  2137.53  2146.68
                             2173.14  4659.32  4676.79  4681.78  4685.91
                             4692.81  4710.26  4716.97  4729.39  4736.88
                             4739.31  4751.50  4755.49  4757.60  4760.18
                             4761.48  4785.40  4831.95  4835.94  4842.41
                             4859.37  5598.51  5598.77

 Zero-point correction=                           0.372088 (Hartree/Particle)
 Thermal correction to Energy=                    0.391132
 Thermal correction to Enthalpy=                  0.392076
 Thermal correction to Gibbs Free Energy=         0.325609
 Sum of electronic and zero-point Energies=          -1297.601493
 Sum of electronic and thermal Energies=             -1297.582450
 Sum of electronic and thermal Enthalpies=           -1297.581506
 Sum of electronic and thermal Free Energies=        -1297.647972

                     E (Thermal)             CV                S
                      KCal/Mol        Cal/Mol-Kelvin    Cal/Mol-Kelvin
 Total                  245.439             77.765            139.891
 Electronic               0.000              0.000              0.000
 Translational            0.889              2.981             43.384
 Rotational               0.889              2.981             35.143
 Vibrational            243.661             71.803             61.363
 Vibration     1          0.595              1.980              5.112
 Vibration     2          0.597              1.973              4.454
 Vibration     3          0.598              1.968              4.133
 Vibration     4          0.601              1.960              3.791
 Vibration     5          0.606              1.943              3.304
 Vibration     6          0.616              1.911              2.768
 Vibration     7          0.620              1.897              2.604
 Vibration     8          0.630              1.865              2.311
 Vibration     9          0.633              1.855              2.238
 Vibration    10          0.640              1.833              2.091
 Vibration    11          0.655              1.786              1.833
 Vibration    12          0.674              1.727              1.592
 Vibration    13          0.678              1.716              1.552
 Vibration    14          0.684              1.699              1.496
 Vibration    15          0.693              1.673              1.415
 Vibration    16          0.697              1.662              1.383
 Vibration    17          0.702              1.646              1.339
 Vibration    18          0.707              1.632              1.301
 Vibration    19          0.715              1.610              1.248
 Vibration    20          0.731              1.564              1.142
 Vibration    21          0.751              1.509              1.033
 Vibration    22          0.768              1.464              0.952
 Vibration    23          0.784              1.423              0.886
 Vibration    24          0.786              1.418              0.879
 Vibration    25          0.795              1.397              0.846
 Vibration    26          0.836              1.295              0.711
 Vibration    27          0.853              1.256              0.665
 Vibration    28          0.864              1.231              0.637
 Vibration    29          0.889              1.174              0.577
 Vibration    30          0.924              1.100              0.508
 Vibration    31          0.948              1.052              0.467
 Vibration    32          0.952              1.045              0.460

 Normal termination of Gaussian 09 at Tue Mar 29 18:16:44 2016.
