 Gaussian 09, Revision B.01,
 Gaussian 09:  EM64L-G09RevB.01 12-Aug-2010

 --------------------------------------------------
 # freq=raman b3lyp/6-31+g(2df,p) geom=connectivity
 --------------------------------------------------

 ------------
 450 7000.com
 ------------
 Symbolic Z-matrix:
 Charge =  0 Multiplicity = 1

                         Standard orientation:
 ---------------------------------------------------------------------
 Center     Atomic      Atomic             Coordinates (Angstroms)
 Number     Number       Type             X           Y           Z
 ---------------------------------------------------------------------
      1          8           0       -5.040177    0.646809   -0.571972
      2          6           0       -3.889185    0.062311    0.054988
      3          6           0       -3.428283   -1.289852   -0.463801
      4          8           0       -4.240199   -2.365385    0.028685
      5          1           0       -5.176242   -2.246102   -0.304598
      6          6           0       -2.054319   -1.715224    0.028178
      7          8           0       -1.407777   -2.820733   -0.618232
      8          1           0       -2.117906   -3.524322   -0.582536
      9          6           0       -3.219693    2.402093    0.413705
     10          8           0       -2.254682    3.463915    0.412022
     11          1           0       -2.878923    4.223444    0.595219
     12          6           0       -2.759982    1.062179   -0.137233
     13          8           0       -1.611806    0.586998    0.581128
     14          6           0       -1.093561   -0.547578   -0.127467
     15          8           0        0.115349   -0.734590    0.623448
     16          6           0        1.369579   -0.316745    0.065195
     17          6           0        1.694529    1.140953    0.345729
     18          8           0        0.702439    2.045102   -0.163832
     19          1           0       -0.176280    2.018242    0.313481
     20          6           0        2.933473    1.535932   -0.441487
     21          8           0        3.384581    2.898239   -0.411160
     22          1           0        2.883985    3.398490   -1.117001
     23          6           0        2.227844   -2.559285    0.172996
     24          8           0        3.444964   -3.319261    0.208569
     25          1           0        3.844977   -3.228142    1.119667
     26          6           0        2.552114   -1.128700    0.569109
     27          8           0        3.768226   -0.762541   -0.098128
     28          6           0        4.057704    0.635176    0.043535
     29          8           0        5.351021    0.836651   -0.544141
     30          1           0        6.023257    0.449185    0.021163
     31          1           0        4.164950    0.823318    1.091391
     32          1           0        2.746330    1.290581   -1.466026
     33          1           0        1.847674    1.300129    1.392682
     34          1           0        1.312770   -0.442540   -0.995865
     35          1           0        2.654056   -1.039877    1.630531
     36          1           0        1.522535   -2.974108    0.862460
     37          1           0        1.819711   -2.576735   -0.815954
     38          1           0       -5.814905    0.491846   -0.026643
     39          1           0       -3.541807    2.250784    1.422788
     40          1           0       -4.063794    2.722670   -0.160424
     41          1           0       -2.527573    1.155079   -1.177548
     42          1           0       -4.086402   -0.029000    1.102684
     43          1           0       -3.442879   -1.289057   -1.533701
     44          1           0       -2.134639   -1.943802    1.070387
     45          1           0       -0.895718   -0.319285   -1.153936
 ---------------------------------------------------------------------

 SCF Done:  E(RB3LYP) =  -1298.01461472     A.U. after   14 cycles

 The electronic state is 1-A.
 Alpha  occ. eigenvalues --  -19.19296 -19.18864 -19.18226 -19.17660 -19.17040
 Alpha  occ. eigenvalues --  -19.16878 -19.15848 -19.14810 -19.14752 -19.13756
 Alpha  occ. eigenvalues --  -19.13506 -10.30569 -10.28041 -10.26997 -10.26760
 Alpha  occ. eigenvalues --  -10.26011 -10.25881 -10.24480 -10.24325 -10.23805
 Alpha  occ. eigenvalues --  -10.23553 -10.23234 -10.21915  -1.09930  -1.07284
 Alpha  occ. eigenvalues --   -1.06671  -1.05844  -1.04053  -1.03630  -1.02749
 Alpha  occ. eigenvalues --   -1.01838  -1.00907  -0.99630  -0.99194  -0.82291
 Alpha  occ. eigenvalues --   -0.81546  -0.78708  -0.77357  -0.71680  -0.68871
 Alpha  occ. eigenvalues --   -0.67387  -0.64187  -0.62589  -0.62389  -0.61481
 Alpha  occ. eigenvalues --   -0.59846  -0.57280  -0.56387  -0.54728  -0.53820
 Alpha  occ. eigenvalues --   -0.53373  -0.52722  -0.52546  -0.51607  -0.50497
 Alpha  occ. eigenvalues --   -0.49703  -0.48954  -0.48236  -0.47422  -0.46576
 Alpha  occ. eigenvalues --   -0.45561  -0.44652  -0.44585  -0.43382  -0.43250
 Alpha  occ. eigenvalues --   -0.42580  -0.42085  -0.40926  -0.40010  -0.39719
 Alpha  occ. eigenvalues --   -0.38934  -0.37989  -0.37246  -0.36824  -0.36256
 Alpha  occ. eigenvalues --   -0.34852  -0.34610  -0.34176  -0.34013  -0.32705
 Alpha  occ. eigenvalues --   -0.31935  -0.31386  -0.30883  -0.30310  -0.29636
 Alpha  occ. eigenvalues --   -0.29515  -0.28712  -0.28396  -0.27598  -0.26206
 Alpha  occ. eigenvalues --   -0.25150
 Alpha virt. eigenvalues --   -0.03877  -0.01991  -0.00803  -0.00483   0.00469
 Alpha virt. eigenvalues --    0.01168   0.01488   0.02125   0.02281   0.03011
 Alpha virt. eigenvalues --    0.03772   0.04303   0.05237   0.05377   0.05810

 Mulliken atomic charges:
              1
     1  O   -0.445301
     2  C   -0.186752
     3  C    0.163685
     4  O   -0.488758
     5  H    0.340272
     6  C   -0.270476
     7  O   -0.437803
     8  H    0.354613
     9  C   -0.437325
    10  O   -0.432632
    11  H    0.342914
    12  C    0.122746
    13  O   -0.065600
    14  C    0.105891
    15  O   -0.028437
    16  C   -0.012706
    17  C    0.029803
    18  O   -0.476631
    19  H    0.395401
    20  C   -0.218381
    21  O   -0.410043
    22  H    0.348554
    23  C   -0.220060
    24  O   -0.399444
    25  H    0.324609
    26  C   -0.240092
    27  O   -0.025252
    28  C    0.097113
    29  O   -0.437618
    30  H    0.334615
    31  H    0.105482
    32  H    0.126550
    33  H    0.125690
    34  H    0.113148
    35  H    0.122623
    36  H    0.164107
    37  H    0.155162
    38  H    0.346947
    39  H    0.140707
    40  H    0.170649
    41  H    0.129378
    42  H    0.138346
    43  H    0.143154
    44  H    0.150046
    45  H    0.141105
 Sum of Mulliken atomic charges =   0.00000

 Dipole moment (field-independent basis, Debye):
    X=             -9.0861    Y=              0.1301    Z=              2.2743  Tot=              9.3674
 Quadrupole moment (field-independent basis, Debye-Ang):
   XX=           -115.0950   YY=           -146.0025   ZZ=           -134.0280
   XY=             -4.7940   XZ=             10.1789   YZ=             -2.7009

  Exact polarizability: 227.736   0.432 198.391   0.700  -1.433 144.842
 Approx polarizability: 272.552  -1.395 256.448   0.624  -3.523 242.570

 ******    7 imaginary frequencies (negative Signs) ******

                     1                      2                      3
                     A                      A                      A
 Frequencies --  -256.5376              -208.2309              -105.1395
 Red. masses --     1.8038                 1.1179                 2.1443
 Frc consts  --     0.0699                 0.0286                 0.0140
 IR Inten    --     1.5359               109.6057                 3.1093
 Raman Activ --     0.1421                 1.3740                 0.0574

                     4                      5                      6
                     A                      A                      A
 Frequencies --   -64.4018               -54.9481               -44.7297
 Red. masses --     4.4968                 4.2519                 1.4807
 Frc consts  --     0.0110                 0.0076                 0.0017
 IR Inten    --     5.1515                13.4200                80.0031
 Raman Activ --     0.0877                 0.1428                 0.9294

                     7                      8                      9
                     A                      A                      A
 Frequencies --   -12.8648                31.8398                50.9958
 Red. masses --     5.3553                 5.7666                 6.7679
 Frc consts  --     0.0005                 0.0034                 0.0104
 IR Inten    --     0.4935                 1.5254                 0.1824
 Raman Activ --     0.0717                 0.0492                 0.0237

                    10                     11                     12
                     A                      A                      A
 Frequencies --    70.7235               101.4019               112.8905
 Red. masses --     6.0290                 6.0827                 5.9230
 Frc consts  --     0.0178                 0.0369                 0.0445
 IR Inten    --     2.2929                 4.0404                 6.8767
 Raman Activ --     0.1114                 0.0997                 0.2267

                    13                     14                     15
                     A                      A                      A
 Frequencies --   131.1362               154.1843               181.9514
 Red. masses --     5.2452                 6.5575                 6.3991
 Frc consts  --     0.0531                 0.0918                 0.1248
 IR Inten    --     1.0700                 2.3320                 0.9896
 Raman Activ --     0.1698                 0.8040                 0.3248

                    16                     17                     18
                     A                      A                      A
 Frequencies --   200.3596               214.8581               257.3554
 Red. masses --     5.3076                 6.6415                 5.5026
 Frc consts  --     0.1255                 0.1806                 0.2147
 IR Inten    --     2.0350                 1.4029                10.7497
 Raman Activ --     0.7073                 1.3659                 0.9911

                    19                     20                     21
                     A                      A                      A
 Frequencies --   276.9114               290.6527               295.3169
 Red. masses --     4.5689                 5.7020                 5.3578
 Frc consts  --     0.2064                 0.2838                 0.2753
 IR Inten    --     2.8784                 1.8019                 1.5478
 Raman Activ --     0.4153                 0.4450                 0.2079

                    22                     23                     24
                     A                      A                      A
 Frequencies --   315.7371               318.7172               339.0688
 Red. masses --     4.2055                 6.0744                 5.9798
 Frc consts  --     0.2470                 0.3636                 0.4051
 IR Inten    --     5.9190                 4.3525                 2.6361
 Raman Activ --     0.5528                 1.0385                 4.8625

                    25                     26                     27
                     A                      A                      A
 Frequencies --   351.7952               377.4693               381.1318
 Red. masses --     5.7456                 6.6416                 4.0054
 Frc consts  --     0.4190                 0.5576                 0.3428
 IR Inten    --     1.3804                 1.1041                 6.4541
 Raman Activ --     5.5559                 1.0462                 0.5712

                    28                     29                     30
                     A                      A                      A
 Frequencies --   408.9555               428.6654               434.5032
 Red. masses --     5.6878                 5.5362                 5.9491
 Frc consts  --     0.5605                 0.5994                 0.6617
 IR Inten    --     2.5268                 6.4654                 2.1219
 Raman Activ --     4.7642                 1.6175                 0.7705

                    31                     32                     33
                     A                      A                      A
 Frequencies --   458.9851               476.2443               493.3429
 Red. masses --     3.8672                 4.0669                 4.5216
 Frc consts  --     0.4800                 0.5435                 0.6484
 IR Inten    --    12.0920                 4.2289                11.6436
 Raman Activ --     0.9409                 4.4934                 1.2817

                    34                     35                     36
                     A                      A                      A
 Frequencies --   539.0050               559.0329               565.9022
 Red. masses --     3.6601                 3.9480                 5.8996
 Frc consts  --     0.6265                 0.7269                 1.1132
 IR Inten    --    20.0660                23.5369                 9.4740
 Raman Activ --     3.6602                 0.9036                 3.7311

                    37                     38                     39
                     A                      A                      A
 Frequencies --   588.0903               593.6391               615.2182
 Red. masses --     2.8655                 3.1998                 3.0954
 Frc consts  --     0.5839                 0.6644                 0.6903
 IR Inten    --     6.2116                28.7614                13.1807
 Raman Activ --     0.7557                 0.6038                 0.2205

                    40                     41                     42
                     A                      A                      A
 Frequencies --   652.6547               657.6780               691.3507
 Red. masses --     3.5001                 3.9607                 1.0988
 Frc consts  --     0.8784                 1.0094                 0.3094
 IR Inten    --    29.0352                10.9044                96.4267
 Raman Activ --     0.6316                 0.3407                 1.2615

                    43                     44                     45
                     A                      A                      A
 Frequencies --   695.8200               734.0586               753.7116
 Red. masses --     1.1011                 1.1441                 1.0970
 Frc consts  --     0.3141                 0.3632                 0.3672
 IR Inten    --   123.4734                92.7478               148.2864
 Raman Activ --     1.5692                 1.7529                 3.5966

                    46                     47                     48
                     A                      A                      A
 Frequencies --   764.3471               777.1916               851.5797
 Red. masses --     1.0954                 1.0876                 2.2892
 Frc consts  --     0.3770                 0.3871                 0.9781
 IR Inten    --    85.5018               111.2706                 9.7705
 Raman Activ --     1.3433                 2.2717                 1.6032

                    49                     50                     51
                     A                      A                      A
 Frequencies --   856.5004               936.2410               965.6517
 Red. masses --     2.4501                 5.9266                 7.3431
 Frc consts  --     1.0590                 3.0608                 4.0343
 IR Inten    --     2.4015                74.7255               331.4090
 Raman Activ --     5.7528                 4.7277                 2.1043

                    52                     53                     54
                     A                      A                      A
 Frequencies --   976.6924               978.0621               987.0156
 Red. masses --     6.0494                 3.7826                 5.9112
 Frc consts  --     3.4000                 2.1319                 3.3929
 IR Inten    --    80.0012                55.4419                77.3649
 Raman Activ --     1.5576                 1.6920                 3.0590

                    55                     56                     57
                     A                      A                      A
 Frequencies --   993.6528              1019.1048              1025.3212
 Red. masses --     4.1525                 6.1760                 5.5714
 Frc consts  --     2.4156                 3.7792                 3.4509
 IR Inten    --    91.4572               178.0361               319.4662
 Raman Activ --     1.4110                 6.3459                 1.1468

                    58                     59                     60
                     A                      A                      A
 Frequencies --  1038.1063              1049.2197              1058.3834
 Red. masses --     3.2617                 2.5543                 2.8847
 Frc consts  --     2.0710                 1.6567                 1.9039
 IR Inten    --    84.9818                23.1120               133.9187
 Raman Activ --     4.5854                12.2616                 3.0858

                    61                     62                     63
                     A                      A                      A
 Frequencies --  1064.6247              1075.9074              1082.6136
 Red. masses --     3.7728                 4.7015                 4.9005
 Frc consts  --     2.5195                 3.2065                 3.3841
 IR Inten    --    77.4657                46.0978                42.3584
 Raman Activ --     0.6508                16.2236                 6.3085

                    64                     65                     66
                     A                      A                      A
 Frequencies --  1087.6775              1098.0695              1100.1211
 Red. masses --     2.5372                 2.3010                 2.3577
 Frc consts  --     1.7685                 1.6347                 1.6812
 IR Inten    --    22.6350                27.5085                18.9770
 Raman Activ --     5.2693                 1.8594                 8.3422

                    67                     68                     69
                     A                      A                      A
 Frequencies --  1109.5639              1110.1413              1124.2817
 Red. masses --     2.4346                 2.2416                 3.0452
 Frc consts  --     1.7660                 1.6277                 2.2679
 IR Inten    --    21.6734                 3.6714                22.7136
 Raman Activ --     1.1094                 6.2162                 3.1630

                    70                     71                     72
                     A                      A                      A
 Frequencies --  1135.8276              1140.1156              1146.2500
 Red. masses --     2.7765                 2.2590                 2.8698
 Frc consts  --     2.1105                 1.7300                 2.2216
 IR Inten    --    57.5179                43.1747                52.4410
 Raman Activ --     3.7769                 6.6259                 0.2637

                    73                     74                     75
                     A                      A                      A
 Frequencies --  1154.2017              1173.6253              1174.4266
 Red. masses --     2.5537                 1.6448                 1.7531
 Frc consts  --     2.0044                 1.3348                 1.4247
 IR Inten    --     7.8966                 5.6352                20.4778
 Raman Activ --     1.6807                 1.6169                 2.2452

                    76                     77                     78
                     A                      A                      A
 Frequencies --  1183.5370              1195.4941              1224.5702
 Red. masses --     1.4914                 1.5174                 1.2707
 Frc consts  --     1.2308                 1.2778                 1.1227
 IR Inten    --     9.4258                13.3523                 1.5336
 Raman Activ --     1.9011                 1.8153                 2.0204

                    79                     80                     81
                     A                      A                      A
 Frequencies --  1233.0808              1234.4940              1238.2758
 Red. masses --     1.3316                 1.2225                 1.3070
 Frc consts  --     1.1929                 1.0977                 1.1807
 IR Inten    --     9.4676                16.7558                 7.2429
 Raman Activ --     3.8226                 3.5441                 2.9417

                    82                     83                     84
                     A                      A                      A
 Frequencies --  1244.9645              1266.8382              1277.1247
 Red. masses --     1.2474                 1.2274                 1.2901
 Frc consts  --     1.1391                 1.1606                 1.2397
 IR Inten    --    11.7055                12.6301                19.1323
 Raman Activ --     0.5386                 3.8271                 1.4797

                    85                     86                     87
                     A                      A                      A
 Frequencies --  1280.3523              1283.5453              1304.7064
 Red. masses --     1.3184                 1.1832                 1.4462
 Frc consts  --     1.2733                 1.1485                 1.4505
 IR Inten    --    11.1806                 9.7671                15.4630
 Raman Activ --     1.2052                 3.9372                 0.8433

                    88                     89                     90
                     A                      A                      A
 Frequencies --  1305.4093              1316.9225              1328.9594
 Red. masses --     1.3622                 1.3135                 1.4042
 Frc consts  --     1.3677                 1.3421                 1.4612
 IR Inten    --     2.3430                14.0229                21.2681
 Raman Activ --     4.5818                 0.9006                 6.4851

                    91                     92                     93
                     A                      A                      A
 Frequencies --  1334.2003              1340.7586              1346.1703
 Red. masses --     1.4894                 1.3158                 1.3930
 Frc consts  --     1.5621                 1.3936                 1.4873
 IR Inten    --    22.5754                59.0147                 9.9288
 Raman Activ --     4.2841                 5.4980                 7.7312

                    94                     95                     96
                     A                      A                      A
 Frequencies --  1347.0950              1355.8973              1366.0828
 Red. masses --     1.3254                 1.3856                 1.2232
 Frc consts  --     1.4171                 1.5008                 1.3449
 IR Inten    --     8.9591                13.4831                25.4438
 Raman Activ --     0.9012                 3.0077                 1.3721

                    97                     98                     99
                     A                      A                      A
 Frequencies --  1369.9229              1386.7265              1401.1833
 Red. masses --     1.2320                 1.3303                 1.4243
 Frc consts  --     1.3622                 1.5073                 1.6476
 IR Inten    --     1.0055                 3.3859                11.3123
 Raman Activ --     3.3067                 6.4414                 5.8479

                   100                    101                    102
                     A                      A                      A
 Frequencies --  1410.2616              1424.5362              1443.8032
 Red. masses --     1.3448                 1.4296                 1.0757
 Frc consts  --     1.5758                 1.7093                 1.3211
 IR Inten    --    13.4766                34.0418                36.4895
 Raman Activ --     3.4219                 3.5342                 4.8129

                   103                    104                    105
                     A                      A                      A
 Frequencies --  1454.1343              1460.3158              1465.9818
 Red. masses --     1.1978                 1.0800                 1.4219
 Frc consts  --     1.4923                 1.3570                 1.8004
 IR Inten    --    45.5220                 2.2879                37.8626
 Raman Activ --     3.9537                 4.6497                 3.9249

                   106                    107                    108
                     A                      A                      A
 Frequencies --  1476.4589              1506.5222              3252.0249
 Red. masses --     1.4199                 1.2958                 1.0825
 Frc consts  --     1.8237                 1.7327                 6.7450
 IR Inten    --    54.9919                21.5919                23.6448
 Raman Activ --     2.3445                 1.1180                47.0067

                   109                    110                    111
                     A                      A                      A
 Frequencies --  3254.3478              3265.9913              3269.7983
 Red. masses --     1.0581                 1.0618                 1.0778
 Frc consts  --     6.6023                 6.6730                 6.7891
 IR Inten    --    37.0941                32.1084                16.7439
 Raman Activ --    79.6926                32.0545                79.9023

                   112                    113                    114
                     A                      A                      A
 Frequencies --  3275.4212              3276.5417              3276.7259
 Red. masses --     1.0828                 1.0836                 1.0834
 Frc consts  --     6.8441                 6.8544                 6.8534
 IR Inten    --     3.6816                 4.9302                 0.6635
 Raman Activ --   100.4354                61.0740                82.0357

                   115                    116                    117
                     A                      A                      A
 Frequencies --  3279.8763              3286.9034              3290.6407
 Red. masses --     1.0830                 1.0844                 1.0863
 Frc consts  --     6.8643                 6.9029                 6.9302
 IR Inten    --     1.2070                 0.8840                 6.6886
 Raman Activ --    90.8847                71.1854                15.4274

                   118                    119                    120
                     A                      A                      A
 Frequencies --  3296.0063              3302.3627              3313.2914
 Red. masses --     1.0868                 1.0875                 1.1029
 Frc consts  --     6.9564                 6.9876                 7.1333
 IR Inten    --    70.7748                45.3471                46.0121
 Raman Activ --    12.6807                 6.7434                35.4528

                   121                    122                    123
                     A                      A                      A
 Frequencies --  3337.5280              3338.3765              3345.2657
 Red. masses --     1.0948                 1.0751                 1.0661
 Frc consts  --     7.1852                 7.0593                 7.0291
 IR Inten    --    75.3971               239.9493                18.8583
 Raman Activ --    77.0712               151.2079               155.4947

                   124                    125                    126
                     A                      A                      A
 Frequencies --  3360.1572              3360.8829              3365.1868
 Red. masses --     1.0649                 1.0662                 1.0727
 Frc consts  --     7.0842                 7.0954                 7.1570
 IR Inten    --    48.4304                35.0898                11.8103
 Raman Activ --    88.7651               161.9302                49.1234

                   127                    128                    129
                     A                      A                      A
 Frequencies --  3373.5208              3869.6023              3874.0563
 Red. masses --     1.0670                 1.0675                 1.0670
 Frc consts  --     7.1546                 9.4176                 9.4352
 IR Inten    --    50.9432                60.6077                64.6446
 Raman Activ --    89.9646               115.1763               120.5275

 - Thermochemistry -
 -------------------
 Temperature   298.150 Kelvin.  Pressure   1.00000 Atm.
 Atom     1 has atomic number  8 and mass  15.99491

 Molecular mass:   342.11621 amu.
 Principal axes and moments of inertia in atomic units:
                           1         2         3
     Eigenvalues --  4594.82931********************
           X            0.99998  -0.00598   0.00200
           Y            0.00598   0.99998  -0.00071
           Z           -0.00200   0.00072   1.00000
 This molecule is an asymmetric top.
 Rotational symmetry number  1.
 Warning -- assumption of classical behavior for rotation
           may cause significant error
 Rotational temperatures (Kelvin)      0.01885     0.00728     0.00542
 Rotational constants (GHZ):           0.39278     0.15171     0.11291
    7 imaginary frequencies ignored.
 Zero-point vibrational energy     972137.5 (Joules/Mol)
                                  232.34645 (Kcal/Mol)
 Warning -- explicit consideration of  32 degrees of freedom as
           vibrations may cause significant error
 Vibrational temperatures:     45.81    73.37   101.76   145.89   162.42
          (Kelvin)            188.68   221.84   261.79   288.27   309.13
                              370.28   398.41   418.18   424.89   454.27
                              458.56   487.84   506.15   543.09   548.36
                              588.39   616.75   625.15   660.38   685.21
                              709.81   775.51   804.32   814.21   846.13
                              854.11   885.16   939.02   946.25   994.70
                             1001.13  1056.15  1084.42  1099.72  1118.20
                             1225.23  1232.31  1347.04  1389.36  1405.24
                             1407.21  1420.09  1429.64  1466.26  1475.21
                             1493.60  1509.59  1522.78  1531.76  1547.99
                             1557.64  1564.92  1579.88  1582.83  1596.41
                             1597.24  1617.59  1634.20  1640.37  1649.20
                             1660.64  1688.58  1689.74  1702.84  1720.05
                             1761.88  1774.13  1776.16  1781.60  1791.22
                             1822.70  1837.50  1842.14  1846.73  1877.18
                             1878.19  1894.76  1912.07  1919.61  1929.05
                             1936.84  1938.17  1950.83  1965.49  1971.01
                             1995.19  2015.99  2029.05  2049.59  2077.31
                             2092.17  2101.07  2109.22  2124.29  2167.55
                             4678.93  4682.27  4699.03  4704.50  4712.59
                             4714.21  4714.47  4719.00  4729.11  4734.49
                             4742.21  4751.36  4767.08  4801.95  4803.17
                             4813.09  4834.51  4835.55  4841.75  4853.74
                             5567.49  5573.90

 Zero-point correction=                           0.370268 (Hartree/Particle)
 Thermal correction to Energy=                    0.388719
 Thermal correction to Enthalpy=                  0.389663
 Thermal correction to Gibbs Free Energy=         0.324022
 Sum of electronic and zero-point Energies=          -1297.644347
 Sum of electronic and thermal Energies=             -1297.625896
 Sum of electronic and thermal Enthalpies=           -1297.624952
 Sum of electronic and thermal Free Energies=        -1297.690593

                     E (Thermal)             CV                S
                      KCal/Mol        Cal/Mol-Kelvin    Cal/Mol-Kelvin
 Total                  243.925             76.099            138.153
 Electronic               0.000              0.000              0.000
 Translational            0.889              2.981             43.384
 Rotational               0.889              2.981             35.123
 Vibrational            242.147             70.137             59.645
 Vibration     1          0.594              1.983              5.711
 Vibration     2          0.595              1.977              4.778
 Vibration     3          0.598              1.968              4.133
 Vibration     4          0.604              1.948              3.427
 Vibration     5          0.607              1.939              3.219
 Vibration     6          0.612              1.922              2.929
 Vibration     7          0.620              1.898              2.620
 Vibration     8          0.630              1.864              2.308
 Vibration     9          0.638              1.839              2.130
 Vibration    10          0.645              1.818              2.002
 Vibration    11          0.667              1.750              1.680
 Vibration    12          0.678              1.716              1.553
 Vibration    13          0.687              1.691              1.470
 Vibration    14          0.690              1.682              1.443
 Vibration    15          0.703              1.644              1.332
 Vibration    16          0.705              1.638              1.317
 Vibration    17          0.719              1.597              1.217
 Vibration    18          0.728              1.572              1.158
 Vibration    19          0.748              1.518              1.049
 Vibration    20          0.751              1.510              1.035
 Vibration    21          0.773              1.451              0.930
 Vibration    22          0.790              1.408              0.863
 Vibration    23          0.795              1.395              0.844
 Vibration    24          0.817              1.341              0.769
 Vibration    25          0.833              1.303              0.720
 Vibration    26          0.849              1.265              0.675
 Vibration    27          0.894              1.164              0.567
 Vibration    28          0.915              1.120              0.526
 Vibration    29          0.922              1.105              0.512
 Vibration    30          0.945              1.057              0.471
 Vibration    31          0.951              1.045              0.461
 Vibration    32          0.975              1.000              0.424

 Normal termination of Gaussian 09 at Tue Feb 16 08:59:42 2016.
