 Gaussian 09, Revision B.01,
 Gaussian 09:  EM64L-G09RevB.01 12-Aug-2010

 ------------------------------------------------
 # freq=raman b3lyp/6-31+g(d,p) geom=connectivity
 ------------------------------------------------

 ------------
 280 6000.com
 ------------
 Symbolic Z-matrix:
 Charge =  0 Multiplicity = 1

                         Standard orientation:
 ---------------------------------------------------------------------
 Center     Atomic      Atomic             Coordinates (Angstroms)
 Number     Number       Type             X           Y           Z
 ---------------------------------------------------------------------
      1          8           0        4.949880   -0.469583   -0.454179
      2          6           0        3.727596   -0.119989    0.200577
      3          6           0        3.217291    1.207129   -0.335677
      4          8           0        4.175021    2.238932   -0.056489
      5          1           0        5.103040    1.922304   -0.255780
      6          6           0        1.837171    1.602056    0.164912
      7          8           0        1.319130    2.798105   -0.434667
      8          1           0        0.397687    2.983175   -0.093266
      9          6           0        2.925495   -2.644851    0.198105
     10          8           0        4.138248   -3.061230   -0.445377
     11          1           0        4.223300   -4.041956   -0.266191
     12          6           0        2.669653   -1.173112   -0.086716
     13          8           0        1.450843   -0.800197    0.572520
     14          6           0        0.937463    0.393129   -0.035827
     15          8           0       -0.295365    0.558535    0.680406
     16          6           0       -1.542059    0.205259    0.063983
     17          6           0       -2.020714   -1.192870    0.422710
     18          8           0       -0.971219   -2.161945    0.283396
     19          1           0       -0.095056   -1.788933    0.587866
     20          6           0       -3.365103   -1.491007   -0.221147
     21          8           0       -3.901203   -2.774391    0.132081
     22          1           0       -4.672829   -3.087145   -0.421829
     23          6           0       -2.175817    2.528236   -0.173547
     24          8           0       -1.113136    3.278371    0.432684
     25          1           0       -1.168650    4.264431    0.274618
     26          6           0       -2.638711    1.200434    0.404181
     27          8           0       -3.858294    0.909389   -0.294378
     28          6           0       -4.368897   -0.385326    0.056306
     29          8           0       -5.441016   -0.472948   -0.893943
     30          1           0       -6.275796   -0.558138   -0.427591
     31          1           0       -4.729195   -0.411681    1.063476
     32          1           0       -3.203958   -1.504676   -1.278854
     33          1           0       -2.222455   -1.158452    1.472956
     34          1           0       -1.396361    0.234362   -0.995651
     35          1           0       -2.796264    1.267654    1.460381
     36          1           0       -3.031751    3.169729   -0.201166
     37          1           0       -1.885101    2.341396   -1.186205
     38          1           0        0.747630    0.232350   -1.076506
     39          1           0        1.913113    1.777805    1.217645
     40          1           0        3.151972    1.113744   -1.399591
     41          1           0        3.889282   -0.046741    1.255752
     42          1           0        5.610541   -0.699826    0.203176
     43          1           0        2.474799   -1.109761   -1.136915
     44          1           0        3.014767   -2.792219    1.254141
     45          1           0        2.107955   -3.226250   -0.174054
 ---------------------------------------------------------------------

 SCF Done:  E(RB3LYP) =  -1297.94377125     A.U. after   13 cycles

 The electronic state is 1-A.
 Alpha  occ. eigenvalues --  -19.19857 -19.19455 -19.19237 -19.18700 -19.18496
 Alpha  occ. eigenvalues --  -19.17199 -19.17090 -19.17046 -19.15351 -19.14453
 Alpha  occ. eigenvalues --  -19.13787 -10.31393 -10.30924 -10.26513 -10.25865
 Alpha  occ. eigenvalues --  -10.25751 -10.25567 -10.25389 -10.25340 -10.24654
 Alpha  occ. eigenvalues --  -10.24558 -10.24485 -10.24368  -1.10211  -1.09608
 Alpha  occ. eigenvalues --   -1.05752  -1.05059  -1.03807  -1.03312  -1.02813
 Alpha  occ. eigenvalues --   -1.02448  -1.01390  -1.00316  -0.99556  -0.82541
 Alpha  occ. eigenvalues --   -0.80221  -0.79889  -0.78297  -0.71915  -0.70211
 Alpha  occ. eigenvalues --   -0.67539  -0.64740  -0.63731  -0.62337  -0.61571
 Alpha  occ. eigenvalues --   -0.60424  -0.56767  -0.55980  -0.55350  -0.54723
 Alpha  occ. eigenvalues --   -0.53946  -0.53913  -0.52930  -0.51689  -0.51123
 Alpha  occ. eigenvalues --   -0.50760  -0.50012  -0.49380  -0.48971  -0.46524
 Alpha  occ. eigenvalues --   -0.46020  -0.45350  -0.44420  -0.43960  -0.43314
 Alpha  occ. eigenvalues --   -0.42303  -0.41658  -0.40845  -0.40177  -0.39312
 Alpha  occ. eigenvalues --   -0.38962  -0.37916  -0.37134  -0.36501  -0.35465
 Alpha  occ. eigenvalues --   -0.34713  -0.34546  -0.33849  -0.33570  -0.33140
 Alpha  occ. eigenvalues --   -0.32881  -0.31696  -0.31197  -0.30402  -0.29664
 Alpha  occ. eigenvalues --   -0.29338  -0.28552  -0.28348  -0.27204  -0.26362
 Alpha  occ. eigenvalues --   -0.26325
 Alpha virt. eigenvalues --   -0.01906  -0.01780  -0.01743  -0.00155   0.00135
 Alpha virt. eigenvalues --    0.00999   0.01969   0.02280   0.02697   0.03483
 Alpha virt. eigenvalues --    0.03844   0.04426   0.04916   0.05367   0.05685

 Mulliken atomic charges:
              1
     1  O   -0.516191
     2  C   -0.088787
     3  C    0.147139
     4  O   -0.519098
     5  H    0.358262
     6  C   -0.101145
     7  O   -0.573067
     8  H    0.467208
     9  C    0.258881
    10  O   -0.528218
    11  H    0.359193
    12  C   -0.180145
    13  O   -0.415623
    14  C    0.147098
    15  O   -0.349186
    16  C    0.022431
    17  C   -0.027485
    18  O   -0.530314
    19  H    0.416552
    20  C    0.089224
    21  O   -0.520079
    22  H    0.359429
    23  C    0.014687
    24  O   -0.657100
    25  H    0.398475
    26  C   -0.073855
    27  O   -0.279758
    28  C    0.241351
    29  O   -0.552034
    30  H    0.357955
    31  H    0.134814
    32  H    0.145652
    33  H    0.125674
    34  H    0.119028
    35  H    0.149010
    36  H    0.137901
    37  H    0.142384
    38  H    0.125078
    39  H    0.143750
    40  H    0.136949
    41  H    0.137414
    42  H    0.362991
    43  H    0.128985
    44  H    0.134608
    45  H    0.149961
 Sum of Mulliken atomic charges =   0.00000

 Dipole moment (field-independent basis, Debye):
    X=             -2.5450    Y=             -0.7381    Z=              1.8693  Tot=              3.2429
 Quadrupole moment (field-independent basis, Debye-Ang):
   XX=           -111.8920   YY=           -135.1188   ZZ=           -141.7755
   XY=            -17.6592   XZ=              4.5997   YZ=              1.2222

  Exact polarizability: 230.043   2.270 192.422   1.163  -0.535 141.598
 Approx polarizability: 267.169   1.793 247.831   1.250  -0.747 232.335

 ******    7 imaginary frequencies (negative Signs) ******

                     1                      2                      3
                     A                      A                      A
 Frequencies --  -319.8105              -296.7339              -252.0529
 Red. masses --     1.1516                 1.1418                 1.8256
 Frc consts  --     0.0694                 0.0592                 0.0683
 IR Inten    --   115.5846               115.2524                 5.6509
 Raman Activ --     1.0998                 1.0710                 0.0321

                     4                      5                      6
                     A                      A                      A
 Frequencies --  -209.6092               -65.9192               -47.5402
 Red. masses --     1.9290                 6.4278                 6.2026
 Frc consts  --     0.0499                 0.0165                 0.0083
 IR Inten    --     4.7177                 0.8490                 1.8454
 Raman Activ --     0.2639                 0.0196                 0.0606

                     7                      8                      9
                     A                      A                      A
 Frequencies --   -11.6247                33.5821                75.0581
 Red. masses --     6.3949                 6.2652                 6.9351
 Frc consts  --     0.0005                 0.0042                 0.0230
 IR Inten    --     1.5466                 1.2748                 2.3558
 Raman Activ --     0.0524                 0.0285                 0.0648

                    10                     11                     12
                     A                      A                      A
 Frequencies --    92.6204                97.5719               111.7506
 Red. masses --     6.7409                 7.0312                 5.8009
 Frc consts  --     0.0341                 0.0394                 0.0427
 IR Inten    --     0.7403                 1.0731                 2.9114
 Raman Activ --     0.2022                 0.0956                 0.1298

                    13                     14                     15
                     A                      A                      A
 Frequencies --   166.3354               180.2766               201.7706
 Red. masses --     6.1858                 5.3027                 6.8924
 Frc consts  --     0.1008                 0.1015                 0.1653
 IR Inten    --     1.0802                 6.7846                 0.2586
 Raman Activ --     0.7541                 0.3007                 0.4452

                    16                     17                     18
                     A                      A                      A
 Frequencies --   219.6468               239.8072               274.2800
 Red. masses --     7.2824                 5.9019                 4.9223
 Frc consts  --     0.2070                 0.2000                 0.2182
 IR Inten    --     0.1490                 2.6984                10.1977
 Raman Activ --     2.7876                 0.1234                 0.4492

                    19                     20                     21
                     A                      A                      A
 Frequencies --   279.8210               294.8156               302.3318
 Red. masses --     5.6639                 5.0388                 5.3509
 Frc consts  --     0.2613                 0.2580                 0.2882
 IR Inten    --     5.6864                 1.8296                 4.9645
 Raman Activ --     0.5379                 0.1095                 0.9296

                    22                     23                     24
                     A                      A                      A
 Frequencies --   311.9327               318.2717               331.4862
 Red. masses --     5.0817                 5.7628                 6.4170
 Frc consts  --     0.2913                 0.3439                 0.4154
 IR Inten    --    10.9010                 1.1442                 1.8377
 Raman Activ --     0.0901                 2.2579                 2.9050

                    25                     26                     27
                     A                      A                      A
 Frequencies --   351.3091               364.1767               373.4475
 Red. masses --     6.8297                 5.0307                 6.4599
 Frc consts  --     0.4966                 0.3931                 0.5308
 IR Inten    --    20.6043                 4.8387                 3.6557
 Raman Activ --     3.1411                 0.7506                 1.2593

                    28                     29                     30
                     A                      A                      A
 Frequencies --   400.5299               428.3771               432.3152
 Red. masses --     5.0882                 6.4166                 4.4533
 Frc consts  --     0.4809                 0.6938                 0.4904
 IR Inten    --    21.1160                 4.4467                 4.7255
 Raman Activ --     2.0934                 1.7412                 6.5912

                    31                     32                     33
                     A                      A                      A
 Frequencies --   444.5492               474.0456               492.6835
 Red. masses --     5.1674                 4.3841                 4.6821
 Frc consts  --     0.6017                 0.5805                 0.6696
 IR Inten    --     3.1062                 4.3247                 8.2615
 Raman Activ --     3.6111                 5.5023                 0.2300

                    34                     35                     36
                     A                      A                      A
 Frequencies --   513.7102               526.0028               560.1498
 Red. masses --     3.2480                 3.4108                 3.4602
 Frc consts  --     0.5050                 0.5560                 0.6397
 IR Inten    --    12.6452                20.0435                13.7584
 Raman Activ --     3.4535                 2.0049                 1.0893

                    37                     38                     39
                     A                      A                      A
 Frequencies --   579.5122               592.4276               614.6340
 Red. masses --     2.6500                 6.7674                 3.9546
 Frc consts  --     0.5243                 1.3994                 0.8802
 IR Inten    --    44.5159                 1.1011                 7.0146
 Raman Activ --     0.2529                 0.6399                 0.7326

                    40                     41                     42
                     A                      A                      A
 Frequencies --   637.3816               666.0139               696.0916
 Red. masses --     5.7176                 1.0566                 1.1639
 Frc consts  --     1.3686                 0.2761                 0.3323
 IR Inten    --    51.2674                91.4236               129.0112
 Raman Activ --     0.7980                 1.9488                 1.7402

                    43                     44                     45
                     A                      A                      A
 Frequencies --   702.8186               728.0242               732.7723
 Red. masses --     4.3438                 1.0582                 1.0730
 Frc consts  --     1.2642                 0.3305                 0.3395
 IR Inten    --     7.2333                53.6729               157.1912
 Raman Activ --     1.9186                 1.5780                 2.6602

                    46                     47                     48
                     A                      A                      A
 Frequencies --   765.5281               851.3788               869.2094
 Red. masses --     1.0592                 1.4271                 1.7397
 Frc consts  --     0.3657                 0.6095                 0.7744
 IR Inten    --   128.6209                23.3346                 5.6593
 Raman Activ --     2.5759                 0.3712                 2.2051

                    49                     50                     51
                     A                      A                      A
 Frequencies --   907.9263               937.3048               963.4442
 Red. masses --     1.2091                 5.4596                 5.7258
 Frc consts  --     0.5872                 2.8260                 3.1314
 IR Inten    --    47.6751                95.3345                67.8409
 Raman Activ --     0.4778                 2.9081                 0.7634

                    52                     53                     54
                     A                      A                      A
 Frequencies --   983.9621               996.2453               998.8930
 Red. masses --     5.1698                 4.0518                 6.2816
 Frc consts  --     2.9491                 2.3694                 3.6928
 IR Inten    --    29.4602                25.8308               309.3384
 Raman Activ --     2.6077                 0.4267                 0.6379

                    55                     56                     57
                     A                      A                      A
 Frequencies --  1014.5528              1019.7328              1029.6797
 Red. masses --     5.1612                 5.5628                 5.1412
 Frc consts  --     3.1300                 3.4082                 3.2116
 IR Inten    --   122.3656                22.6205                83.2323
 Raman Activ --     2.5687                 1.6093                 3.4047

                    58                     59                     60
                     A                      A                      A
 Frequencies --  1052.8754              1065.8660              1070.8715
 Red. masses --     3.7474                 3.2430                 3.6625
 Frc consts  --     2.4476                 2.1707                 2.4746
 IR Inten    --   473.1748                38.2828               105.5945
 Raman Activ --     2.1173                 9.8873                 4.4454

                    61                     62                     63
                     A                      A                      A
 Frequencies --  1076.8944              1082.5474              1094.0578
 Red. masses --     4.9282                 3.5965                 6.0870
 Frc consts  --     3.3673                 2.4833                 4.2927
 IR Inten    --    29.2148                56.4604                49.5032
 Raman Activ --     5.5018                 5.1660                 1.2224

                    64                     65                     66
                     A                      A                      A
 Frequencies --  1103.0432              1109.2507              1115.4948
 Red. masses --     2.6417                 2.5002                 3.0210
 Frc consts  --     1.8937                 1.8126                 2.2148
 IR Inten    --    48.4544                 1.8733               157.4604
 Raman Activ --    18.1216                 3.7443                10.2551

                    67                     68                     69
                     A                      A                      A
 Frequencies --  1122.5885              1130.1919              1139.6451
 Red. masses --     2.6149                 2.1339                 2.1373
 Frc consts  --     1.9416                 1.6059                 1.6355
 IR Inten    --    35.8576                 6.0811                35.3492
 Raman Activ --     0.9764                 6.2640                 5.0326

                    70                     71                     72
                     A                      A                      A
 Frequencies --  1145.4097              1148.3718              1156.5785
 Red. masses --     2.0359                 2.7382                 2.0383
 Frc consts  --     1.5737                 2.1276                 1.6064
 IR Inten    --    69.7265                10.9850                10.5351
 Raman Activ --     0.8531                 6.3019                 1.6284

                    73                     74                     75
                     A                      A                      A
 Frequencies --  1160.6976              1172.7714              1188.9922
 Red. masses --     1.7271                 2.1527                 1.2542
 Frc consts  --     1.3709                 1.7445                 1.0446
 IR Inten    --    13.5705                 1.9039                 2.8819
 Raman Activ --     5.6871                 3.5924                 2.8966

                    76                     77                     78
                     A                      A                      A
 Frequencies --  1197.1716              1208.2738              1232.6357
 Red. masses --     1.8683                 1.4485                 1.4241
 Frc consts  --     1.5777                 1.2459                 1.2749
 IR Inten    --     8.4617                29.4289                 1.8728
 Raman Activ --     2.3362                 4.4786                 1.6706

                    79                     80                     81
                     A                      A                      A
 Frequencies --  1234.7030              1244.6038              1253.1307
 Red. masses --     1.3141                 1.2558                 1.2992
 Frc consts  --     1.1803                 1.1461                 1.2020
 IR Inten    --     3.3004                28.9532                24.3189
 Raman Activ --     1.9354                 0.5015                 1.1854

                    82                     83                     84
                     A                      A                      A
 Frequencies --  1267.0117              1277.3402              1282.0284
 Red. masses --     1.2497                 1.2770                 1.1880
 Frc consts  --     1.1820                 1.2276                 1.1504
 IR Inten    --    16.4276                18.9824                 2.9348
 Raman Activ --     4.7552                 1.9845                 6.4405

                    85                     86                     87
                     A                      A                      A
 Frequencies --  1284.7512              1294.0041              1300.4185
 Red. masses --     1.3722                 1.2447                 1.2215
 Frc consts  --     1.3345                 1.2280                 1.2171
 IR Inten    --    45.8312                 2.9082                 9.6401
 Raman Activ --     2.3709                 2.7737                 6.4881

                    88                     89                     90
                     A                      A                      A
 Frequencies --  1311.7487              1319.5038              1334.2919
 Red. masses --     1.3229                 1.3497                 1.2172
 Frc consts  --     1.3411                 1.3845                 1.2767
 IR Inten    --    36.9761                40.0484                 4.1712
 Raman Activ --     4.4650                 1.8151                 9.4965

                    91                     92                     93
                     A                      A                      A
 Frequencies --  1339.9619              1347.7773              1354.4300
 Red. masses --     1.3022                 1.1697                 1.3040
 Frc consts  --     1.3775                 1.2519                 1.4095
 IR Inten    --    22.1479                62.2161                22.5441
 Raman Activ --     1.9355                 4.6291                 2.0743

                    94                     95                     96
                     A                      A                      A
 Frequencies --  1356.8271              1368.7217              1371.4999
 Red. masses --     1.4623                 1.3687                 1.4262
 Frc consts  --     1.5861                 1.5108                 1.5806
 IR Inten    --    27.3637                10.9870                 0.6205
 Raman Activ --     6.1820                 7.4920                 6.4620

                    97                     98                     99
                     A                      A                      A
 Frequencies --  1382.3936              1387.3241              1394.5863
 Red. masses --     1.3717                 1.4288                 1.5614
 Frc consts  --     1.5444                 1.6203                 1.7892
 IR Inten    --     2.6220                 1.3487                34.6511
 Raman Activ --     3.5684                 9.4556                 3.6510

                   100                    101                    102
                     A                      A                      A
 Frequencies --  1401.7039              1412.7265              1437.9841
 Red. masses --     1.5054                 1.6202                 1.3904
 Frc consts  --     1.7427                 1.9051                 1.6940
 IR Inten    --     2.7148                27.0157                14.7902
 Raman Activ --     6.2454                 1.3934                 1.1591

                   103                    104                    105
                     A                      A                      A
 Frequencies --  1462.0714              1467.8152              1486.9004
 Red. masses --     1.3784                 1.4339                 1.0844
 Frc consts  --     1.7361                 1.8201                 1.4125
 IR Inten    --    41.4848                 7.3927                 3.1332
 Raman Activ --     2.9659                 2.1824                 4.8337

                   106                    107                    108
                     A                      A                      A
 Frequencies --  1487.4717              1506.9869              3228.0969
 Red. masses --     1.0837                 1.2284                 1.0704
 Frc consts  --     1.4128                 1.6437                 6.5717
 IR Inten    --     3.0747                30.8991              1076.0559
 Raman Activ --     4.3859                 0.6533               173.7850

                   109                    110                    111
                     A                      A                      A
 Frequencies --  3264.0865              3268.2378              3274.4231
 Red. masses --     1.0802                 1.0567                 1.0608
 Frc consts  --     6.7805                 6.6502                 6.7012
 IR Inten    --    74.7530                28.8052                12.7071
 Raman Activ --    80.3018                94.9673               162.9902

                   112                    113                    114
                     A                      A                      A
 Frequencies --  3277.2221              3285.9484              3287.9821
 Red. masses --     1.0818                 1.0824                 1.0830
 Frc consts  --     6.8458                 6.8857                 6.8984
 IR Inten    --    28.9243                 6.6662                 1.2537
 Raman Activ --    14.8163               128.6398                 4.8943

                   115                    116                    117
                     A                      A                      A
 Frequencies --  3295.1096              3297.1161              3303.3436
 Red. masses --     1.0836                 1.0842                 1.0860
 Frc consts  --     6.9319                 6.9443                 6.9818
 IR Inten    --     3.0119                 9.3571                14.4280
 Raman Activ --    12.3450               158.0658                36.9275

                   118                    119                    120
                     A                      A                      A
 Frequencies --  3305.9566              3312.9998              3313.5396
 Red. masses --     1.0869                 1.0859                 1.0877
 Frc consts  --     6.9988                 7.0226                 7.0363
 IR Inten    --     5.8500               121.9194                83.3816
 Raman Activ --    17.4376                16.4874                69.6334

                   121                    122                    123
                     A                      A                      A
 Frequencies --  3322.6775              3329.2118              3332.3349
 Red. masses --     1.0720                 1.1042                 1.1094
 Frc consts  --     6.9732                 7.2105                 7.2585
 IR Inten    --   621.8751                49.7978                60.5488
 Raman Activ --   135.7910                29.4586                52.4467

                   124                    125                    126
                     A                      A                      A
 Frequencies --  3379.9365              3380.4493              3391.3794
 Red. masses --     1.0665                 1.0660                 1.0679
 Frc consts  --     7.1782                 7.1774                 7.2369
 IR Inten    --    16.6766                44.3737                82.3224
 Raman Activ --   137.0852               178.1796               137.6241

                   127                    128                    129
                     A                      A                      A
 Frequencies --  3393.4909              3919.7057              3921.6396
 Red. masses --     1.0676                 1.0677                 1.0676
 Frc consts  --     7.2435                 9.6654                 9.6734
 IR Inten    --    43.8457                74.1071                63.5402
 Raman Activ --   191.8978                90.7171               137.5209

 - Thermochemistry -
 -------------------
 Temperature   298.150 Kelvin.  Pressure   1.00000 Atm.
 Atom     1 has atomic number  8 and mass  15.99491

 Molecular mass:   342.11621 amu.
 Principal axes and moments of inertia in atomic units:
                           1         2         3
     Eigenvalues --  4378.71227********************
           X            0.99997  -0.00742   0.00046
           Y            0.00742   0.99997  -0.00144
           Z           -0.00045   0.00144   1.00000
 This molecule is an asymmetric top.
 Rotational symmetry number  1.
 Warning -- assumption of classical behavior for rotation
           may cause significant error
 Rotational temperatures (Kelvin)      0.01978     0.00707     0.00537
 Rotational constants (GHZ):           0.41216     0.14742     0.11187
    7 imaginary frequencies ignored.
 Zero-point vibrational energy     977409.0 (Joules/Mol)
                                  233.60635 (Kcal/Mol)
 Warning -- explicit consideration of  32 degrees of freedom as
           vibrations may cause significant error
 Vibrational temperatures:     48.32   107.99   133.26   140.38   160.78
          (Kelvin)            239.32   259.38   290.30   316.02   345.03
                              394.63   402.60   424.17   434.99   448.80
                              457.92   476.93   505.45   523.97   537.31
                              576.27   616.34   622.00   639.61   682.05
                              708.86   739.11   756.80   805.93   833.79
                              852.37   884.32   917.05   958.24  1001.52
                             1011.20  1047.46  1054.29  1101.42  1224.94
                             1250.60  1306.30  1348.57  1386.18  1415.70
                             1433.37  1437.18  1459.71  1467.17  1481.48
                             1514.85  1533.54  1540.74  1549.41  1557.54
                             1574.10  1587.03  1595.96  1604.95  1615.15
                             1626.09  1639.69  1647.99  1652.25  1664.06
                             1669.98  1687.35  1710.69  1722.46  1738.43
                             1773.49  1776.46  1790.71  1802.97  1822.94
                             1837.81  1844.55  1848.47  1861.78  1871.01
                             1887.31  1898.47  1919.75  1927.90  1939.15
                             1948.72  1952.17  1969.28  1973.28  1988.95
                             1996.05  2006.50  2016.74  2032.60  2068.94
                             2103.59  2111.86  2139.32  2140.14  2168.22
                             4644.51  4696.29  4702.26  4711.16  4715.19
                             4727.74  4730.67  4740.92  4743.81  4752.77
                             4756.53  4766.66  4767.44  4780.59  4789.99
                             4794.48  4862.97  4863.71  4879.43  4882.47
                             5639.58  5642.36

 Zero-point correction=                           0.372275 (Hartree/Particle)
 Thermal correction to Energy=                    0.390438
 Thermal correction to Enthalpy=                  0.391382
 Thermal correction to Gibbs Free Energy=         0.326973
 Sum of electronic and zero-point Energies=          -1297.571496
 Sum of electronic and thermal Energies=             -1297.553333
 Sum of electronic and thermal Enthalpies=           -1297.552389
 Sum of electronic and thermal Free Energies=        -1297.616798

                     E (Thermal)             CV                S
                      KCal/Mol        Cal/Mol-Kelvin    Cal/Mol-Kelvin
 Total                  245.004             75.625            135.561
 Electronic               0.000              0.000              0.000
 Translational            0.889              2.981             43.384
 Rotational               0.889              2.981             35.113
 Vibrational            243.226             69.664             57.064
 Vibration     1          0.594              1.983              5.606
 Vibration     2          0.599              1.966              4.016
 Vibration     3          0.602              1.954              3.604
 Vibration     4          0.603              1.951              3.502
 Vibration     5          0.607              1.940              3.238
 Vibration     6          0.624              1.884              2.476
 Vibration     7          0.629              1.866              2.326
 Vibration     8          0.639              1.837              2.117
 Vibration     9          0.647              1.811              1.962
 Vibration    10          0.657              1.780              1.804
 Vibration    11          0.677              1.721              1.569
 Vibration    12          0.680              1.711              1.535
 Vibration    13          0.689              1.683              1.446
 Vibration    14          0.694              1.669              1.404
 Vibration    15          0.700              1.651              1.352
 Vibration    16          0.705              1.639              1.319
 Vibration    17          0.714              1.613              1.253
 Vibration    18          0.728              1.573              1.160
 Vibration    19          0.738              1.546              1.104
 Vibration    20          0.745              1.527              1.066
 Vibration    21          0.766              1.469              0.961
 Vibration    22          0.790              1.408              0.864
 Vibration    23          0.793              1.400              0.851
 Vibration    24          0.804              1.373              0.812
 Vibration    25          0.831              1.308              0.726
 Vibration    26          0.848              1.266              0.677
 Vibration    27          0.869              1.220              0.625
 Vibration    28          0.881              1.192              0.596
 Vibration    29          0.916              1.118              0.524
 Vibration    30          0.936              1.076              0.486
 Vibration    31          0.950              1.048              0.463
 Vibration    32          0.974              1.001              0.425

 Normal termination of Gaussian 09 at Thu Jan 21 05:04:14 2016.
