 Gaussian 09, Revision B.01,
 Gaussian 09:  EM64L-G09RevB.01 12-Aug-2010

 --------------------------------------------------
 # freq=raman b3lyp/6-31+g(2df,p) geom=connectivity
 --------------------------------------------------

 ------------
 450 5000.com
 ------------
 Symbolic Z-matrix:
 Charge =  0 Multiplicity = 1

                         Standard orientation:
 ---------------------------------------------------------------------
 Center     Atomic      Atomic             Coordinates (Angstroms)
 Number     Number       Type             X           Y           Z
 ---------------------------------------------------------------------
      1          8           0        5.029550   -0.303092   -0.661102
      2          6           0        3.863533   -0.044966    0.135744
      3          6           0        3.315736    1.255094   -0.428511
      4          8           0        4.072616    2.460130   -0.242638
      5          1           0        4.978619    2.554961   -0.654004
      6          6           0        1.906101    1.667202   -0.034293
      7          8           0        1.307841    2.826342   -0.632958
      8          1           0        1.931162    3.535702   -0.304202
      9          6           0        3.315511   -2.480249    0.583779
     10          8           0        2.429755   -3.607678    0.635861
     11          1           0        3.072762   -4.366980    0.726847
     12          6           0        2.839576   -1.160297   -0.000629
     13          8           0        1.581149   -0.639228    0.453360
     14          6           0        1.045933    0.446060   -0.316971
     15          8           0       -0.137615    0.624746    0.473029
     16          6           0       -1.410419    0.326925   -0.119636
     17          6           0       -1.699314   -1.111007    0.278034
     18          8           0       -0.680348   -2.108926    0.117342
     19          1           0        0.192241   -1.638247    0.248774
     20          6           0       -2.932821   -1.554897   -0.490659
     21          8           0       -3.413517   -2.907334   -0.478777
     22          1           0       -2.591609   -3.435148   -0.691430
     23          6           0       -2.211212    2.633434    0.407104
     24          8           0       -3.283973    3.503195    0.797395
     25          1           0       -3.269639    3.505711    1.797313
     26          6           0       -2.561445    1.154758    0.427787
     27          8           0       -3.690261    0.708625   -0.338139
     28          6           0       -4.074135   -0.647278   -0.062776
     29          8           0       -5.330985   -0.933994   -0.692090
     30          1           0       -6.047667   -0.667397   -0.111664
     31          1           0       -4.201576   -0.749785    0.994651
     32          1           0       -2.733423   -1.326912   -1.516896
     33          1           0       -1.960291   -1.099307    1.315654
     34          1           0       -1.357885    0.415814   -1.184643
     35          1           0       -2.720982    0.869850    1.446745
     36          1           0       -1.907006    2.895319   -0.584750
     37          1           0        5.812447   -0.017446   -0.184575
     38          1           0        3.635769   -2.284283    1.585744
     39          1           0        4.176186   -2.781015    0.023711
     40          1           0        2.724851   -1.332463   -1.050437
     41          1           0        4.137712    0.083682    1.161988
     42          1           0        3.282246    1.100554   -1.486762
     43          1           0        1.905883    1.823492    1.024231
     44          1           0        0.870688    0.227783   -1.349708
     45          1           0       -1.386441    2.795155    1.069297
 ---------------------------------------------------------------------

 SCF Done:  E(RB3LYP) =  -1297.99448764     A.U. after   14 cycles

 The electronic state is 1-A.
 Alpha  occ. eigenvalues --  -19.19562 -19.19078 -19.18483 -19.17632 -19.17241
 Alpha  occ. eigenvalues --  -19.17133 -19.15391 -19.15232 -19.15185 -19.14240
 Alpha  occ. eigenvalues --  -19.13570 -10.31619 -10.28189 -10.27605 -10.27230
 Alpha  occ. eigenvalues --  -10.26440 -10.25749 -10.25584 -10.24560 -10.24282
 Alpha  occ. eigenvalues --  -10.22913 -10.22805 -10.22510  -1.11125  -1.07318
 Alpha  occ. eigenvalues --   -1.06424  -1.05335  -1.04179  -1.03512  -1.03041
 Alpha  occ. eigenvalues --   -1.01863  -1.01310  -1.00405  -0.99402  -0.82890
 Alpha  occ. eigenvalues --   -0.81977  -0.78903  -0.77426  -0.72481  -0.69491
 Alpha  occ. eigenvalues --   -0.67617  -0.64580  -0.63409  -0.62356  -0.61101
 Alpha  occ. eigenvalues --   -0.60205  -0.57429  -0.56689  -0.55223  -0.53707
 Alpha  occ. eigenvalues --   -0.53178  -0.52970  -0.52647  -0.52185  -0.50711
 Alpha  occ. eigenvalues --   -0.49869  -0.49421  -0.49143  -0.47612  -0.46568
 Alpha  occ. eigenvalues --   -0.46019  -0.45167  -0.44586  -0.43573  -0.43211
 Alpha  occ. eigenvalues --   -0.42937  -0.42276  -0.40457  -0.40175  -0.39385
 Alpha  occ. eigenvalues --   -0.38513  -0.37503  -0.37297  -0.36724  -0.36374
 Alpha  occ. eigenvalues --   -0.35468  -0.35394  -0.34423  -0.34132  -0.33839
 Alpha  occ. eigenvalues --   -0.32461  -0.31149  -0.30492  -0.30300  -0.29805
 Alpha  occ. eigenvalues --   -0.29630  -0.29487  -0.28093  -0.27610  -0.26040
 Alpha  occ. eigenvalues --   -0.25645
 Alpha virt. eigenvalues --   -0.03696  -0.02265  -0.00932  -0.00864   0.00202
 Alpha virt. eigenvalues --    0.01136   0.01406   0.01809   0.02549   0.03004
 Alpha virt. eigenvalues --    0.03478   0.04417   0.05055   0.05526   0.05769

 Mulliken atomic charges:
              1
     1  O   -0.456978
     2  C    0.050023
     3  C    0.065229
     4  O   -0.562916
     5  H    0.359709
     6  C   -0.249470
     7  O   -0.424004
     8  H    0.351597
     9  C   -0.527051
    10  O   -0.407352
    11  H    0.340779
    12  C    0.066306
    13  O   -0.051690
    14  C    0.042597
    15  O   -0.037228
    16  C   -0.134363
    17  C    0.213977
    18  O   -0.522652
    19  H    0.436871
    20  C   -0.214261
    21  O   -0.417460
    22  H    0.346982
    23  C   -0.276811
    24  O   -0.405377
    25  H    0.324995
    26  C   -0.094465
    27  O   -0.070579
    28  C    0.108593
    29  O   -0.439851
    30  H    0.335866
    31  H    0.113831
    32  H    0.118063
    33  H    0.108016
    34  H    0.123433
    35  H    0.110033
    36  H    0.166659
    37  H    0.346081
    38  H    0.141779
    39  H    0.168763
    40  H    0.126170
    41  H    0.133148
    42  H    0.131248
    43  H    0.140693
    44  H    0.155711
    45  H    0.165356
 Sum of Mulliken atomic charges =   0.00000

 Dipole moment (field-independent basis, Debye):
    X=              9.8663    Y=              1.0130    Z=              2.8521  Tot=             10.3201
 Quadrupole moment (field-independent basis, Debye-Ang):
   XX=           -117.9212   YY=           -145.5367   ZZ=           -134.5650
   XY=             -4.9967   XZ=            -10.5301   YZ=              3.8380

  Exact polarizability: 227.597   2.114 201.619  -1.007   1.367 146.192
 Approx polarizability: 272.185   1.332 260.896  -0.475   2.779 242.528

 ******    7 imaginary frequencies (negative Signs) ******

                     1                      2                      3
                     A                      A                      A
 Frequencies --  -290.3275              -173.1691              -170.0747
 Red. masses --     1.7109                 1.2183                 1.4235
 Frc consts  --     0.0850                 0.0215                 0.0243
 IR Inten    --     2.1166                91.4400                54.1150
 Raman Activ --     0.1453                 1.4227                 0.4257

                     4                      5                      6
                     A                      A                      A
 Frequencies --  -161.1846               -72.2210               -64.8397
 Red. masses --     1.2847                 6.0142                 5.9706
 Frc consts  --     0.0197                 0.0185                 0.0148
 IR Inten    --    75.4147                 0.7670                 1.1256
 Raman Activ --     0.6539                 0.0632                 0.1363

                     7                      8                      9
                     A                      A                      A
 Frequencies --   -31.6785                48.3872                56.6729
 Red. masses --     6.4876                 6.7829                 6.4418
 Frc consts  --     0.0038                 0.0094                 0.0122
 IR Inten    --     0.1620                 0.4494                 0.4581
 Raman Activ --     0.1088                 0.0365                 0.1095

                    10                     11                     12
                     A                      A                      A
 Frequencies --    85.0144               101.9593               108.0795
 Red. masses --     6.4240                 6.4861                 6.4992
 Frc consts  --     0.0274                 0.0397                 0.0447
 IR Inten    --     1.7283                 0.9603                 1.0074
 Raman Activ --     0.0989                 0.3728                 0.2903

                    13                     14                     15
                     A                      A                      A
 Frequencies --   141.9294               152.5932               177.9071
 Red. masses --     6.4767                 5.6578                 5.9671
 Frc consts  --     0.0769                 0.0776                 0.1113
 IR Inten    --     0.2166                 0.6136                 1.9434
 Raman Activ --     0.4216                 0.2708                 0.6451

                    16                     17                     18
                     A                      A                      A
 Frequencies --   203.1487               209.2662               246.4026
 Red. masses --     5.9292                 6.4247                 5.0188
 Frc consts  --     0.1442                 0.1658                 0.1795
 IR Inten    --     1.8787                 0.2117                12.1044
 Raman Activ --     0.8966                 1.3649                 0.3486

                    19                     20                     21
                     A                      A                      A
 Frequencies --   261.3385               282.2233               294.9828
 Red. masses --     4.6782                 5.7122                 4.5485
 Frc consts  --     0.1883                 0.2681                 0.2332
 IR Inten    --     6.6285                 3.5654                 1.9657
 Raman Activ --     0.3339                 1.5361                 0.5395

                    22                     23                     24
                     A                      A                      A
 Frequencies --   302.4915               318.8904               327.7609
 Red. masses --     4.8375                 5.7091                 5.8225
 Frc consts  --     0.2608                 0.3421                 0.3685
 IR Inten    --     2.6905                 2.9084                 3.3803
 Raman Activ --     0.2254                 5.8744                 0.9392

                    25                     26                     27
                     A                      A                      A
 Frequencies --   341.1700               362.9523               368.0383
 Red. masses --     6.4396                 7.0284                 4.1524
 Frc consts  --     0.4416                 0.5455                 0.3314
 IR Inten    --     0.9553                 0.9922                 5.9408
 Raman Activ --     4.9251                 0.5324                 1.2153

                    28                     29                     30
                     A                      A                      A
 Frequencies --   402.2074               424.1329               431.2454
 Red. masses --     5.8289                 4.8573                 6.5406
 Frc consts  --     0.5556                 0.5148                 0.7167
 IR Inten    --     2.2732                10.0857                 0.2544
 Raman Activ --     3.4838                 3.3427                 1.0746

                    31                     32                     33
                     A                      A                      A
 Frequencies --   448.5963               477.7692               488.1594
 Red. masses --     4.6118                 3.5731                 5.4878
 Frc consts  --     0.5468                 0.4805                 0.7705
 IR Inten    --     8.6970                 6.7297                 9.1894
 Raman Activ --     1.9450                 1.6618                 2.5635

                    34                     35                     36
                     A                      A                      A
 Frequencies --   529.1742               537.1544               558.4900
 Red. masses --     3.6891                 3.9427                 6.2577
 Frc consts  --     0.6087                 0.6703                 1.1500
 IR Inten    --    30.0717                20.9337                 1.9014
 Raman Activ --     1.2575                 7.6832                 1.4745

                    37                     38                     39
                     A                      A                      A
 Frequencies --   585.6749               592.4774               609.5196
 Red. masses --     3.0635                 3.2322                 3.4194
 Frc consts  --     0.6191                 0.6685                 0.7485
 IR Inten    --     4.5718                22.1047                 2.4986
 Raman Activ --     0.2897                 1.2422                 0.4778

                    40                     41                     42
                     A                      A                      A
 Frequencies --   642.8911               660.1886               695.6719
 Red. masses --     3.3598                 4.0647                 1.0824
 Frc consts  --     0.8182                 1.0438                 0.3086
 IR Inten    --    35.8090                 9.4815                60.6958
 Raman Activ --     1.3440                 0.4949                 2.2722

                    43                     44                     45
                     A                      A                      A
 Frequencies --   715.3130               726.2698               742.1361
 Red. masses --     1.0962                 1.1000                 1.1378
 Frc consts  --     0.3305                 0.3419                 0.3692
 IR Inten    --   100.3620               113.0290               108.2275
 Raman Activ --     1.5918                 0.6516                 1.9604

                    46                     47                     48
                     A                      A                      A
 Frequencies --   756.6624               819.5037               830.5179
 Red. masses --     1.1052                 2.5268                 2.7490
 Frc consts  --     0.3728                 0.9998                 1.1172
 IR Inten    --   104.9838                11.6959                 6.6800
 Raman Activ --     1.5226                 1.2944                 6.7354

                    49                     50                     51
                     A                      A                      A
 Frequencies --   852.4045               916.3870               955.7803
 Red. masses --     1.0822                 5.6923                 6.3129
 Frc consts  --     0.4633                 2.8164                 3.3978
 IR Inten    --    40.1458               174.0831               191.1711
 Raman Activ --     0.2616                 4.2332                 0.7611

                    52                     53                     54
                     A                      A                      A
 Frequencies --   967.4743               978.7211               989.8088
 Red. masses --     4.2881                 3.5650                 6.0535
 Frc consts  --     2.3648                 2.0120                 3.4943
 IR Inten    --    37.9207                38.6609               176.2964
 Raman Activ --     2.4312                 2.3595                 3.9513

                    55                     56                     57
                     A                      A                      A
 Frequencies --   999.9966              1004.5253              1028.5393
 Red. masses --     8.4469                 5.3109                 5.1079
 Frc consts  --     4.9767                 3.1575                 3.1837
 IR Inten    --   285.1212                74.4765               101.6565
 Raman Activ --     1.0234                 3.4459                 4.9993

                    58                     59                     60
                     A                      A                      A
 Frequencies --  1035.4679              1053.1260              1059.8145
 Red. masses --     2.6632                 2.3695                 4.6059
 Frc consts  --     1.6824                 1.5483                 3.0481
 IR Inten    --   139.2285                38.9740               133.2753
 Raman Activ --     0.5957                 7.8477                 2.3020

                    61                     62                     63
                     A                      A                      A
 Frequencies --  1061.1138              1064.1016              1067.7649
 Red. masses --     3.2901                 4.6359                 4.4840
 Frc consts  --     2.1826                 3.0928                 3.0121
 IR Inten    --   113.0688                22.2866                77.5823
 Raman Activ --     6.0973                17.5648                 4.5710

                    64                     65                     66
                     A                      A                      A
 Frequencies --  1085.7707              1096.7916              1110.2970
 Red. masses --     2.2891                 2.3207                 3.4212
 Frc consts  --     1.5900                 1.6448                 2.4849
 IR Inten    --    57.0308                15.2043                32.3721
 Raman Activ --     1.8978                12.7065                10.0617

                    67                     68                     69
                     A                      A                      A
 Frequencies --  1124.0002              1127.1343              1137.4329
 Red. masses --     2.4077                 1.9665                 2.3036
 Frc consts  --     1.7922                 1.4719                 1.7559
 IR Inten    --    17.7939                 9.6673                21.6037
 Raman Activ --     3.2084                 1.1122                 3.3006

                    70                     71                     72
                     A                      A                      A
 Frequencies --  1139.2211              1151.3471              1161.1132
 Red. masses --     2.3787                 2.7075                 2.0835
 Frc consts  --     1.8189                 2.1146                 1.6549
 IR Inten    --    40.3328               129.0140                12.8989
 Raman Activ --     1.1205                 2.9196                 2.6821

                    73                     74                     75
                     A                      A                      A
 Frequencies --  1172.0798              1175.1735              1179.1797
 Red. masses --     2.4665                 1.9534                 2.9816
 Frc consts  --     1.9964                 1.5894                 2.4426
 IR Inten    --    42.9443                30.4203                27.6573
 Raman Activ --     4.0379                 3.7265                 1.0812

                    76                     77                     78
                     A                      A                      A
 Frequencies --  1198.3890              1203.3878              1208.6612
 Red. masses --     1.4603                 1.5814                 1.4336
 Frc consts  --     1.2356                 1.3493                 1.2339
 IR Inten    --     7.5432                 4.1202                15.6108
 Raman Activ --     2.0795                 0.9217                 4.6551

                    79                     80                     81
                     A                      A                      A
 Frequencies --  1231.1074              1243.3575              1246.4091
 Red. masses --     1.4355                 1.2103                 1.3062
 Frc consts  --     1.2819                 1.1024                 1.1956
 IR Inten    --     7.6929                11.4158                 3.4824
 Raman Activ --     0.7479                 0.6054                 3.5921

                    82                     83                     84
                     A                      A                      A
 Frequencies --  1257.6983              1279.3893              1286.8550
 Red. masses --     1.3341                 1.2879                 1.2963
 Frc consts  --     1.2433                 1.2420                 1.2648
 IR Inten    --     8.4932                24.8977                26.8964
 Raman Activ --     2.4460                 3.4419                 1.4778

                    85                     86                     87
                     A                      A                      A
 Frequencies --  1291.3540              1294.4360              1308.2239
 Red. masses --     1.1662                 1.3534                 1.5773
 Frc consts  --     1.1459                 1.3361                 1.5905
 IR Inten    --     8.4769                14.1288                 3.4723
 Raman Activ --     2.4557                 5.8623                 8.2663

                    88                     89                     90
                     A                      A                      A
 Frequencies --  1315.6625              1333.0202              1336.5585
 Red. masses --     1.4568                 1.2811                 1.4735
 Frc consts  --     1.4857                 1.3412                 1.5508
 IR Inten    --     3.8077                13.5410                30.4357
 Raman Activ --     5.0521                 0.6129                 0.8772

                    91                     92                     93
                     A                      A                      A
 Frequencies --  1348.4632              1352.4170              1359.7258
 Red. masses --     1.3758                 1.1976                 1.2298
 Frc consts  --     1.4740                 1.2905                 1.3396
 IR Inten    --     7.0408                17.7206                23.2392
 Raman Activ --    12.5598                 0.7199                 4.0559

                    94                     95                     96
                     A                      A                      A
 Frequencies --  1363.8601              1372.4266              1379.1266
 Red. masses --     1.2066                 1.3363                 1.3353
 Frc consts  --     1.3223                 1.4830                 1.4963
 IR Inten    --    21.0112                 4.0380                 7.8952
 Raman Activ --     2.3934                 8.2649                 1.5816

                    97                     98                     99
                     A                      A                      A
 Frequencies --  1381.6534              1382.6095              1385.6929
 Red. masses --     1.1428                 1.2127                 1.4330
 Frc consts  --     1.2854                 1.3658                 1.6212
 IR Inten    --    21.1884                10.5967                15.3940
 Raman Activ --     3.1487                 4.1457                 2.6785

                   100                    101                    102
                     A                      A                      A
 Frequencies --  1392.7925              1437.6715              1453.9279
 Red. masses --     1.3350                 1.0835                 1.0729
 Frc consts  --     1.5258                 1.3195                 1.3363
 IR Inten    --     3.6802                 4.0960                 1.3969
 Raman Activ --     2.3984                 5.1215                 5.1469

                   103                    104                    105
                     A                      A                      A
 Frequencies --  1468.4568              1470.3563              1490.3595
 Red. masses --     1.1566                 1.4353                 1.3171
 Frc consts  --     1.4695                 1.8283                 1.7236
 IR Inten    --    62.8542                27.8159                53.7895
 Raman Activ --     3.3883                 1.7085                 0.8457

                   106                    107                    108
                     A                      A                      A
 Frequencies --  1490.4855              1508.0163              3241.1843
 Red. masses --     1.3532                 1.2589                 1.0730
 Frc consts  --     1.7711                 1.6868                 6.6413
 IR Inten    --    45.7003                35.7112               550.9714
 Raman Activ --     2.9318                 0.9267               112.5540

                   109                    110                    111
                     A                      A                      A
 Frequencies --  3251.9654              3255.1333              3257.6437
 Red. masses --     1.0640                 1.0756                 1.0810
 Frc consts  --     6.6296                 6.7150                 6.7591
 IR Inten    --    51.7410               145.4434                50.0513
 Raman Activ --    95.4696                57.1484                90.0702

                   112                    113                    114
                     A                      A                      A
 Frequencies --  3262.8237              3264.6523              3266.2057
 Red. masses --     1.0802                 1.0813                 1.0800
 Frc consts  --     6.7754                 6.7899                 6.7885
 IR Inten    --    13.9179                14.7274                93.7976
 Raman Activ --     2.5461               229.1437                70.0722

                   115                    116                    117
                     A                      A                      A
 Frequencies --  3271.7045              3275.7635              3282.5287
 Red. masses --     1.0577                 1.0841                 1.0845
 Frc consts  --     6.6705                 6.8542                 6.8852
 IR Inten    --    38.2526                55.4634                 6.1589
 Raman Activ --    43.5465                63.1691                10.4297

                   118                    119                    120
                     A                      A                      A
 Frequencies --  3291.8881              3293.9394              3306.7537
 Red. masses --     1.0869                 1.0875                 1.0957
 Frc consts  --     6.9398                 6.9521                 7.0589
 IR Inten    --    65.9837                 7.4637                 5.7629
 Raman Activ --     2.0967                48.9597                49.3796

                   121                    122                    123
                     A                      A                      A
 Frequencies --  3308.8460              3330.8915              3359.4551
 Red. masses --     1.0937                 1.0960                 1.0676
 Frc consts  --     7.0553                 7.1644                 7.0987
 IR Inten    --    79.0558                35.5739                36.4697
 Raman Activ --    35.0850                49.9988               215.2839

                   124                    125                    126
                     A                      A                      A
 Frequencies --  3360.8770              3369.5412              3370.0985
 Red. masses --     1.0786                 1.0650                 1.0647
 Frc consts  --     7.1781                 7.1242                 7.1245
 IR Inten    --     9.8359                32.4388                60.9964
 Raman Activ --    51.5749                64.2660                95.9515

                   127                    128                    129
                     A                      A                      A
 Frequencies --  3372.4288              3872.5042              3874.2146
 Red. masses --     1.0669                 1.0674                 1.0672
 Frc consts  --     7.1490                 9.4311                 9.4381
 IR Inten    --    44.1273                65.8155                64.8982
 Raman Activ --   157.6516               103.0948               133.7160

 - Thermochemistry -
 -------------------
 Temperature   298.150 Kelvin.  Pressure   1.00000 Atm.
 Atom     1 has atomic number  8 and mass  15.99491

 Molecular mass:   342.11621 amu.
 Principal axes and moments of inertia in atomic units:
                           1         2         3
     Eigenvalues --  4870.66602********************
           X            0.99998  -0.00620  -0.00242
           Y            0.00620   0.99998   0.00174
           Z            0.00241  -0.00176   1.00000
 This molecule is an asymmetric top.
 Rotational symmetry number  1.
 Warning -- assumption of classical behavior for rotation
           may cause significant error
 Rotational temperatures (Kelvin)      0.01778     0.00735     0.00542
 Rotational constants (GHZ):           0.37053     0.15318     0.11284
    7 imaginary frequencies ignored.
 Zero-point vibrational energy     972403.2 (Joules/Mol)
                                  232.40995 (Kcal/Mol)
 Warning -- explicit consideration of  32 degrees of freedom as
           vibrations may cause significant error
 Vibrational temperatures:     69.62    81.54   122.32   146.70   155.50
          (Kelvin)            204.20   219.55   255.97   292.29   301.09
                              354.52   376.01   406.06   424.41   435.22
                              458.81   471.57   490.87   522.21   529.52
                              578.69   610.23   620.47   645.43   687.40
                              702.35   761.36   772.84   803.54   842.65
                              852.44   876.96   924.98   949.86  1000.92
                             1029.17  1044.94  1067.77  1088.67  1179.08
                             1194.93  1226.42  1318.47  1375.15  1391.98
                             1408.16  1424.11  1438.77  1445.29  1479.84
                             1489.81  1515.21  1524.83  1526.70  1531.00
                             1536.27  1562.18  1578.04  1597.47  1617.18
                             1621.69  1636.51  1639.08  1656.53  1670.58
                             1686.36  1690.81  1696.57  1724.21  1731.40
                             1738.99  1771.29  1788.91  1793.30  1809.55
                             1840.75  1851.50  1857.97  1862.40  1882.24
                             1892.94  1917.92  1923.01  1940.14  1945.82
                             1956.34  1962.29  1974.61  1984.25  1987.89
                             1989.26  1993.70  2003.92  2068.49  2091.88
                             2112.78  2115.51  2144.29  2144.47  2169.70
                             4663.34  4678.85  4683.40  4687.02  4694.47
                             4697.10  4699.34  4707.25  4713.09  4722.82
                             4736.29  4739.24  4757.68  4760.69  4792.40
                             4833.50  4835.55  4848.01  4848.81  4852.17
                             5571.66  5574.12

 Zero-point correction=                           0.370369 (Hartree/Particle)
 Thermal correction to Energy=                    0.388907
 Thermal correction to Enthalpy=                  0.389851
 Thermal correction to Gibbs Free Energy=         0.324529
 Sum of electronic and zero-point Energies=          -1297.624119
 Sum of electronic and thermal Energies=             -1297.605581
 Sum of electronic and thermal Enthalpies=           -1297.604636
 Sum of electronic and thermal Free Energies=        -1297.669959

                     E (Thermal)             CV                S
                      KCal/Mol        Cal/Mol-Kelvin    Cal/Mol-Kelvin
 Total                  244.043             76.311            137.482
 Electronic               0.000              0.000              0.000
 Translational            0.889              2.981             43.384
 Rotational               0.889              2.981             35.172
 Vibrational            242.265             70.349             58.925
 Vibration     1          0.595              1.978              4.882
 Vibration     2          0.596              1.975              4.570
 Vibration     3          0.601              1.960              3.772
 Vibration     4          0.604              1.948              3.417
 Vibration     5          0.606              1.943              3.303
 Vibration     6          0.615              1.911              2.778
 Vibration     7          0.619              1.900              2.640
 Vibration     8          0.628              1.870              2.350
 Vibration     9          0.639              1.835              2.104
 Vibration    10          0.642              1.827              2.050
 Vibration    11          0.661              1.769              1.756
 Vibration    12          0.669              1.744              1.653
 Vibration    13          0.681              1.707              1.520
 Vibration    14          0.689              1.683              1.445
 Vibration    15          0.694              1.669              1.403
 Vibration    16          0.705              1.637              1.316
 Vibration    17          0.711              1.620              1.271
 Vibration    18          0.721              1.593              1.207
 Vibration    19          0.737              1.549              1.109
 Vibration    20          0.741              1.538              1.088
 Vibration    21          0.768              1.465              0.955
 Vibration    22          0.786              1.418              0.878
 Vibration    23          0.792              1.402              0.855
 Vibration    24          0.808              1.364              0.800
 Vibration    25          0.834              1.299              0.716
 Vibration    26          0.844              1.276              0.688
 Vibration    27          0.884              1.185              0.589
 Vibration    28          0.892              1.168              0.571
 Vibration    29          0.914              1.121              0.527
 Vibration    30          0.943              1.062              0.475
 Vibration    31          0.950              1.048              0.463
 Vibration    32          0.968              1.012              0.434

 Normal termination of Gaussian 09 at Tue Feb 16 09:09:48 2016.
