 Gaussian 09, Revision B.01,
 Gaussian 09:  EM64L-G09RevB.01 12-Aug-2010

 ------------------------------------------------
 # freq=raman b3lyp/6-31+g(d,p) geom=connectivity
 ------------------------------------------------

 -------------
 350 10000.com
 -------------
 Symbolic Z-matrix:
 Charge =  0 Multiplicity = 1

                         Standard orientation:
 ---------------------------------------------------------------------
 Center     Atomic      Atomic             Coordinates (Angstroms)
 Number     Number       Type             X           Y           Z
 ---------------------------------------------------------------------
      1          8           0       -5.062222   -0.529919    0.439654
      2          6           0       -3.786393   -0.147736   -0.092626
      3          6           0       -3.329891    1.259244    0.258791
      4          8           0       -4.279669    2.163358   -0.324531
      5          1           0       -5.148700    1.934139    0.115188
      6          6           0       -1.877722    1.527806   -0.100089
      7          8           0       -1.401833    2.723965    0.534567
      8          1           0       -0.440012    2.816696    0.274764
      9          6           0       -3.083465   -2.583699    0.347988
     10          8           0       -3.831941   -3.024891   -0.793606
     11          1           0       -3.569569   -3.982015   -0.910889
     12          6           0       -2.736711   -1.106625    0.444440
     13          8           0       -1.520259   -0.840807   -0.269178
     14          6           0       -0.986165    0.363916    0.299471
     15          8           0        0.240148    0.546981   -0.422794
     16          6           0        1.502696    0.204339    0.167610
     17          6           0        2.012633   -1.158840   -0.270996
     18          8           0        1.082257   -2.214129    0.013578
     19          1           0        0.140306   -1.888490    0.100927
     20          6           0        3.424912   -1.395588    0.236796
     21          8           0        3.987381   -2.692795   -0.009760
     22          1           0        4.969547   -2.708933    0.179127
     23          6           0        2.379968    2.618728   -0.114241
     24          8           0        1.079938    3.181524   -0.342442
     25          1           0        1.096262    4.180899   -0.313041
     26          6           0        2.549413    1.138568   -0.417240
     27          8           0        3.865525    0.873513    0.087783
     28          6           0        4.425132   -0.387331   -0.306487
     29          8           0        5.546425   -0.397925    0.590511
     30          1           0        6.359528   -0.471571    0.085498
     31          1           0        4.663517   -0.475918   -1.345826
     32          1           0        3.395569   -1.266344    1.298556
     33          1           0        2.088048   -1.116155   -1.337481
     34          1           0        1.468897    0.281829    1.234265
     35          1           0        2.560544    1.009241   -1.479337
     36          1           0        3.082580    3.159795   -0.712975
     37          1           0        2.630324    2.774915    0.914267
     38          1           0       -5.647840   -0.777589   -0.279589
     39          1           0       -3.641960   -2.843923    1.222784
     40          1           0       -2.166328   -3.134495    0.367596
     41          1           0       -2.573967   -0.873538    1.475985
     42          1           0       -3.820417   -0.239080   -1.158176
     43          1           0       -3.411398    1.360662    1.320851
     44          1           0       -1.810088    1.657360   -1.160061
     45          1           0       -0.837290    0.294803    1.356807
 ---------------------------------------------------------------------

 SCF Done:  E(RB3LYP) =  -1297.93984516     A.U. after   13 cycles

 The electronic state is 1-A.
 Alpha  occ. eigenvalues --  -19.19491 -19.19450 -19.18826 -19.18649 -19.18440
 Alpha  occ. eigenvalues --  -19.17441 -19.17113 -19.16342 -19.15796 -19.14966
 Alpha  occ. eigenvalues --  -19.13875 -10.31656 -10.30998 -10.26382 -10.26354
 Alpha  occ. eigenvalues --  -10.25532 -10.25423 -10.25127 -10.24997 -10.24689
 Alpha  occ. eigenvalues --  -10.24365 -10.24327 -10.24223  -1.10209  -1.09756
 Alpha  occ. eigenvalues --   -1.05508  -1.04954  -1.03880  -1.03352  -1.02784
 Alpha  occ. eigenvalues --   -1.02353  -1.01856  -1.00573  -0.99993  -0.82572
 Alpha  occ. eigenvalues --   -0.80043  -0.79687  -0.77888  -0.72093  -0.70265
 Alpha  occ. eigenvalues --   -0.67540  -0.64865  -0.63158  -0.62111  -0.61855
 Alpha  occ. eigenvalues --   -0.60481  -0.57173  -0.55599  -0.55249  -0.54480
 Alpha  occ. eigenvalues --   -0.53962  -0.53112  -0.52958  -0.52545  -0.51567
 Alpha  occ. eigenvalues --   -0.50454  -0.50022  -0.49070  -0.46881  -0.46665
 Alpha  occ. eigenvalues --   -0.46023  -0.45099  -0.45081  -0.44440  -0.43096
 Alpha  occ. eigenvalues --   -0.42312  -0.41760  -0.41191  -0.40812  -0.39379
 Alpha  occ. eigenvalues --   -0.39173  -0.38327  -0.37504  -0.36134  -0.35634
 Alpha  occ. eigenvalues --   -0.34716  -0.34446  -0.34328  -0.34032  -0.33754
 Alpha  occ. eigenvalues --   -0.33489  -0.31638  -0.30887  -0.30070  -0.29955
 Alpha  occ. eigenvalues --   -0.29350  -0.28562  -0.27558  -0.27416  -0.26735
 Alpha  occ. eigenvalues --   -0.26018
 Alpha virt. eigenvalues --   -0.02273  -0.01852  -0.01197  -0.00472   0.00122
 Alpha virt. eigenvalues --    0.00816   0.01676   0.02672   0.03144   0.03455
 Alpha virt. eigenvalues --    0.03831   0.04154   0.04429   0.05102   0.05468

 Mulliken atomic charges:
              1
     1  O   -0.561279
     2  C   -0.112261
     3  C    0.065447
     4  O   -0.492450
     5  H    0.355171
     6  C    0.080065
     7  O   -0.566784
     8  H    0.449693
     9  C   -0.303443
    10  O   -0.561811
    11  H    0.355702
    12  C    0.587853
    13  O   -0.369379
    14  C   -0.104239
    15  O   -0.316589
    16  C   -0.176713
    17  C    0.061209
    18  O   -0.538513
    19  H    0.402066
    20  C    0.177314
    21  O   -0.504597
    22  H    0.349053
    23  C    0.000887
    24  O   -0.641602
    25  H    0.399339
    26  C   -0.034437
    27  O   -0.311968
    28  C    0.175556
    29  O   -0.551703
    30  H    0.357033
    31  H    0.145309
    32  H    0.145712
    33  H    0.123891
    34  H    0.134793
    35  H    0.136587
    36  H    0.137682
    37  H    0.149733
    38  H    0.378510
    39  H    0.144006
    40  H    0.132890
    41  H    0.115019
    42  H    0.159284
    43  H    0.138112
    44  H    0.153840
    45  H    0.136011
 Sum of Mulliken atomic charges =   0.00000

 Dipole moment (field-independent basis, Debye):
    X=              3.3410    Y=              0.3513    Z=             -0.3866  Tot=              3.3815
 Quadrupole moment (field-independent basis, Debye-Ang):
   XX=           -114.2633   YY=           -138.9506   ZZ=           -138.9679
   XY=             17.8096   XZ=            -10.6665   YZ=             -2.3306

  Exact polarizability: 230.908  -2.261 189.405  -0.022   0.404 142.167
 Approx polarizability: 267.904  -2.145 243.973   0.602   2.804 231.927

 ******    7 imaginary frequencies (negative Signs) ******

                     1                      2                      3
                     A                      A                      A
 Frequencies --  -271.4118              -252.6618              -245.0623
 Red. masses --     1.3642                 1.1715                 1.8667
 Frc consts  --     0.0592                 0.0441                 0.0661
 IR Inten    --    70.4192               109.6185                 3.0471
 Raman Activ --     0.4398                 1.1800                 0.1007

                     4                      5                      6
                     A                      A                      A
 Frequencies --  -227.3882               -76.0907               -48.8315
 Red. masses --     1.3706                 6.8671                 6.2230
 Frc consts  --     0.0418                 0.0234                 0.0087
 IR Inten    --    56.0858                 2.2557                 0.3725
 Raman Activ --     0.5718                 0.0222                 0.0177

                     7                      8                      9
                     A                      A                      A
 Frequencies --   -16.4072                45.2763                70.0506
 Red. masses --     6.5954                 6.7765                 6.1155
 Frc consts  --     0.0010                 0.0082                 0.0177
 IR Inten    --     0.6210                 2.4152                 0.2065
 Raman Activ --     0.0252                 0.0995                 0.1966

                    10                     11                     12
                     A                      A                      A
 Frequencies --    85.5249                96.5888               115.4304
 Red. masses --     6.6940                 6.8182                 5.7616
 Frc consts  --     0.0288                 0.0375                 0.0452
 IR Inten    --     1.4894                 0.6660                 0.8646
 Raman Activ --     0.0792                 0.0783                 0.1464

                    13                     14                     15
                     A                      A                      A
 Frequencies --   153.1732               163.9519               192.8311
 Red. masses --     6.1141                 6.1559                 6.7977
 Frc consts  --     0.0845                 0.0975                 0.1489
 IR Inten    --     2.8132                 3.8784                 0.8358
 Raman Activ --     0.5509                 0.5085                 0.9338

                    16                     17                     18
                     A                      A                      A
 Frequencies --   210.6689               236.0558               263.7531
 Red. masses --     6.8147                 6.0385                 5.7894
 Frc consts  --     0.1782                 0.1982                 0.2373
 IR Inten    --     0.0841                 0.6305                 2.4015
 Raman Activ --     1.6625                 0.4725                 0.7815

                    19                     20                     21
                     A                      A                      A
 Frequencies --   269.1033               285.8461               288.2373
 Red. masses --     5.3363                 4.9545                 4.9781
 Frc consts  --     0.2277                 0.2385                 0.2437
 IR Inten    --     2.5410                 2.1026                 3.6026
 Raman Activ --     0.0854                 0.5543                 0.6979

                    22                     23                     24
                     A                      A                      A
 Frequencies --   294.6842               316.9379               327.5006
 Red. masses --     5.2391                 6.3654                 4.9413
 Frc consts  --     0.2681                 0.3767                 0.3123
 IR Inten    --    11.8364                 3.4389                 9.1642
 Raman Activ --     0.7544                 1.3271                 0.7700

                    25                     26                     27
                     A                      A                      A
 Frequencies --   347.4752               362.9781               388.1704
 Red. masses --     6.1618                 4.2186                 5.9983
 Frc consts  --     0.4383                 0.3275                 0.5325
 IR Inten    --     8.3730                 8.0974                 4.2322
 Raman Activ --     3.2124                 0.4415                 2.7569

                    28                     29                     30
                     A                      A                      A
 Frequencies --   410.5673               418.2571               442.7515
 Red. masses --     6.2679                 5.2376                 4.2572
 Frc consts  --     0.6225                 0.5398                 0.4917
 IR Inten    --    11.3875                 5.8851                 6.3788
 Raman Activ --     5.1303                 1.6466                 2.0268

                    31                     32                     33
                     A                      A                      A
 Frequencies --   461.1898               485.3006               506.5027
 Red. masses --     4.6406                 4.0807                 3.8035
 Frc consts  --     0.5815                 0.5663                 0.5749
 IR Inten    --     3.2765                22.3316                11.6543
 Raman Activ --     0.6944                 1.7014                 6.0929

                    34                     35                     36
                     A                      A                      A
 Frequencies --   521.2215               564.0154               577.9100
 Red. masses --     4.8371                 3.5397                 4.2871
 Frc consts  --     0.7742                 0.6634                 0.8436
 IR Inten    --    13.8147                13.0682                 5.4309
 Raman Activ --     6.0628                 1.1259                 0.5997

                    37                     38                     39
                     A                      A                      A
 Frequencies --   585.5287               601.3272               631.2178
 Red. masses --     3.9803                 3.1395                 5.1725
 Frc consts  --     0.8040                 0.6689                 1.2143
 IR Inten    --    44.3884                21.7465                 4.9789
 Raman Activ --     0.5740                 0.6133                 0.4343

                    40                     41                     42
                     A                      A                      A
 Frequencies --   671.0765               681.4437               688.9846
 Red. masses --     2.2716                 1.4024                 1.0878
 Frc consts  --     0.6027                 0.3837                 0.3042
 IR Inten    --    31.8727                67.2845                 7.1635
 Raman Activ --     0.3623                 1.6084                 1.0056

                    43                     44                     45
                     A                      A                      A
 Frequencies --   691.7176               698.4799               709.8029
 Red. masses --     1.0974                 3.2580                 1.0914
 Frc consts  --     0.3094                 0.9365                 0.3240
 IR Inten    --   162.6371                 6.0316               125.3049
 Raman Activ --     1.9789                 1.2355                 1.4873

                    46                     47                     48
                     A                      A                      A
 Frequencies --   735.0054               858.9178               862.8808
 Red. masses --     1.0899                 2.9996                 1.4592
 Frc consts  --     0.3469                 1.3038                 0.6401
 IR Inten    --   104.2844                21.4870                21.5809
 Raman Activ --     1.9450                 5.2951                 1.0661

                    49                     50                     51
                     A                      A                      A
 Frequencies --   900.5747               909.0541               929.1743
 Red. masses --     1.2034                 3.0760                 4.6772
 Frc consts  --     0.5751                 1.4977                 2.3792
 IR Inten    --    75.4226                32.7527                69.3586
 Raman Activ --     0.7289                 3.6434                 2.7958

                    52                     53                     54
                     A                      A                      A
 Frequencies --   951.7353               984.2540               999.8373
 Red. masses --     5.4017                 4.3998                 5.4065
 Frc consts  --     2.8828                 2.5113                 3.1844
 IR Inten    --    23.8966               138.8406                15.6746
 Raman Activ --     1.4530                 4.4415                 2.9290

                    55                     56                     57
                     A                      A                      A
 Frequencies --  1008.7519              1011.7254              1031.5518
 Red. masses --     5.4712                 5.4839                 5.7059
 Frc consts  --     3.2802                 3.3072                 3.5773
 IR Inten    --   203.2587                61.7252               298.7946
 Raman Activ --     0.8227                 0.6553                 1.3086

                    58                     59                     60
                     A                      A                      A
 Frequencies --  1044.9014              1055.5849              1063.1704
 Red. masses --     3.2427                 2.5845                 2.8123
 Frc consts  --     2.0860                 1.6968                 1.8729
 IR Inten    --   148.5066               166.9531                46.7700
 Raman Activ --    11.5629                 1.5434                 3.9017

                    61                     62                     63
                     A                      A                      A
 Frequencies --  1073.2621              1078.0951              1095.2504
 Red. masses --     2.9362                 2.9860                 3.2819
 Frc consts  --     1.9927                 2.0448                 2.3195
 IR Inten    --     8.5954                29.9871                65.4686
 Raman Activ --    16.4115                 3.5238                 5.4457

                    64                     65                     66
                     A                      A                      A
 Frequencies --  1098.6375              1106.9268              1109.7583
 Red. masses --     3.3034                 3.8324                 2.8822
 Frc consts  --     2.3492                 2.7666                 2.0914
 IR Inten    --    10.8341               138.0450               160.2831
 Raman Activ --     0.9669                 5.1830                 3.3224

                    67                     68                     69
                     A                      A                      A
 Frequencies --  1113.4907              1122.8028              1133.2987
 Red. masses --     2.2647                 2.1697                 2.7001
 Frc consts  --     1.6543                 1.6116                 2.0433
 IR Inten    --     5.2931                26.7811                36.1539
 Raman Activ --     4.5257                 3.3582                11.8307

                    70                     71                     72
                     A                      A                      A
 Frequencies --  1142.1156              1153.6935              1159.1947
 Red. masses --     2.4905                 2.6422                 2.2324
 Frc consts  --     1.9141                 2.0721                 1.7674
 IR Inten    --    22.6758                86.6513                58.4855
 Raman Activ --     3.9526                 3.2164                 1.2280

                    73                     74                     75
                     A                      A                      A
 Frequencies --  1166.9421              1180.3271              1184.1194
 Red. masses --     1.8013                 1.9922                 2.1313
 Frc consts  --     1.4452                 1.6353                 1.7607
 IR Inten    --    21.1663                11.7238                19.0242
 Raman Activ --     6.2780                 2.5618                 4.0032

                    76                     77                     78
                     A                      A                      A
 Frequencies --  1200.0071              1206.3869              1214.4155
 Red. masses --     1.5128                 1.5082                 1.6352
 Frc consts  --     1.2835                 1.2933                 1.4209
 IR Inten    --    17.6802                 9.9712                10.7593
 Raman Activ --     3.8185                 1.6759                 0.2759

                    79                     80                     81
                     A                      A                      A
 Frequencies --  1225.4069              1244.3924              1259.4601
 Red. masses --     1.3159                 1.2311                 1.3394
 Frc consts  --     1.1642                 1.1232                 1.2518
 IR Inten    --     4.2213                20.2864                23.1194
 Raman Activ --     2.5966                 0.8222                 6.0350

                    82                     83                     84
                     A                      A                      A
 Frequencies --  1266.8081              1277.1112              1282.0461
 Red. masses --     1.2491                 1.3061                 1.2506
 Frc consts  --     1.1810                 1.2551                 1.2111
 IR Inten    --     6.2991                44.0174                14.6019
 Raman Activ --     3.2881                 3.1319                 1.9379

                    85                     86                     87
                     A                      A                      A
 Frequencies --  1286.7631              1292.0083              1302.7315
 Red. masses --     1.1898                 1.2965                 1.3241
 Frc consts  --     1.1607                 1.2752                 1.3240
 IR Inten    --    20.5864                 6.1821                22.1729
 Raman Activ --     7.2869                 2.9000                 2.3455

                    88                     89                     90
                     A                      A                      A
 Frequencies --  1319.7111              1329.6279              1335.8756
 Red. masses --     1.3300                 1.2670                 1.2524
 Frc consts  --     1.3648                 1.3198                 1.3168
 IR Inten    --     4.8070                56.7069                21.1392
 Raman Activ --     7.2412                 7.3582                 0.5049

                    91                     92                     93
                     A                      A                      A
 Frequencies --  1340.9704              1348.9098              1351.0945
 Red. masses --     1.3010                 1.2972                 1.4021
 Frc consts  --     1.3783                 1.3907                 1.5080
 IR Inten    --    24.6285                13.5895                28.9548
 Raman Activ --     3.5642                 5.1030                 4.8380

                    94                     95                     96
                     A                      A                      A
 Frequencies --  1355.7855              1359.1312              1364.0359
 Red. masses --     1.4450                 1.2719                 1.1889
 Frc consts  --     1.5650                 1.3843                 1.3033
 IR Inten    --    46.2058                 2.9101                16.8059
 Raman Activ --    14.2844                 1.7218                 4.1281

                    97                     98                     99
                     A                      A                      A
 Frequencies --  1385.3420              1391.7805              1400.1308
 Red. masses --     1.4337                 1.5663                 1.3626
 Frc consts  --     1.6211                 1.7876                 1.5738
 IR Inten    --    22.8230                 6.5161                 8.5709
 Raman Activ --     4.7378                 4.5745                 3.7679

                   100                    101                    102
                     A                      A                      A
 Frequencies --  1414.7812              1445.0518              1450.0538
 Red. masses --     1.4876                 1.4555                 1.3834
 Frc consts  --     1.7544                 1.7907                 1.7138
 IR Inten    --    30.5896                33.1570                36.5563
 Raman Activ --     0.3156                 0.6630                 2.9114

                   103                    104                    105
                     A                      A                      A
 Frequencies --  1458.7133              1463.1305              1468.8232
 Red. masses --     1.3943                 1.1127                 1.3582
 Frc consts  --     1.7481                 1.4035                 1.7264
 IR Inten    --    31.8467                 0.7611                10.8813
 Raman Activ --     1.1695                 4.0065                 2.2731

                   106                    107                    108
                     A                      A                      A
 Frequencies --  1482.7329              1522.3178              3255.4463
 Red. masses --     1.0817                 1.2464                 1.0681
 Frc consts  --     1.4011                 1.7018                 6.6693
 IR Inten    --     2.5589                36.2942               867.4187
 Raman Activ --     5.7463                 0.7128               145.3499

                   109                    110                    111
                     A                      A                      A
 Frequencies --  3269.6109              3269.9319              3277.5753
 Red. masses --     1.0692                 1.0749                 1.0589
 Frc consts  --     6.7344                 6.7718                 6.7020
 IR Inten    --    44.7235                45.9377                22.1774
 Raman Activ --    99.8028                12.7905               214.7507

                   112                    113                    114
                     A                      A                      A
 Frequencies --  3283.4530              3287.9167              3290.7519
 Red. masses --     1.0819                 1.0814                 1.0843
 Frc consts  --     6.8726                 6.8877                 6.9179
 IR Inten    --     4.1658                30.0139                 5.8107
 Raman Activ --    15.3843               136.5859               125.6770

                   115                    116                    117
                     A                      A                      A
 Frequencies --  3294.4253              3304.2642              3311.0028
 Red. masses --     1.0850                 1.0849                 1.0870
 Frc consts  --     6.9379                 6.9792                 7.0210
 IR Inten    --    17.8234                 1.9087                 4.5312
 Raman Activ --    10.2213                46.8923                 6.9596

                   118                    119                    120
                     A                      A                      A
 Frequencies --  3313.4139              3318.5617              3323.2169
 Red. masses --     1.0867                 1.0883                 1.1046
 Frc consts  --     7.0290                 7.0612                 7.1871
 IR Inten    --    19.6395                56.3494                92.7530
 Raman Activ --    62.9173                 5.1552                59.9777

                   121                    122                    123
                     A                      A                      A
 Frequencies --  3325.5737              3333.7956              3334.5998
 Red. masses --     1.0884                 1.0992                 1.0783
 Frc consts  --     7.0921                 7.1979                 7.0642
 IR Inten    --    41.3362               146.5984               349.9584
 Raman Activ --    71.1706               114.3843               119.5259

                   124                    125                    126
                     A                      A                      A
 Frequencies --  3381.3806              3383.0499              3394.1602
 Red. masses --     1.0663                 1.0656                 1.0670
 Frc consts  --     7.1832                 7.1859                 7.2425
 IR Inten    --    39.1596                36.1444                60.7949
 Raman Activ --   133.5788               110.8366               154.8418

                   127                    128                    129
                     A                      A                      A
 Frequencies --  3402.3762              3921.1931              3921.2995
 Red. masses --     1.0673                 1.0675                 1.0676
 Frc consts  --     7.2796                 9.6705                 9.6716
 IR Inten    --    41.6309               109.4700                32.0207
 Raman Activ --   119.3802                58.0747               177.0065

 - Thermochemistry -
 -------------------
 Temperature   298.150 Kelvin.  Pressure   1.00000 Atm.
 Atom     1 has atomic number  8 and mass  15.99491

 Molecular mass:   342.11621 amu.
 Principal axes and moments of inertia in atomic units:
                           1         2         3
     Eigenvalues --  4218.94508********************
           X            0.99996   0.00801  -0.00276
           Y           -0.00802   0.99996  -0.00279
           Z            0.00273   0.00282   0.99999
 This molecule is an asymmetric top.
 Rotational symmetry number  1.
 Warning -- assumption of classical behavior for rotation
           may cause significant error
 Rotational temperatures (Kelvin)      0.02053     0.00691     0.00531
 Rotational constants (GHZ):           0.42777     0.14392     0.11070
    7 imaginary frequencies ignored.
 Zero-point vibrational energy     977164.2 (Joules/Mol)
                                  233.54786 (Kcal/Mol)
 Warning -- explicit consideration of  31 degrees of freedom as
           vibrations may cause significant error
 Vibrational temperatures:     65.14   100.79   123.05   138.97   166.08
          (Kelvin)            220.38   235.89   277.44   303.11   339.63
                              379.48   387.18   411.27   414.71   423.98
                              456.00   471.20   499.94   522.24   558.49
                              590.71   601.78   637.02   663.55   698.24
                              728.74   749.92   811.49   831.48   842.44
                              865.17   908.18   965.53   980.44   991.29
                              995.23  1004.96  1021.25  1057.51  1235.79
                             1241.49  1295.72  1307.92  1336.87  1369.33
                             1416.12  1438.54  1451.37  1455.65  1484.17
                             1503.38  1518.75  1529.66  1544.18  1551.14
                             1575.82  1580.69  1592.62  1596.69  1602.06
                             1615.46  1630.56  1643.25  1659.91  1667.82
                             1678.97  1698.23  1703.68  1726.54  1735.72
                             1747.27  1763.08  1790.40  1812.08  1822.65
                             1837.48  1844.58  1851.36  1858.91  1874.34
                             1898.77  1913.04  1922.02  1929.35  1940.78
                             1943.92  1950.67  1955.48  1962.54  1993.20
                             2002.46  2014.47  2035.55  2079.10  2086.30
                             2098.76  2105.12  2113.31  2133.32  2190.27
                             4683.86  4704.23  4704.70  4715.69  4724.15
                             4730.57  4734.65  4739.94  4754.09  4763.79
                             4767.26  4774.66  4781.36  4784.75  4796.58
                             4797.74  4865.05  4867.45  4883.43  4895.25
                             5641.72  5641.87

 Zero-point correction=                           0.372182 (Hartree/Particle)
 Thermal correction to Energy=                    0.390439
 Thermal correction to Enthalpy=                  0.391383
 Thermal correction to Gibbs Free Energy=         0.326828
 Sum of electronic and zero-point Energies=          -1297.567663
 Sum of electronic and thermal Energies=             -1297.549407
 Sum of electronic and thermal Enthalpies=           -1297.548462
 Sum of electronic and thermal Free Energies=        -1297.613017

                     E (Thermal)             CV                S
                      KCal/Mol        Cal/Mol-Kelvin    Cal/Mol-Kelvin
 Total                  245.004             75.758            135.867
 Electronic               0.000              0.000              0.000
 Translational            0.889              2.981             43.384
 Rotational               0.889              2.981             35.110
 Vibrational            243.226             69.797             57.373
 Vibration     1          0.595              1.979              5.014
 Vibration     2          0.598              1.968              4.152
 Vibration     3          0.601              1.959              3.760
 Vibration     4          0.603              1.952              3.522
 Vibration     5          0.608              1.937              3.175
 Vibration     6          0.619              1.899              2.632
 Vibration     7          0.623              1.887              2.504
 Vibration     8          0.635              1.850              2.200
 Vibration     9          0.643              1.825              2.038
 Vibration    10          0.655              1.786              1.832
 Vibration    11          0.670              1.739              1.637
 Vibration    12          0.673              1.730              1.602
 Vibration    13          0.684              1.700              1.498
 Vibration    14          0.685              1.696              1.484
 Vibration    15          0.689              1.684              1.447
 Vibration    16          0.704              1.641              1.326
 Vibration    17          0.711              1.621              1.272
 Vibration    18          0.725              1.580              1.178
 Vibration    19          0.737              1.548              1.109
 Vibration    20          0.756              1.495              1.007
 Vibration    21          0.775              1.447              0.925
 Vibration    22          0.781              1.431              0.898
 Vibration    23          0.802              1.377              0.818
 Vibration    24          0.819              1.336              0.763
 Vibration    25          0.841              1.283              0.696
 Vibration    26          0.862              1.236              0.642
 Vibration    27          0.876              1.203              0.607
 Vibration    28          0.920              1.109              0.516
 Vibration    29          0.934              1.079              0.489
 Vibration    30          0.943              1.063              0.475
 Vibration    31          0.960              1.029              0.447

 Normal termination of Gaussian 09 at Thu Jan 21 04:54:58 2016.
