 Gaussian 09, Revision B.01,
 Gaussian 09:  EM64L-G09RevB.01 12-Aug-2010

 -------------------------------------------------
 # freq=raman b3lyp/6-31+g(2d,p) geom=connectivity
 -------------------------------------------------

 -----------------
 400 8947/8947.com
 -----------------
 Symbolic Z-matrix:
 Charge =  0 Multiplicity = 1

                         Standard orientation:
 ---------------------------------------------------------------------
 Center     Atomic      Atomic             Coordinates (Angstroms)
 Number     Number       Type             X           Y           Z
 ---------------------------------------------------------------------
      1          8           0        4.971787   -0.250391   -0.391208
      2          6           0        3.664159   -0.052798    0.165069
      3          6           0        3.184303    1.367452   -0.085144
      4          8           0        4.231443    2.330309    0.103073
      5          1           0        5.150407    1.935717    0.095947
      6          6           0        1.745416    1.563832    0.362268
      7          8           0        1.308940    2.854965   -0.086922
      8          1           0        0.368310    3.001716    0.218275
      9          6           0        3.135249   -2.608441   -0.050601
     10          8           0        4.342174   -3.332921   -0.328382
     11          1           0        4.214384   -4.249699    0.049523
     12          6           0        2.695513   -1.162014   -0.210691
     13          8           0        1.403350   -0.865753    0.338692
     14          6           0        0.868653    0.400887   -0.073019
     15          8           0       -0.354890    0.620583    0.642550
     16          6           0       -1.528947    0.232710   -0.087480
     17          6           0       -1.967490   -1.145996    0.377023
     18          8           0       -0.960854   -1.999505   -0.186433
     19          1           0       -0.009214   -1.712972   -0.073380
     20          6           0       -3.331265   -1.634170   -0.083553
     21          8           0       -3.670230   -2.822437    0.645387
     22          1           0       -4.636702   -2.957097    0.426116
     23          6           0       -2.341780    2.571901   -0.491957
     24          8           0       -1.415973    3.328736    0.300813
     25          1           0       -1.635527    4.298599    0.193446
     26          6           0       -2.660391    1.223431    0.133547
     27          8           0       -3.809813    0.639411   -0.493987
     28          6           0       -4.336173   -0.521681    0.166101
     29          8           0       -5.512369   -0.642701   -0.646215
     30          1           0        5.634197   -0.100002    0.287169
     31          1           0        2.969773   -2.799913    0.989042
     32          1           0        2.393634   -3.150830   -0.598982
     33          1           0        2.567364   -1.049498   -1.267014
     34          1           0        3.786983   -0.130058    1.225184
     35          1           0        3.074712    1.386491   -1.149347
     36          1           0        1.742000    1.580748    1.432129
     37          1           0        0.701432    0.422134   -1.129658
     38          1           0       -6.288550   -0.445424   -0.116853
     39          1           0       -3.248785    3.130261   -0.594309
     40          1           0       -1.919617    2.413571   -1.462323
     41          1           0       -2.839818    1.342038    1.181707
     42          1           0       -1.295986    0.193614   -1.131080
     43          1           0       -1.915990   -1.193484    1.444727
     44          1           0       -3.296386   -1.855246   -1.129884
     45          1           0       -4.548618   -0.353711    1.201259
 ---------------------------------------------------------------------

 SCF Done:  E(RB3LYP) =  -1297.94421804     A.U. after   13 cycles

 The electronic state is 1-A.
 Alpha  occ. eigenvalues --  -19.20080 -19.18820 -19.18610 -19.17943 -19.17150
 Alpha  occ. eigenvalues --  -19.17098 -19.16530 -19.16253 -19.15294 -19.13949
 Alpha  occ. eigenvalues --  -19.12593 -10.31413 -10.30758 -10.27006 -10.25336
 Alpha  occ. eigenvalues --  -10.25306 -10.25254 -10.24841 -10.24762 -10.24621
 Alpha  occ. eigenvalues --  -10.24604 -10.24060 -10.23916  -1.10913  -1.09455
 Alpha  occ. eigenvalues --   -1.05901  -1.05400  -1.04833  -1.03275  -1.03013
 Alpha  occ. eigenvalues --   -1.02437  -1.01703  -1.00373  -0.99799  -0.82061
 Alpha  occ. eigenvalues --   -0.80783  -0.79270  -0.78334  -0.72256  -0.70339
 Alpha  occ. eigenvalues --   -0.67520  -0.65384  -0.63306  -0.63227  -0.61473
 Alpha  occ. eigenvalues --   -0.60303  -0.56837  -0.56272  -0.55107  -0.54812
 Alpha  occ. eigenvalues --   -0.53935  -0.53347  -0.53124  -0.52034  -0.51380
 Alpha  occ. eigenvalues --   -0.50753  -0.50627  -0.49940  -0.48837  -0.46803
 Alpha  occ. eigenvalues --   -0.46424  -0.45495  -0.44734  -0.44343  -0.43467
 Alpha  occ. eigenvalues --   -0.42434  -0.41701  -0.40834  -0.40023  -0.39302
 Alpha  occ. eigenvalues --   -0.38955  -0.38241  -0.37835  -0.36568  -0.35664
 Alpha  occ. eigenvalues --   -0.35157  -0.34941  -0.34185  -0.33526  -0.33031
 Alpha  occ. eigenvalues --   -0.32651  -0.31367  -0.30996  -0.30463  -0.29953
 Alpha  occ. eigenvalues --   -0.29642  -0.28374  -0.28128  -0.27403  -0.26784
 Alpha  occ. eigenvalues --   -0.25851
 Alpha virt. eigenvalues --   -0.02527  -0.02057  -0.01916  -0.01017   0.00240
 Alpha virt. eigenvalues --    0.00735   0.02012   0.02298   0.02925   0.03419
 Alpha virt. eigenvalues --    0.03660   0.04184   0.04804   0.05446   0.05779

 Mulliken atomic charges:
              1
     1  O   -0.504577
     2  C   -0.092887
     3  C    0.122558
     4  O   -0.556433
     5  H    0.322933
     6  C    0.193709
     7  O   -0.573742
     8  H    0.407066
     9  C   -0.355773
    10  O   -0.495777
    11  H    0.336282
    12  C    0.182592
    13  O   -0.294910
    14  C   -0.047720
    15  O   -0.199780
    16  C    0.341573
    17  C    0.261440
    18  O   -0.606009
    19  H    0.408852
    20  C    0.048430
    21  O   -0.538747
    22  H    0.328521
    23  C   -0.214242
    24  O   -0.547492
    25  H    0.357785
    26  C   -0.134361
    27  O   -0.209592
    28  C    0.094172
    29  O   -0.506051
    30  H    0.328452
    31  H    0.138151
    32  H    0.151775
    33  H    0.111293
    34  H    0.111360
    35  H    0.105364
    36  H    0.123013
    37  H    0.135296
    38  H    0.325980
    39  H    0.143344
    40  H    0.153561
    41  H    0.120017
    42  H    0.112997
    43  H    0.129740
    44  H    0.144691
    45  H    0.137147
 Sum of Mulliken atomic charges =   0.00000

 Dipole moment (field-independent basis, Debye):
    X=             -3.1586    Y=              0.7515    Z=              2.3749  Tot=              4.0226
 Quadrupole moment (field-independent basis, Debye-Ang):
   XX=           -115.9302   YY=           -138.4221   ZZ=           -140.5813
   XY=            -18.3437   XZ=              1.8866   YZ=             -2.5532

  Exact polarizability: 235.654   0.422 198.454   0.651  -1.221 144.060
 Approx polarizability: 276.829  -1.124 257.619   0.535  -1.089 241.479

 ******    7 imaginary frequencies (negative Signs) ******

                     1                      2                      3
                     A                      A                      A
 Frequencies --  -425.6256              -260.1114              -203.4790
 Red. masses --     1.6036                 1.1547                 1.8825
 Frc consts  --     0.1712                 0.0460                 0.0459
 IR Inten    --     1.6397                84.2691                 3.5542
 Raman Activ --     0.0332                 1.1026                 0.0633

                     4                      5                      6
                     A                      A                      A
 Frequencies --  -147.9506               -87.0576               -73.8010
 Red. masses --     1.4448                 4.5827                 7.3752
 Frc consts  --     0.0186                 0.0205                 0.0237
 IR Inten    --   102.3057                 8.4269                 3.1043
 Raman Activ --     0.7818                 0.0629                 0.0482

                     7                      8                      9
                     A                      A                      A
 Frequencies --   -48.3440                54.5851                56.6483
 Red. masses --     6.5308                 6.1425                 6.6974
 Frc consts  --     0.0090                 0.0108                 0.0127
 IR Inten    --     0.0649                 0.7637                 3.1739
 Raman Activ --     0.0399                 0.0367                 0.0225

                    10                     11                     12
                     A                      A                      A
 Frequencies --    70.2365                75.9776               110.4963
 Red. masses --     6.9439                 6.1738                 5.6137
 Frc consts  --     0.0202                 0.0210                 0.0404
 IR Inten    --     0.5647                 0.7194                 1.7267
 Raman Activ --     0.0913                 0.3537                 0.1382

                    13                     14                     15
                     A                      A                      A
 Frequencies --   137.1079               163.2952               179.5067
 Red. masses --     6.6386                 6.1678                 6.0285
 Frc consts  --     0.0735                 0.0969                 0.1145
 IR Inten    --     3.9645                 2.0693                 2.6911
 Raman Activ --     0.1684                 0.4545                 0.4412

                    16                     17                     18
                     A                      A                      A
 Frequencies --   200.2927               221.9530               223.5274
 Red. masses --     5.9728                 5.4474                 5.6571
 Frc consts  --     0.1412                 0.1581                 0.1665
 IR Inten    --     3.0570                 2.9907                17.4893
 Raman Activ --     2.0282                 0.9772                 0.9226

                    19                     20                     21
                     A                      A                      A
 Frequencies --   265.6383               282.6185               292.2216
 Red. masses --     5.4385                 5.9183                 5.7181
 Frc consts  --     0.2261                 0.2785                 0.2877
 IR Inten    --     2.5765                 2.2952                 2.7384
 Raman Activ --     0.4879                 0.8179                 4.1392

                    22                     23                     24
                     A                      A                      A
 Frequencies --   307.0035               322.9037               334.4529
 Red. masses --     5.5977                 5.4109                 5.6733
 Frc consts  --     0.3108                 0.3324                 0.3739
 IR Inten    --     1.2011                 7.3424                 3.4910
 Raman Activ --     1.1222                 2.0479                 4.8953

                    25                     26                     27
                     A                      A                      A
 Frequencies --   350.1742               372.6536               386.5124
 Red. masses --     4.2503                 3.4385                 6.1901
 Frc consts  --     0.3071                 0.2813                 0.5448
 IR Inten    --    10.0640                 7.6662                 4.8664
 Raman Activ --     0.6236                 0.4079                 0.3812

                    28                     29                     30
                     A                      A                      A
 Frequencies --   405.6399               416.8797               436.1096
 Red. masses --     4.2753                 6.7542                 4.6384
 Frc consts  --     0.4145                 0.6916                 0.5198
 IR Inten    --    27.0689                 1.4545                11.1439
 Raman Activ --     3.0832                 3.2335                 1.2680

                    31                     32                     33
                     A                      A                      A
 Frequencies --   451.4497               455.6110               490.0966
 Red. masses --     5.0210                 5.0462                 4.1877
 Frc consts  --     0.6029                 0.6172                 0.5926
 IR Inten    --     5.6474                 5.4086                12.0893
 Raman Activ --     0.7875                 6.9481                 1.1398

                    34                     35                     36
                     A                      A                      A
 Frequencies --   517.6752               534.8309               557.5727
 Red. masses --     3.1386                 3.6321                 4.3992
 Frc consts  --     0.4956                 0.6121                 0.8058
 IR Inten    --     2.0253                14.8137                 7.3180
 Raman Activ --     3.2047                 1.3001                 2.4283

                    37                     38                     39
                     A                      A                      A
 Frequencies --   568.1573               588.5557               595.1542
 Red. masses --     2.1553                 1.9888                 2.6235
 Frc consts  --     0.4099                 0.4059                 0.5475
 IR Inten    --    26.2748                36.9941                30.0214
 Raman Activ --     1.4750                 1.5896                 0.6308

                    40                     41                     42
                     A                      A                      A
 Frequencies --   629.3128               631.8382               674.0326
 Red. masses --     4.0268                 4.7469                 1.0602
 Frc consts  --     0.9396                 1.1165                 0.2838
 IR Inten    --     3.8314                42.8321               104.0900
 Raman Activ --     0.6041                 2.5764                 1.7488

                    43                     44                     45
                     A                      A                      A
 Frequencies --   701.7512               719.8508               754.3986
 Red. masses --     5.3289                 1.1026                 1.0883
 Frc consts  --     1.5461                 0.3366                 0.3649
 IR Inten    --    19.3207                98.9900               100.8601
 Raman Activ --     0.5329                 1.8106                 1.7930

                    46                     47                     48
                     A                      A                      A
 Frequencies --   807.3784               836.1834               849.9084
 Red. masses --     1.0719                 2.0114                 1.1309
 Frc consts  --     0.4117                 0.8286                 0.4813
 IR Inten    --    46.7439                 4.3283                76.5231
 Raman Activ --     0.7934                 1.1752                 0.9036

                    49                     50                     51
                     A                      A                      A
 Frequencies --   875.6600               920.1360               936.4029
 Red. masses --     1.5295                 6.9082                 6.1924
 Frc consts  --     0.6910                 3.4460                 3.1991
 IR Inten    --    14.8107               279.2692                55.6913
 Raman Activ --     0.5265                 3.2921                 1.1473

                    52                     53                     54
                     A                      A                      A
 Frequencies --   964.0103               975.5615               991.6967
 Red. masses --     5.8683                 5.4296                 5.3465
 Frc consts  --     3.2131                 3.0446                 3.0980
 IR Inten    --     6.4383               148.5048               144.7822
 Raman Activ --     1.1309                 0.5140                 4.0749

                    55                     56                     57
                     A                      A                      A
 Frequencies --  1001.5641              1004.5624              1020.9328
 Red. masses --     6.7484                 6.2787                 4.9736
 Frc consts  --     3.9885                 3.7332                 3.0543
 IR Inten    --    27.2992               320.7787                87.5589
 Raman Activ --     3.7787                 0.5205                 4.5143

                    58                     59                     60
                     A                      A                      A
 Frequencies --  1027.6006              1053.8726              1054.4976
 Red. masses --     4.8056                 3.3862                 3.3324
 Frc consts  --     2.9898                 2.2158                 2.1832
 IR Inten    --   154.0338               210.9429                 5.5316
 Raman Activ --     2.7931                10.6860                 5.5852

                    61                     62                     63
                     A                      A                      A
 Frequencies --  1060.3068              1078.2059              1080.8281
 Red. masses --     5.1154                 5.1219                 7.5366
 Frc consts  --     3.3884                 3.5082                 5.1873
 IR Inten    --    24.7267                44.1155               121.9098
 Raman Activ --     0.6813                10.7944                 1.0947

                    64                     65                     66
                     A                      A                      A
 Frequencies --  1088.6617              1098.6128              1114.4960
 Red. masses --     3.1596                 2.8098                 2.5850
 Frc consts  --     2.2063                 1.9981                 1.8918
 IR Inten    --    11.0785                32.0605                33.9180
 Raman Activ --     7.9388                 3.7059                 1.4745

                    67                     68                     69
                     A                      A                      A
 Frequencies --  1119.0190              1127.8097              1135.1681
 Red. masses --     2.6003                 3.1706                 2.9217
 Frc consts  --     1.9184                 2.3761                 2.2182
 IR Inten    --     2.5864                28.9033                13.5986
 Raman Activ --     8.7566                 5.9120                 7.6149

                    70                     71                     72
                     A                      A                      A
 Frequencies --  1145.9063              1152.5573              1154.7669
 Red. masses --     1.9035                 1.4283                 2.1083
 Frc consts  --     1.4727                 1.1179                 1.6564
 IR Inten    --     4.2325                10.4232                38.9762
 Raman Activ --     3.9117                 1.5292                 7.9845

                    73                     74                     75
                     A                      A                      A
 Frequencies --  1167.3934              1180.1578              1182.8253
 Red. masses --     1.8176                 1.8849                 1.5351
 Frc consts  --     1.4594                 1.5468                 1.2654
 IR Inten    --    12.8464                22.8626                 8.5921
 Raman Activ --     2.3705                 2.9206                 2.2493

                    76                     77                     78
                     A                      A                      A
 Frequencies --  1206.9517              1212.5588              1234.8943
 Red. masses --     1.9375                 1.2797                 1.3824
 Frc consts  --     1.6630                 1.1086                 1.2421
 IR Inten    --    16.4571                10.8801                12.7230
 Raman Activ --     5.1847                 1.2166                 2.5355

                    79                     80                     81
                     A                      A                      A
 Frequencies --  1236.2799              1249.1368              1258.5239
 Red. masses --     1.3221                 1.2379                 1.3424
 Frc consts  --     1.1905                 1.1380                 1.2527
 IR Inten    --    13.3930                14.5040                 3.9187
 Raman Activ --     0.6815                 2.3226                 1.1241

                    82                     83                     84
                     A                      A                      A
 Frequencies --  1270.8274              1281.5777              1285.2599
 Red. masses --     1.1458                 1.3465                 1.2992
 Frc consts  --     1.0903                 1.3030                 1.2644
 IR Inten    --    24.0785                16.3622                35.5191
 Raman Activ --     2.5835                 2.3557                 2.7623

                    85                     86                     87
                     A                      A                      A
 Frequencies --  1288.5274              1299.2495              1316.1583
 Red. masses --     1.2867                 1.2986                 1.2950
 Frc consts  --     1.2587                 1.2916                 1.3217
 IR Inten    --    13.5776                25.3387                24.1075
 Raman Activ --     5.3626                 6.1307                 1.8402

                    88                     89                     90
                     A                      A                      A
 Frequencies --  1318.6519              1326.3017              1342.6130
 Red. masses --     1.2501                 1.3268                 1.3652
 Frc consts  --     1.2808                 1.3751                 1.4500
 IR Inten    --    36.2479                13.2190                29.7441
 Raman Activ --     3.5926                 3.5531                 5.8297

                    91                     92                     93
                     A                      A                      A
 Frequencies --  1348.6406              1354.1955              1365.9464
 Red. masses --     1.2305                 1.6350                 1.2790
 Frc consts  --     1.3186                 1.7666                 1.4061
 IR Inten    --     0.8443                23.0933                 0.4980
 Raman Activ --     4.4883                 7.0645                 2.9894

                    94                     95                     96
                     A                      A                      A
 Frequencies --  1376.0696              1377.6772              1391.2565
 Red. masses --     1.5346                 1.1977                 1.4119
 Frc consts  --     1.7121                 1.3393                 1.6101
 IR Inten    --     7.4144                14.4367                51.0943
 Raman Activ --     6.5282                 5.1988                 1.7183

                    97                     98                     99
                     A                      A                      A
 Frequencies --  1395.9111              1409.7710              1415.3003
 Red. masses --     1.4178                 1.1983                 1.3034
 Frc consts  --     1.6278                 1.4032                 1.5383
 IR Inten    --    13.6720                11.9466                 9.5854
 Raman Activ --     7.1455                 4.1124                 4.5568

                   100                    101                    102
                     A                      A                      A
 Frequencies --  1422.0893              1457.6783              1459.7013
 Red. masses --     1.1971                 1.2792                 1.3201
 Frc consts  --     1.4264                 1.6015                 1.6573
 IR Inten    --     1.4095                27.1241                23.6451
 Raman Activ --     4.2198                 1.0762                 1.4894

                   103                    104                    105
                     A                      A                      A
 Frequencies --  1463.1698              1474.4885              1475.4234
 Red. masses --     1.1317                 1.0902                 1.3814
 Frc consts  --     1.4274                 1.3964                 1.7718
 IR Inten    --     9.8135                 3.7215                60.4742
 Raman Activ --     6.0787                 3.9237                 3.1092

                   106                    107                    108
                     A                      A                      A
 Frequencies --  1493.9405              1499.1247              3237.1825
 Red. masses --     1.2573                 1.2715                 1.0754
 Frc consts  --     1.6533                 1.6837                 6.6397
 IR Inten    --    46.9300                 7.6853               301.8200
 Raman Activ --     1.2274                 0.7954                78.3428

                   109                    110                    111
                     A                      A                      A
 Frequencies --  3238.3358              3240.5204              3246.1145
 Red. masses --     1.0757                 1.0594                 1.0750
 Frc consts  --     6.6461                 6.5546                 6.6739
 IR Inten    --    63.1543                89.6102               362.3503
 Raman Activ --   101.4507               151.3847               195.8319

                   112                    113                    114
                     A                      A                      A
 Frequencies --  3259.9380              3265.2094              3277.2414
 Red. masses --     1.0573                 1.0843                 1.0833
 Frc consts  --     6.6199                 6.8111                 6.8550
 IR Inten    --    86.0833                28.9819                29.9399
 Raman Activ --    69.0968                20.2224                50.3358

                   115                    116                    117
                     A                      A                      A
 Frequencies --  3280.1606              3283.8770              3291.7778
 Red. masses --     1.0839                 1.0837                 1.0862
 Frc consts  --     6.8709                 6.8852                 6.9346
 IR Inten    --    30.3300                 9.6451                62.0897
 Raman Activ --   112.5988                56.4607                33.5932

                   118                    119                    120
                     A                      A                      A
 Frequencies --  3294.1790              3295.4700              3295.6851
 Red. masses --     1.0865                 1.0938                 1.0775
 Frc consts  --     6.9466                 6.9986                 6.8954
 IR Inten    --     7.0385               127.6769               598.3162
 Raman Activ --    99.5656                36.9331                99.9274

                   121                    122                    123
                     A                      A                      A
 Frequencies --  3298.3689              3308.1713              3322.8072
 Red. masses --     1.0865                 1.0867                 1.1073
 Frc consts  --     6.9642                 7.0070                 7.2032
 IR Inten    --    73.6005                59.0391                55.1697
 Raman Activ --    58.4450                 8.6652                31.4450

                   124                    125                    126
                     A                      A                      A
 Frequencies --  3363.7225              3365.1418              3370.1043
 Red. masses --     1.0655                 1.0660                 1.0673
 Frc consts  --     7.1028                 7.1121                 7.1422
 IR Inten    --    28.4167                38.7540                71.3620
 Raman Activ --   119.0195               109.4104               136.4239

                   127                    128                    129
                     A                      A                      A
 Frequencies --  3371.6802              3878.8819              3890.2847
 Red. masses --     1.0683                 1.0678                 1.0674
 Frc consts  --     7.1552                 9.4658                 9.5180
 IR Inten    --    50.8152                65.6269                65.0888
 Raman Activ --   148.8996                84.3140               132.8337

 - Thermochemistry -
 -------------------
 Temperature   298.150 Kelvin.  Pressure   1.00000 Atm.
 Atom     1 has atomic number  8 and mass  15.99491

 Molecular mass:   342.11621 amu.
 Principal axes and moments of inertia in atomic units:
                           1         2         3
     Eigenvalues --  4513.68509********************
           X            0.99996  -0.00837   0.00009
           Y            0.00837   0.99996  -0.00281
           Z           -0.00006   0.00281   1.00000
 This molecule is an asymmetric top.
 Rotational symmetry number  1.
 Warning -- assumption of classical behavior for rotation
           may cause significant error
 Rotational temperatures (Kelvin)      0.01919     0.00703     0.00528
 Rotational constants (GHZ):           0.39984     0.14642     0.10995
    7 imaginary frequencies ignored.
 Zero-point vibrational energy     973318.6 (Joules/Mol)
                                  232.62872 (Kcal/Mol)
 Warning -- explicit consideration of  32 degrees of freedom as
           vibrations may cause significant error
 Vibrational temperatures:     78.54    81.50   101.05   109.31   158.98
          (Kelvin)            197.27   234.95   258.27   288.18   319.34
                              321.61   382.19   406.62   420.44   441.71
                              464.59   481.20   503.82   536.16   556.10
                              583.62   599.80   627.46   649.53   655.52
                              705.14   744.82   769.50   802.22   817.45
                              846.80   856.29   905.44   909.07   969.78
                             1009.66  1035.70  1085.41  1161.64  1203.08
                             1222.83  1259.88  1323.87  1347.27  1386.99
                             1403.61  1426.83  1441.03  1445.34  1468.89
                             1478.49  1516.29  1517.18  1525.54  1551.30
                             1555.07  1566.34  1580.66  1603.51  1610.02
                             1622.66  1633.25  1648.70  1658.27  1661.45
                             1679.62  1697.98  1701.82  1736.53  1744.60
                             1776.74  1778.73  1797.23  1810.73  1828.43
                             1843.90  1849.20  1853.90  1869.33  1893.66
                             1897.24  1908.25  1931.72  1940.39  1948.38
                             1965.29  1979.85  1982.17  2001.71  2008.40
                             2028.34  2036.30  2046.07  2097.27  2100.18
                             2105.17  2121.46  2122.80  2149.44  2156.90
                             4657.58  4659.24  4662.38  4670.43  4690.32
                             4697.90  4715.21  4719.41  4724.76  4736.13
                             4739.58  4741.44  4741.75  4745.61  4759.71
                             4780.77  4839.64  4841.68  4848.82  4851.09
                             5580.84  5597.25

 Zero-point correction=                           0.370717 (Hartree/Particle)
 Thermal correction to Energy=                    0.389303
 Thermal correction to Enthalpy=                  0.390247
 Thermal correction to Gibbs Free Energy=         0.324654
 Sum of electronic and zero-point Energies=          -1297.573501
 Sum of electronic and thermal Energies=             -1297.554915
 Sum of electronic and thermal Enthalpies=           -1297.553971
 Sum of electronic and thermal Free Energies=        -1297.619564

                     E (Thermal)             CV                S
                      KCal/Mol        Cal/Mol-Kelvin    Cal/Mol-Kelvin
 Total                  244.291             76.253            138.051
 Electronic               0.000              0.000              0.000
 Translational            0.889              2.981             43.384
 Rotational               0.889              2.981             35.167
 Vibrational            242.514             70.291             59.500
 Vibration     1          0.596              1.976              4.644
 Vibration     2          0.596              1.975              4.571
 Vibration     3          0.598              1.968              4.147
 Vibration     4          0.599              1.965              3.992
 Vibration     5          0.606              1.941              3.260
 Vibration     6          0.614              1.916              2.844
 Vibration     7          0.623              1.887              2.511
 Vibration     8          0.629              1.867              2.334
 Vibration     9          0.638              1.839              2.130
 Vibration    10          0.648              1.808              1.943
 Vibration    11          0.649              1.805              1.930
 Vibration    12          0.671              1.736              1.624
 Vibration    13          0.682              1.706              1.518
 Vibration    14          0.688              1.688              1.461
 Vibration    15          0.697              1.660              1.378
 Vibration    16          0.708              1.630              1.295
 Vibration    17          0.716              1.607              1.238
 Vibration    18          0.727              1.575              1.165
 Vibration    19          0.744              1.528              1.069
 Vibration    20          0.755              1.499              1.014
 Vibration    21          0.771              1.458              0.942
 Vibration    22          0.780              1.434              0.903
 Vibration    23          0.797              1.392              0.839
 Vibration    24          0.810              1.358              0.791
 Vibration    25          0.814              1.348              0.779
 Vibration    26          0.846              1.272              0.683
 Vibration    27          0.873              1.211              0.615
 Vibration    28          0.890              1.173              0.577
 Vibration    29          0.913              1.123              0.529
 Vibration    30          0.924              1.100              0.508
 Vibration    31          0.946              1.056              0.470
 Vibration    32          0.953              1.042              0.458

 Normal termination of Gaussian 09 at Sun Mar 27 03:54:32 2016.
