 Gaussian 09, Revision B.01,
 Gaussian 09:  EM64L-G09RevB.01 12-Aug-2010

 -------------------------------------------------
 # freq=raman b3lyp/6-31+g(2d,p) geom=connectivity
 -------------------------------------------------

 -----------------
 550 5019/5019.com
 -----------------
 Symbolic Z-matrix:
 Charge =  0 Multiplicity = 1

                         Standard orientation:
 ---------------------------------------------------------------------
 Center     Atomic      Atomic             Coordinates (Angstroms)
 Number     Number       Type             X           Y           Z
 ---------------------------------------------------------------------
      1          8           0        4.829693    0.581597    0.997162
      2          6           0        3.827645    0.265028    0.019583
      3          6           0        3.472260   -1.206008    0.157904
      4          8           0        4.610785   -1.939099   -0.316240
      5          1           0        5.413469   -1.579569    0.159733
      6          6           0        2.084350   -1.550857   -0.358555
      7          8           0        1.708238   -2.932498   -0.274223
      8          1           0        2.491347   -3.534060   -0.430442
      9          6           0        3.090802    2.630696   -0.171003
     10          8           0        2.149032    3.713163   -0.142453
     11          1           0        2.559669    4.408762   -0.732748
     12          6           0        2.709339    1.248049    0.330281
     13          8           0        1.516552    0.687859   -0.238167
     14          6           0        0.982737   -0.603361    0.087470
     15          8           0       -0.178940   -0.814929   -0.729203
     16          6           0       -1.372400   -0.305649   -0.116939
     17          6           0       -1.860611    1.116864   -0.337367
     18          8           0       -0.999442    2.160022    0.141958
     19          1           0       -0.112568    2.064860   -0.309518
     20          6           0       -3.232595    1.389278    0.258029
     21          8           0       -3.733784    2.691716   -0.076258
     22          1           0       -3.275047    3.254691    0.612868
     23          6           0       -2.070220   -2.652988   -0.353138
     24          8           0       -2.050735   -3.540534    0.775298
     25          1           0       -1.540546   -3.126777    1.529141
     26          6           0       -2.538439   -1.212399   -0.475962
     27          8           0       -3.832705   -0.960024    0.091500
     28          6           0       -4.295965    0.378779   -0.137643
     29          8           0       -5.555356    0.422295    0.550513
     30          1           0       -6.245397    0.081082   -0.023088
     31          1           0       -4.485793    0.492257   -1.184537
     32          1           0       -3.131427    1.347682    1.322423
     33          1           0       -1.948595    1.249605   -1.395450
     34          1           0       -1.224030   -0.404652    0.938089
     35          1           0       -2.680191   -1.060897   -1.525654
     36          1           0       -3.112046   -2.741085   -0.125679
     37          1           0       -1.401012   -2.147692    0.311495
     38          1           0        3.405990    2.518108   -1.187310
     39          1           0        3.943091    2.943660    0.395174
     40          1           0        5.700144    0.411059    0.629967
     41          1           0        2.586340    1.296945    1.392063
     42          1           0        4.210190    0.452816   -0.961893
     43          1           0        3.431754   -1.395587    1.210197
     44          1           0        2.158820   -1.374282   -1.411254
     45          1           0        0.767731   -0.698067    1.131358
 ---------------------------------------------------------------------

 SCF Done:  E(RB3LYP) =  -1297.66262596     A.U. after   17 cycles

 The electronic state is 1-A.
 Alpha  occ. eigenvalues --  -19.19672 -19.19250 -19.18930 -19.18209 -19.18016
 Alpha  occ. eigenvalues --  -19.17549 -19.17469 -19.16573 -19.16375 -19.16191
 Alpha  occ. eigenvalues --  -19.15310 -10.32593 -10.30047 -10.27362 -10.27324
 Alpha  occ. eigenvalues --  -10.27016 -10.26600 -10.26174 -10.26027 -10.25715
 Alpha  occ. eigenvalues --  -10.25378 -10.25082 -10.17444  -1.10552  -1.08721
 Alpha  occ. eigenvalues --   -1.08078  -1.05640  -1.05199  -1.04864  -1.03953
 Alpha  occ. eigenvalues --   -1.03789  -1.02721  -1.01986  -1.01280  -0.84227
 Alpha  occ. eigenvalues --   -0.82004  -0.80377  -0.79752  -0.73012  -0.71116
 Alpha  occ. eigenvalues --   -0.68366  -0.66188  -0.64764  -0.63046  -0.62103
 Alpha  occ. eigenvalues --   -0.60998  -0.57773  -0.57097  -0.56152  -0.55532
 Alpha  occ. eigenvalues --   -0.55202  -0.54225  -0.53813  -0.53674  -0.52894
 Alpha  occ. eigenvalues --   -0.50975  -0.49918  -0.49064  -0.48656  -0.47866
 Alpha  occ. eigenvalues --   -0.46582  -0.46291  -0.45884  -0.45197  -0.44651
 Alpha  occ. eigenvalues --   -0.43112  -0.42596  -0.41792  -0.39642  -0.39252
 Alpha  occ. eigenvalues --   -0.38426  -0.38226  -0.37329  -0.37155  -0.36716
 Alpha  occ. eigenvalues --   -0.36355  -0.35484  -0.34705  -0.34137  -0.33352
 Alpha  occ. eigenvalues --   -0.33297  -0.31547  -0.31097  -0.30369  -0.30075
 Alpha  occ. eigenvalues --   -0.29570  -0.29280  -0.28830  -0.28379  -0.27152
 Alpha  occ. eigenvalues --   -0.17086
 Alpha virt. eigenvalues --   -0.06971  -0.04112  -0.02518  -0.00788  -0.00014
 Alpha virt. eigenvalues --    0.00165   0.00925   0.01304   0.01889   0.02850
 Alpha virt. eigenvalues --    0.03152   0.03839   0.03947   0.04549   0.05548

 Mulliken atomic charges:
              1
     1  O   -0.536893
     2  C    0.012704
     3  C    0.132609
     4  O   -0.545418
     5  H    0.319265
     6  C    0.029206
     7  O   -0.556012
     8  H    0.351990
     9  C   -0.400933
    10  O   -0.502616
    11  H    0.332385
    12  C    0.142956
    13  O   -0.303386
    14  C    0.402960
    15  O   -0.137318
    16  C    0.438713
    17  C   -0.088507
    18  O   -0.546588
    19  H    0.372980
    20  C   -0.067243
    21  O   -0.479891
    22  H    0.344533
    23  C   -1.056903
    24  O   -0.255778
    25  H    0.274279
    26  C    0.165333
    27  O   -0.273831
    28  C    0.224054
    29  O   -0.505910
    30  H    0.328995
    31  H    0.118646
    32  H    0.126010
    33  H    0.123398
    34  H    0.093310
    35  H    0.160914
    36  H    0.292511
    37  H    0.216392
    38  H    0.131005
    39  H    0.172262
    40  H    0.318261
    41  H    0.124401
    42  H    0.128195
    43  H    0.125271
    44  H    0.132076
    45  H    0.121614
 Sum of Mulliken atomic charges =   0.00000

 Dipole moment (field-independent basis, Debye):
    X=              7.2493    Y=              3.3862    Z=              0.1863  Tot=              8.0034
 Quadrupole moment (field-independent basis, Debye-Ang):
   XX=           -111.2193   YY=           -156.5298   ZZ=           -138.2126
   XY=              4.8562   XZ=              2.5344   YZ=             -9.9000

  Exact polarizability: 233.953  -3.762 214.628   3.377  -2.768 156.595
 Approx polarizability: 283.610  -4.326 285.423   6.289  -6.088 264.796

 ******   11 imaginary frequencies (negative Signs) ******

                     1                      2                      3
                     A                      A                      A
 Frequencies -- -1727.5502              -746.5235              -488.0342
 Red. masses --     1.0755                 1.0262                 4.9617
 Frc consts  --     1.8911                 0.3370                 0.6963
 IR Inten    --   492.2927                63.2039                22.5215
 Raman Activ --    22.7284                 1.7502                 2.4105

                     4                      5                      6
                     A                      A                      A
 Frequencies --  -353.2116              -288.1757              -279.7696
 Red. masses --     2.2534                 1.7308                 1.1072
 Frc consts  --     0.1656                 0.0847                 0.0511
 IR Inten    --   196.4626                 2.2969                97.4603
 Raman Activ --    35.6811                 0.0799                 2.0097

                     7                      8                      9
                     A                      A                      A
 Frequencies --  -140.0772              -121.1162               -94.1774
 Red. masses --     6.3273                 3.2252                 5.6144
 Frc consts  --     0.0731                 0.0279                 0.0293
 IR Inten    --    13.1728                22.4926                 4.0233
 Raman Activ --     2.5011                 0.3692                 3.7480

                    10                     11                     12
                     A                      A                      A
 Frequencies --   -73.9951               -22.9727                 8.1277
 Red. masses --     6.2995                 5.4119                 6.6089
 Frc consts  --     0.0203                 0.0017                 0.0003
 IR Inten    --     1.8083                 8.1587                 0.7375
 Raman Activ --     0.0981                 0.2107                 0.2698

                    13                     14                     15
                     A                      A                      A
 Frequencies --    52.7338                83.0056               100.7688
 Red. masses --     5.8092                 5.7929                 4.8840
 Frc consts  --     0.0095                 0.0235                 0.0292
 IR Inten    --     5.6219                 5.3384                 1.7240
 Raman Activ --     0.1302                 2.0690                 0.5357

                    16                     17                     18
                     A                      A                      A
 Frequencies --   111.5436               133.5297               159.4290
 Red. masses --     2.2890                 5.8974                 5.5349
 Frc consts  --     0.0168                 0.0620                 0.0829
 IR Inten    --    58.3043                21.1289                 4.2148
 Raman Activ --     0.3348                 4.7167                 4.9360

                    19                     20                     21
                     A                      A                      A
 Frequencies --   178.3467               203.5407               226.1279
 Red. masses --     6.6067                 6.3960                 4.7998
 Frc consts  --     0.1238                 0.1561                 0.1446
 IR Inten    --     2.7999                 0.5201                 7.9576
 Raman Activ --     4.6022                 2.4727                 0.9662

                    22                     23                     24
                     A                      A                      A
 Frequencies --   250.4419               272.4676               277.7105
 Red. masses --     5.1053                 5.0566                 6.0067
 Frc consts  --     0.1887                 0.2212                 0.2729
 IR Inten    --    22.4744                 0.8949                 0.5905
 Raman Activ --     3.8276                 0.7303                 2.8763

                    25                     26                     27
                     A                      A                      A
 Frequencies --   300.2463               303.9073               313.6864
 Red. masses --     4.7489                 5.4433                 4.6479
 Frc consts  --     0.2522                 0.2962                 0.2695
 IR Inten    --     2.8053                 7.4578                13.8638
 Raman Activ --     0.4888                 4.0876                 4.3587

                    28                     29                     30
                     A                      A                      A
 Frequencies --   343.3435               361.4182               388.5010
 Red. masses --     3.3206                 4.2297                 6.0609
 Frc consts  --     0.2306                 0.3255                 0.5390
 IR Inten    --    18.6732                11.4424                 8.2933
 Raman Activ --     4.4097                 2.9960                 1.9090

                    31                     32                     33
                     A                      A                      A
 Frequencies --   394.9520               406.0570               423.3593
 Red. masses --     5.4510                 5.4473                 6.1887
 Frc consts  --     0.5010                 0.5292                 0.6535
 IR Inten    --     6.6279                 4.6214                 4.3865
 Raman Activ --     3.3066                 5.1695                 0.3659

                    34                     35                     36
                     A                      A                      A
 Frequencies --   454.7161               473.7610               490.1351
 Red. masses --     4.9319                 4.7645                 4.3426
 Frc consts  --     0.6008                 0.6301                 0.6147
 IR Inten    --     2.8391                 1.1347                 6.9225
 Raman Activ --     2.4078                 4.1817                 1.4762

                    37                     38                     39
                     A                      A                      A
 Frequencies --   511.8922               534.9211               553.0446
 Red. masses --     2.4733                 1.5877                 3.3544
 Frc consts  --     0.3818                 0.2677                 0.6045
 IR Inten    --    13.8427                60.7110                25.3182
 Raman Activ --     8.7323                 4.0673                 2.9661

                    40                     41                     42
                     A                      A                      A
 Frequencies --   558.2582               562.7384               602.5901
 Red. masses --     3.2795                 5.3263                 3.6498
 Frc consts  --     0.6022                 0.9938                 0.7808
 IR Inten    --    26.9720                 5.7537                 1.3832
 Raman Activ --     2.4146                 1.8667                 0.3939

                    43                     44                     45
                     A                      A                      A
 Frequencies --   612.9521               635.6483               674.0993
 Red. masses --     3.5211                 4.5284                 1.0665
 Frc consts  --     0.7794                 1.0780                 0.2855
 IR Inten    --    31.9163                10.3597                94.1029
 Raman Activ --     0.5272                 0.8637                 1.9713

                    46                     47                     48
                     A                      A                      A
 Frequencies --   690.0771               707.4926               715.1801
 Red. masses --     3.8445                 1.1212                 1.0878
 Frc consts  --     1.0787                 0.3306                 0.3278
 IR Inten    --     4.3807                90.3919                77.2604
 Raman Activ --    20.3779                 2.4814                 1.2026

                    49                     50                     51
                     A                      A                      A
 Frequencies --   720.7473               735.1106               821.6849
 Red. masses --     1.1915                 1.1171                 2.6532
 Frc consts  --     0.3647                 0.3557                 1.0555
 IR Inten    --   103.4874               158.0851                 2.6689
 Raman Activ --     1.9358                 3.3755                 3.8088

                    52                     53                     54
                     A                      A                      A
 Frequencies --   840.6580               903.7109               924.8013
 Red. masses --     4.4187                 4.8374                 4.6487
 Frc consts  --     1.8399                 2.3277                 2.3425
 IR Inten    --    52.2955                38.7523               589.7050
 Raman Activ --     4.5728                 6.0480                 5.8392

                    55                     56                     57
                     A                      A                      A
 Frequencies --   951.1387               966.7659               971.7143
 Red. masses --     7.2981                 5.3548                 5.4301
 Frc consts  --     3.8900                 2.9488                 3.0209
 IR Inten    --   173.3816                27.9741                77.7510
 Raman Activ --     3.5987                 1.9882                 2.5249

                    58                     59                     60
                     A                      A                      A
 Frequencies --   994.3630               996.1274              1011.8789
 Red. masses --     5.2254                 5.3823                 5.8837
 Frc consts  --     3.0441                 3.1467                 3.5494
 IR Inten    --    83.1995                14.2932               293.1736
 Raman Activ --     2.0526                 5.0031                 5.3730

                    61                     62                     63
                     A                      A                      A
 Frequencies --  1028.7219              1036.1651              1053.5534
 Red. masses --     2.7318                 2.6785                 3.4712
 Frc consts  --     1.7033                 1.6943                 2.2701
 IR Inten    --   163.3081                23.8932                11.0307
 Raman Activ --     0.5052                10.8426                 4.9610

                    64                     65                     66
                     A                      A                      A
 Frequencies --  1059.1864              1075.4797              1082.7680
 Red. masses --     4.9747                 3.2266                 3.1541
 Frc consts  --     3.2882                 2.1988                 2.1787
 IR Inten    --   187.2624                16.4287                21.8175
 Raman Activ --     7.8924                29.1648                 1.4103

                    67                     68                     69
                     A                      A                      A
 Frequencies --  1088.8096              1097.5347              1119.7472
 Red. masses --     3.5524                 3.9876                 2.5567
 Frc consts  --     2.4813                 2.8301                 1.8888
 IR Inten    --    19.1394                42.7362                63.6019
 Raman Activ --    11.2951                 1.0727                 3.3300

                    70                     71                     72
                     A                      A                      A
 Frequencies --  1130.2582              1138.2037              1145.5927
 Red. masses --     2.3631                 3.7224                 2.0162
 Frc consts  --     1.7786                 2.8413                 1.5590
 IR Inten    --    53.4820                15.4902                14.6090
 Raman Activ --     2.4386                 3.7568                 6.7564

                    73                     74                     75
                     A                      A                      A
 Frequencies --  1147.2453              1153.1796              1176.6886
 Red. masses --     2.9908                 2.4719                 1.7873
 Frc consts  --     2.3193                 1.9368                 1.4580
 IR Inten    --    53.7438                32.4066                24.3796
 Raman Activ --     6.4173                 1.5395                 2.6726

                    76                     77                     78
                     A                      A                      A
 Frequencies --  1188.6575              1190.7456              1198.5277
 Red. masses --     1.4536                 1.3054                 1.4288
 Frc consts  --     1.2101                 1.0906                 1.2092
 IR Inten    --    27.3106                13.0740                17.5761
 Raman Activ --     1.7410                 1.0581                 4.2921

                    79                     80                     81
                     A                      A                      A
 Frequencies --  1235.1918              1245.4774              1249.9542
 Red. masses --     1.3721                 1.2676                 1.2130
 Frc consts  --     1.2334                 1.1585                 1.1166
 IR Inten    --     4.2473                 2.0566                 1.2250
 Raman Activ --     3.0351                 2.1784                 2.9180

                    82                     83                     84
                     A                      A                      A
 Frequencies --  1255.1810              1262.3392              1283.9162
 Red. masses --     1.2900                 1.3867                 1.3438
 Frc consts  --     1.1974                 1.3019                 1.3051
 IR Inten    --     7.0901                 8.2224                24.2205
 Raman Activ --     1.5918                 6.5662                 0.4265

                    85                     86                     87
                     A                      A                      A
 Frequencies --  1284.5181              1297.6157              1300.2295
 Red. masses --     1.1548                 1.3837                 1.3310
 Frc consts  --     1.1226                 1.3728                 1.3258
 IR Inten    --     8.5949                12.5902                18.5129
 Raman Activ --     4.9942                 1.7405                 0.7779

                    88                     89                     90
                     A                      A                      A
 Frequencies --  1306.9117              1321.6233              1330.1155
 Red. masses --     1.1660                 1.2494                 1.3092
 Frc consts  --     1.1734                 1.2858                 1.3647
 IR Inten    --     5.1508                 9.7821                67.8598
 Raman Activ --     4.9082                 1.2329                 0.8916

                    91                     92                     93
                     A                      A                      A
 Frequencies --  1339.0849              1342.4327              1346.4986
 Red. masses --     1.2535                 1.2277                 1.4025
 Frc consts  --     1.3244                 1.3035                 1.4982
 IR Inten    --    10.6026                29.2501                 3.3307
 Raman Activ --     2.8715                 5.9745                 6.9076

                    94                     95                     96
                     A                      A                      A
 Frequencies --  1354.2008              1373.8275              1378.2458
 Red. masses --     1.3464                 1.2870                 1.1038
 Frc consts  --     1.4547                 1.4312                 1.2353
 IR Inten    --    12.6527                 1.8409                57.8239
 Raman Activ --     9.4569                 4.5956                 5.3713

                    97                     98                     99
                     A                      A                      A
 Frequencies --  1384.3338              1388.6765              1396.4217
 Red. masses --     1.3950                 1.6610                 1.2049
 Frc consts  --     1.5751                 1.8872                 1.3843
 IR Inten    --    10.2210               181.3833                 1.8976
 Raman Activ --     2.6897                26.2802                 5.3841

                   100                    101                    102
                     A                      A                      A
 Frequencies --  1410.7170              1436.0622              1447.8371
 Red. masses --     1.4547                 1.6305                 1.3901
 Frc consts  --     1.7057                 1.9811                 1.7168
 IR Inten    --    10.5010                31.5704                37.6927
 Raman Activ --     8.0230                 3.8169                 2.4942

                   103                    104                    105
                     A                      A                      A
 Frequencies --  1453.6090              1464.7538              1487.8699
 Red. masses --     1.3360                 1.0847                 1.3221
 Frc consts  --     1.6632                 1.3712                 1.7245
 IR Inten    --    31.8773                 3.4423                17.5919
 Raman Activ --     3.0193                 4.2535                 1.8657

                   106                    107                    108
                     A                      A                      A
 Frequencies --  1506.3040              1614.3611              3184.6906
 Red. masses --     1.3093                 1.1082                 1.0437
 Frc consts  --     1.7503                 1.7017                 6.2371
 IR Inten    --    59.3389                40.2881                20.3588
 Raman Activ --     2.6645                20.3018               215.5864

                   109                    110                    111
                     A                      A                      A
 Frequencies --  3240.0564              3246.6857              3255.3412
 Red. masses --     1.0660                 1.0793                 1.0746
 Frc consts  --     6.5936                 6.7030                 6.7096
 IR Inten    --    59.1745                 7.0541                19.7967
 Raman Activ --   366.4935                 8.3435                39.5245

                   112                    113                    114
                     A                      A                      A
 Frequencies --  3256.8988              3265.0627              3269.8381
 Red. masses --     1.0646                 1.0822                 1.0825
 Frc consts  --     6.6535                 6.7974                 6.8189
 IR Inten    --    18.4315                 3.2633                10.8473
 Raman Activ --   166.5028                 9.7915               151.4041

                   115                    116                    117
                     A                      A                      A
 Frequencies --  3270.8957              3273.3994              3279.3871
 Red. masses --     1.0829                 1.0844                 1.0831
 Frc consts  --     6.8263                 6.8460                 6.8631
 IR Inten    --     6.4445                 4.1010                 2.7855
 Raman Activ --     2.1868                34.1997                87.9230

                   118                    119                    120
                     A                      A                      A
 Frequencies --  3287.9868              3291.2868              3294.6043
 Red. masses --     1.0857                 1.0861                 1.0872
 Frc consts  --     6.9157                 6.9321                 6.9531
 IR Inten    --     8.7086                70.4089                67.9753
 Raman Activ --    40.9349                11.0045                 9.2481

                   121                    122                    123
                     A                      A                      A
 Frequencies --  3312.7181              3360.1621              3362.9604
 Red. masses --     1.1022                 1.0666                 1.0655
 Frc consts  --     7.1263                 7.0951                 7.0999
 IR Inten    --    43.3200               235.0190                30.2208
 Raman Activ --    54.8350               172.9202                85.1591

                   124                    125                    126
                     A                      A                      A
 Frequencies --  3366.6134              3367.5879              3378.0997
 Red. masses --     1.0667                 1.0657                 1.0674
 Frc consts  --     7.1235                 7.1208                 7.1765
 IR Inten    --    54.5460                47.9512                57.8009
 Raman Activ --   122.6066                73.7634               121.2424

                   127                    128                    129
                     A                      A                      A
 Frequencies --  3381.4476              3876.1905              3890.9760
 Red. masses --     1.1041                 1.0671                 1.0673
 Frc consts  --     7.4380                 9.4461                 9.5206
 IR Inten    --   191.8946                34.0070                86.6028
 Raman Activ --    14.9878               117.1513               125.8076

 - Thermochemistry -
 -------------------
 Temperature   298.150 Kelvin.  Pressure   1.00000 Atm.
 Atom     1 has atomic number  8 and mass  15.99491

 Molecular mass:   342.11621 amu.
 Principal axes and moments of inertia in atomic units:
                           1         2         3
     Eigenvalues --  4715.41033********************
           X            0.99998   0.00628   0.00095
           Y           -0.00627   0.99997  -0.00487
           Z           -0.00098   0.00487   0.99999
 This molecule is an asymmetric top.
 Rotational symmetry number  1.
 Warning -- assumption of classical behavior for rotation
           may cause significant error
 Rotational temperatures (Kelvin)      0.01837     0.00722     0.00536
 Rotational constants (GHZ):           0.38273     0.15045     0.11160
   11 imaginary frequencies ignored.
 Zero-point vibrational energy     946435.8 (Joules/Mol)
                                  226.20359 (Kcal/Mol)
 Warning -- explicit consideration of  32 degrees of freedom as
           vibrations may cause significant error
 Vibrational temperatures:     11.69    75.87   119.43   144.98   160.49
          (Kelvin)            192.12   229.38   256.60   292.85   325.35
                              360.33   392.02   399.56   431.99   437.25
                              451.32   493.99   520.00   558.97   568.25
                              584.22   609.12   654.23   681.64   705.19
                              736.50   769.63   795.71   803.21   809.65
                              866.99   881.90   914.56   969.88   992.87
                             1017.92  1028.98  1036.99  1057.66  1182.22
                             1209.52  1300.24  1330.58  1368.47  1390.96
                             1398.08  1430.66  1433.20  1455.87  1480.10
                             1490.81  1515.83  1523.93  1547.37  1557.86
                             1566.55  1579.11  1611.06  1626.19  1637.62
                             1648.25  1650.63  1659.17  1692.99  1710.21
                             1713.22  1724.41  1777.16  1791.96  1798.40
                             1805.92  1816.22  1847.27  1848.13  1866.98
                             1870.74  1880.35  1901.52  1913.74  1926.64
                             1931.46  1937.31  1948.39  1976.63  1982.99
                             1991.75  1997.99  2009.14  2029.70  2066.17
                             2083.11  2091.42  2107.45  2140.71  2167.23
                             2322.70  4582.05  4661.71  4671.25  4683.70
                             4685.95  4697.69  4704.56  4706.08  4709.69
                             4718.30  4730.67  4735.42  4740.19  4766.26
                             4834.52  4838.54  4843.80  4845.20  4860.33
                             4865.14  5576.97  5598.24

 Zero-point correction=                           0.360478 (Hartree/Particle)
 Thermal correction to Energy=                    0.378816
 Thermal correction to Enthalpy=                  0.379760
 Thermal correction to Gibbs Free Energy=         0.313184
 Sum of electronic and zero-point Energies=          -1297.302148
 Sum of electronic and thermal Energies=             -1297.283810
 Sum of electronic and thermal Enthalpies=           -1297.282866
 Sum of electronic and thermal Free Energies=        -1297.349442

                     E (Thermal)             CV                S
                      KCal/Mol        Cal/Mol-Kelvin    Cal/Mol-Kelvin
 Total                  237.710             74.862            140.120
 Electronic               0.000              0.000              0.000
 Translational            0.889              2.981             43.384
 Rotational               0.889              2.981             35.169
 Vibrational            235.933             68.900             61.567
 Vibration     1          0.593              1.987              8.423
 Vibration     2          0.596              1.977              4.712
 Vibration     3          0.600              1.961              3.819
 Vibration     4          0.604              1.949              3.439
 Vibration     5          0.607              1.940              3.242
 Vibration     6          0.613              1.920              2.895
 Vibration     7          0.621              1.892              2.557
 Vibration     8          0.629              1.869              2.346
 Vibration     9          0.639              1.835              2.101
 Vibration    10          0.650              1.801              1.909
 Vibration    11          0.663              1.762              1.727
 Vibration    12          0.675              1.724              1.581
 Vibration    13          0.679              1.715              1.548
 Vibration    14          0.693              1.673              1.416
 Vibration    15          0.695              1.666              1.395
 Vibration    16          0.702              1.648              1.343
 Vibration    17          0.722              1.589              1.197
 Vibration    18          0.736              1.552              1.116
 Vibration    19          0.757              1.495              1.006
 Vibration    20          0.762              1.481              0.981
 Vibration    21          0.771              1.457              0.941
 Vibration    22          0.786              1.419              0.881
 Vibration    23          0.813              1.350              0.782
 Vibration    24          0.831              1.308              0.727
 Vibration    25          0.846              1.272              0.683
 Vibration    26          0.867              1.224              0.629
 Vibration    27          0.890              1.173              0.576
 Vibration    28          0.908              1.133              0.538
 Vibration    29          0.914              1.122              0.527
 Vibration    30          0.918              1.112              0.518
 Vibration    31          0.961              1.026              0.445
 Vibration    32          0.972              1.004              0.428

 Normal termination of Gaussian 09 at Sun Apr  3 02:14:00 2016.
