 Gaussian 09, Revision B.01,
 Gaussian 09:  EM64L-G09RevB.01 12-Aug-2010

 -------------------------------------------------
 # freq=raman b3lyp/6-31+g(2d,p) geom=connectivity
 -------------------------------------------------

 -----------------
 290 5902/5902.com
 -----------------
 Symbolic Z-matrix:
 Charge =  0 Multiplicity = 1

                         Standard orientation:
 ---------------------------------------------------------------------
 Center     Atomic      Atomic             Coordinates (Angstroms)
 Number     Number       Type             X           Y           Z
 ---------------------------------------------------------------------
      1          8           0       -5.022950   -0.304706    0.491265
      2          6           0       -3.765954   -0.071281   -0.160842
      3          6           0       -3.202752    1.284398    0.231888
      4          8           0       -4.016871    2.318468   -0.339684
      5          1           0       -4.916943    2.189876    0.078113
      6          6           0       -1.758042    1.594001   -0.126822
      7          8           0       -1.175660    2.752477    0.487213
      8          1           0       -0.293181    2.919903    0.046934
      9          6           0       -3.187116   -2.509002   -0.277552
     10          8           0       -4.323580   -3.194472    0.268283
     11          1           0       -4.017328   -4.146878    0.290680
     12          6           0       -2.754047   -1.139749    0.221102
     13          8           0       -1.380642   -0.919978   -0.133169
     14          6           0       -0.903448    0.386629    0.220566
     15          8           0        0.264920    0.569574   -0.592261
     16          6           0        1.504047    0.239405    0.050835
     17          6           0        2.034908   -1.108616   -0.409855
     18          8           0        0.991094   -2.046977   -0.113050
     19          1           0        0.095238   -1.611650   -0.202896
     20          6           0        3.360918   -1.618578    0.131847
     21          8           0        3.796521   -2.800368   -0.556039
     22          1           0        4.580763   -3.256879   -0.136959
     23          6           0        2.260449    2.552420    0.199759
     24          8           0        1.403586    3.356461   -0.624332
     25          1           0        1.541334    4.323175   -0.407068
     26          6           0        2.655049    1.169895   -0.292818
     27          8           0        3.784183    0.783465    0.504538
     28          6           0        4.309130   -0.441309   -0.028019
     29          8           0        5.433793   -0.689628    0.827477
     30          1           0        6.204538   -0.892030    0.292139
     31          1           0        4.616858   -0.322754   -1.045933
     32          1           0        3.251508   -1.840751    1.172793
     33          1           0        2.129569   -1.061991   -1.474639
     34          1           0        1.362500    0.223585    1.111313
     35          1           0        2.879772    1.164570   -1.338940
     36          1           0        3.161768    3.105484    0.362986
     37          1           0        1.775800    2.430943    1.145941
     38          1           0       -5.694191   -0.497604   -0.167389
     39          1           0       -2.347202   -3.160517   -0.155190
     40          1           0       -3.362216   -2.412128   -1.328673
     41          1           0       -2.775410   -1.191964    1.289614
     42          1           0       -3.913628   -0.093808   -1.220363
     43          1           0       -3.286734    1.363056    1.295683
     44          1           0       -1.711277    1.732562   -1.186781
     45          1           0       -0.635546    0.412002    1.256175
 ---------------------------------------------------------------------

 SCF Done:  E(RB3LYP) =  -1297.97903755     A.U. after   13 cycles

 The electronic state is 1-A.
 Alpha  occ. eigenvalues --  -19.19488 -19.18532 -19.18307 -19.18274 -19.17626
 Alpha  occ. eigenvalues --  -19.17063 -19.16646 -19.16420 -19.15374 -19.14801
 Alpha  occ. eigenvalues --  -19.11848 -10.30582 -10.30046 -10.25685 -10.25656
 Alpha  occ. eigenvalues --  -10.25641 -10.24947 -10.24792 -10.24646 -10.24584
 Alpha  occ. eigenvalues --  -10.24417 -10.24121 -10.23153  -1.10671  -1.09158
 Alpha  occ. eigenvalues --   -1.05749  -1.05112  -1.04400  -1.03202  -1.03108
 Alpha  occ. eigenvalues --   -1.02654  -1.02270  -1.01031  -0.99254  -0.82178
 Alpha  occ. eigenvalues --   -0.80866  -0.78982  -0.78331  -0.71751  -0.70009
 Alpha  occ. eigenvalues --   -0.67273  -0.64965  -0.63291  -0.63014  -0.61198
 Alpha  occ. eigenvalues --   -0.59931  -0.56421  -0.55973  -0.55335  -0.54912
 Alpha  occ. eigenvalues --   -0.54420  -0.53527  -0.52779  -0.51611  -0.51259
 Alpha  occ. eigenvalues --   -0.50579  -0.50065  -0.49688  -0.48503  -0.46678
 Alpha  occ. eigenvalues --   -0.46011  -0.44802  -0.44183  -0.43920  -0.43077
 Alpha  occ. eigenvalues --   -0.42609  -0.41807  -0.41331  -0.40137  -0.39707
 Alpha  occ. eigenvalues --   -0.39236  -0.37716  -0.36968  -0.36637  -0.36042
 Alpha  occ. eigenvalues --   -0.35645  -0.35289  -0.34831  -0.33708  -0.32998
 Alpha  occ. eigenvalues --   -0.32270  -0.31657  -0.31391  -0.30725  -0.30152
 Alpha  occ. eigenvalues --   -0.28983  -0.28849  -0.28433  -0.28101  -0.27150
 Alpha  occ. eigenvalues --   -0.25166
 Alpha virt. eigenvalues --   -0.01815  -0.01767  -0.01604  -0.00197   0.00340
 Alpha virt. eigenvalues --    0.00918   0.01828   0.02031   0.03063   0.03343
 Alpha virt. eigenvalues --    0.03912   0.04490   0.04844   0.05468   0.05633

 Mulliken atomic charges:
              1
     1  O   -0.521940
     2  C   -0.076235
     3  C    0.220695
     4  O   -0.551129
     5  H    0.337268
     6  C   -0.112302
     7  O   -0.567711
     8  H    0.412022
     9  C   -0.309464
    10  O   -0.505982
    11  H    0.336893
    12  C    0.255986
    13  O   -0.283112
    14  C    0.240625
    15  O   -0.225728
    16  C   -0.019432
    17  C    0.320617
    18  O   -0.636810
    19  H    0.432858
    20  C    0.052449
    21  O   -0.557370
    22  H    0.337648
    23  C   -0.250129
    24  O   -0.570707
    25  H    0.356797
    26  C   -0.025279
    27  O   -0.224412
    28  C    0.148753
    29  O   -0.539224
    30  H    0.329731
    31  H    0.131790
    32  H    0.135658
    33  H    0.117220
    34  H    0.120091
    35  H    0.132764
    36  H    0.140840
    37  H    0.155050
    38  H    0.343185
    39  H    0.141490
    40  H    0.136516
    41  H    0.115528
    42  H    0.124335
    43  H    0.129232
    44  H    0.140250
    45  H    0.130677
 Sum of Mulliken atomic charges =   0.00000

 Dipole moment (field-independent basis, Debye):
    X=              1.8554    Y=             -0.0517    Z=             -1.0711  Tot=              2.1430
 Quadrupole moment (field-independent basis, Debye-Ang):
   XX=           -116.3698   YY=           -133.3712   ZZ=           -142.2927
   XY=              8.6216   XZ=             -0.9797   YZ=             -0.2776

  Exact polarizability: 233.257  -2.312 197.412   0.103   0.049 143.669
 Approx polarizability: 273.624  -2.233 256.493  -0.890  -1.296 239.761

 ******    7 imaginary frequencies (negative Signs) ******

                     1                      2                      3
                     A                      A                      A
 Frequencies --  -309.2236              -305.3303              -241.5203
 Red. masses --     1.6558                 1.1549                 1.8673
 Frc consts  --     0.0933                 0.0634                 0.0642
 IR Inten    --     8.1431               113.1170                 7.6893
 Raman Activ --     0.1361                 1.1842                 0.0426

                     4                      5                      6
                     A                      A                      A
 Frequencies --  -224.0479               -91.7902               -53.6074
 Red. masses --     1.1758                 6.8739                 6.1560
 Frc consts  --     0.0348                 0.0341                 0.0104
 IR Inten    --   100.2830                 1.7751                 0.0981
 Raman Activ --     0.7046                 0.0212                 0.0205

                     7                      8                      9
                     A                      A                      A
 Frequencies --   -13.3756                49.6581                75.7022
 Red. masses --     6.6204                 6.2406                 6.5118
 Frc consts  --     0.0007                 0.0091                 0.0220
 IR Inten    --     0.8096                 2.2481                 0.1171
 Raman Activ --     0.0101                 0.0382                 0.0253

                    10                     11                     12
                     A                      A                      A
 Frequencies --    78.8897                98.5633               127.1263
 Red. masses --     6.1197                 6.4852                 6.2192
 Frc consts  --     0.0224                 0.0371                 0.0592
 IR Inten    --     3.3970                 0.9615                 4.4806
 Raman Activ --     0.2797                 0.1961                 0.0856

                    13                     14                     15
                     A                      A                      A
 Frequencies --   144.2336               180.3286               197.3135
 Red. masses --     6.2886                 6.8469                 5.7027
 Frc consts  --     0.0771                 0.1312                 0.1308
 IR Inten    --     2.0939                 0.2476                 2.8528
 Raman Activ --     0.4768                 0.0981                 0.1014

                    16                     17                     18
                     A                      A                      A
 Frequencies --   205.5218               235.9299               249.8331
 Red. masses --     6.8481                 6.2052                 4.8744
 Frc consts  --     0.1704                 0.2035                 0.1793
 IR Inten    --     0.5083                 2.4648                15.3847
 Raman Activ --     2.4468                 1.4531                 0.1288

                    19                     20                     21
                     A                      A                      A
 Frequencies --   273.0732               282.6214               303.0498
 Red. masses --     4.8245                 5.7412                 6.9034
 Frc consts  --     0.2120                 0.2702                 0.3735
 IR Inten    --     0.7697                 5.0765                 4.7511
 Raman Activ --     0.0913                 0.2649                 0.5386

                    22                     23                     24
                     A                      A                      A
 Frequencies --   312.0228               321.8370               336.0344
 Red. masses --     6.0613                 5.2427                 6.7814
 Frc consts  --     0.3477                 0.3199                 0.4512
 IR Inten    --     1.7601                 2.5287                 7.4850
 Raman Activ --     4.0037                 1.0369                 4.0548

                    25                     26                     27
                     A                      A                      A
 Frequencies --   337.2156               367.3306               383.1097
 Red. masses --     4.8278                 5.5089                 5.6937
 Frc consts  --     0.3235                 0.4380                 0.4924
 IR Inten    --     1.8917                 2.0546                 2.5815
 Raman Activ --     2.7169                 0.3728                 0.4078

                    28                     29                     30
                     A                      A                      A
 Frequencies --   408.0969               412.6358               448.0861
 Red. masses --     5.8578                 4.9047                 4.9924
 Frc consts  --     0.5748                 0.4920                 0.5906
 IR Inten    --     7.4878                13.0366                 0.9815
 Raman Activ --     5.0333                 2.8245                 0.7881

                    31                     32                     33
                     A                      A                      A
 Frequencies --   461.7231               482.9891               499.4339
 Red. masses --     5.6291                 4.4406                 4.1132
 Frc consts  --     0.7070                 0.6103                 0.6045
 IR Inten    --     3.7201                 3.0963                14.8894
 Raman Activ --     2.5678                 3.0394                 1.8932

                    34                     35                     36
                     A                      A                      A
 Frequencies --   525.4489               541.7428               566.3137
 Red. masses --     3.2639                 3.5643                 4.5291
 Frc consts  --     0.5309                 0.6163                 0.8558
 IR Inten    --     2.4617                16.1716                11.0624
 Raman Activ --     4.6862                 0.8673                 2.4773

                    37                     38                     39
                     A                      A                      A
 Frequencies --   588.8077               592.2779               619.6018
 Red. masses --     4.0968                 4.1551                 4.2088
 Frc consts  --     0.8368                 0.8588                 0.9520
 IR Inten    --    15.3777                10.9465                23.4410
 Raman Activ --     0.5668                 0.8010                 0.8138

                    40                     41                     42
                     A                      A                      A
 Frequencies --   648.6274               681.7807               687.1506
 Red. masses --     3.9691                 1.0629                 5.1399
 Frc consts  --     0.9839                 0.2911                 1.4299
 IR Inten    --    53.1150                80.1187                16.1974
 Raman Activ --     1.6838                 1.6547                 2.1251

                    43                     44                     45
                     A                      A                      A
 Frequencies --   709.7343               746.5149               771.2501
 Red. masses --     1.0885                 1.0739                 1.0950
 Frc consts  --     0.3231                 0.3526                 0.3837
 IR Inten    --    91.0133               121.1927                98.1972
 Raman Activ --     1.2780                 1.7102                 1.5688

                    46                     47                     48
                     A                      A                      A
 Frequencies --   794.8815               843.4451               863.9418
 Red. masses --     1.0808                 1.7767                 1.2835
 Frc consts  --     0.4024                 0.7447                 0.5645
 IR Inten    --    61.9756                 4.5994                37.2099
 Raman Activ --     1.0801                 0.6317                 0.1267

                    49                     50                     51
                     A                      A                      A
 Frequencies --   888.7771               937.2070               964.1553
 Red. masses --     1.3878                 5.5747                 5.3028
 Frc consts  --     0.6459                 2.8850                 2.9043
 IR Inten    --    30.7798               113.0012               124.4979
 Raman Activ --     0.4117                 2.6339                 0.7303

                    52                     53                     54
                     A                      A                      A
 Frequencies --   975.1713               987.0101               993.8506
 Red. masses --     7.9719                 5.7447                 5.1640
 Frc consts  --     4.4665                 3.2973                 3.0053
 IR Inten    --   170.7043               117.4616                21.4431
 Raman Activ --     1.4855                 2.9635                 0.7270

                    55                     56                     57
                     A                      A                      A
 Frequencies --   999.2274              1019.7873              1026.3754
 Red. masses --     6.0351                 6.8657                 5.8758
 Frc consts  --     3.5503                 4.2068                 3.6470
 IR Inten    --   355.7332                19.4552               176.0621
 Raman Activ --     4.2993                 3.1305                 2.8356

                    58                     59                     60
                     A                      A                      A
 Frequencies --  1031.4271              1047.9316              1055.6564
 Red. masses --     5.0879                 6.4579                 6.1887
 Frc consts  --     3.1891                 4.1784                 4.0634
 IR Inten    --   211.1585               100.4233               130.9961
 Raman Activ --     2.5684                 2.2933                 0.2973

                    61                     62                     63
                     A                      A                      A
 Frequencies --  1060.8066              1065.8644              1073.7199
 Red. masses --     5.3705                 4.1056                 3.1928
 Frc consts  --     3.5607                 2.7481                 2.1687
 IR Inten    --    43.2166                26.7586                32.5696
 Raman Activ --     2.0785                 5.1763                28.8830

                    64                     65                     66
                     A                      A                      A
 Frequencies --  1101.5060              1106.6948              1108.9833
 Red. masses --     2.4750                 2.8803                 2.8675
 Frc consts  --     1.7693                 2.0785                 2.0778
 IR Inten    --    33.0645                15.7013                30.9641
 Raman Activ --     2.2839                 9.3255                 1.4139

                    67                     68                     69
                     A                      A                      A
 Frequencies --  1118.9778              1124.3948              1135.0005
 Red. masses --     2.4387                 2.7084                 2.0746
 Frc consts  --     1.7991                 2.0174                 1.5746
 IR Inten    --     5.3517                 9.2667                 3.0517
 Raman Activ --     1.9319                 6.8584                 5.5241

                    70                     71                     72
                     A                      A                      A
 Frequencies --  1141.6992              1144.4606              1150.5366
 Red. masses --     3.0079                 2.2256                 1.5722
 Frc consts  --     2.3100                 1.7175                 1.2262
 IR Inten    --     4.5902                47.9591                 5.6466
 Raman Activ --     7.4714                 3.3712                 2.2262

                    73                     74                     75
                     A                      A                      A
 Frequencies --  1164.8617              1171.4619              1190.4642
 Red. masses --     1.7525                 2.2094                 1.5945
 Frc consts  --     1.4011                 1.7864                 1.3314
 IR Inten    --     0.8515                12.5293                16.4779
 Raman Activ --     4.7149                 2.4085                 2.5858

                    76                     77                     78
                     A                      A                      A
 Frequencies --  1193.3848              1216.4139              1228.6675
 Red. masses --     1.4363                 1.3185                 1.2416
 Frc consts  --     1.2052                 1.1495                 1.1043
 IR Inten    --    11.8590                11.4865                12.5242
 Raman Activ --     3.0983                 0.5095                 1.5588

                    79                     80                     81
                     A                      A                      A
 Frequencies --  1234.6232              1241.0785              1266.0858
 Red. masses --     1.2977                 1.2494                 1.1361
 Frc consts  --     1.1655                 1.1338                 1.0730
 IR Inten    --    23.9726                25.1944                 8.9254
 Raman Activ --     1.8750                 0.2271                 1.5789

                    82                     83                     84
                     A                      A                      A
 Frequencies --  1271.9503              1275.4144              1288.0908
 Red. masses --     1.2002                 1.1596                 1.4450
 Frc consts  --     1.1441                 1.1113                 1.4126
 IR Inten    --     4.8728                 4.4925                28.4661
 Raman Activ --     0.4528                 4.7835                 1.7173

                    85                     86                     87
                     A                      A                      A
 Frequencies --  1299.2008              1308.1454              1311.8832
 Red. masses --     1.3439                 1.3194                 1.4155
 Frc consts  --     1.3365                 1.3303                 1.4353
 IR Inten    --    10.4124                19.6492                19.5176
 Raman Activ --     0.8005                 4.9984                 0.1952

                    88                     89                     90
                     A                      A                      A
 Frequencies --  1319.5426              1329.4807              1333.0612
 Red. masses --     1.3348                 1.3271                 1.2433
 Frc consts  --     1.3693                 1.3820                 1.3017
 IR Inten    --     4.2926                19.7650                14.4535
 Raman Activ --     6.7440                 2.1550                 7.4601

                    91                     92                     93
                     A                      A                      A
 Frequencies --  1336.7120              1347.1509              1353.0048
 Red. masses --     1.3608                 1.2688                 1.4420
 Frc consts  --     1.4325                 1.3566                 1.5553
 IR Inten    --    35.2737                18.3876                11.5645
 Raman Activ --     7.6187                 7.6454                 4.8031

                    94                     95                     96
                     A                      A                      A
 Frequencies --  1358.8101              1365.0185              1370.7133
 Red. masses --     1.2061                 1.5111                 1.5059
 Frc consts  --     1.3120                 1.6589                 1.6670
 IR Inten    --    32.9992                11.9531                 6.4182
 Raman Activ --     1.4537                 5.0233                 7.4832

                    97                     98                     99
                     A                      A                      A
 Frequencies --  1378.0239              1392.7552              1398.8725
 Red. masses --     1.2208                 1.3725                 1.4734
 Frc consts  --     1.3659                 1.5687                 1.6988
 IR Inten    --    23.1230                22.3576                 4.9503
 Raman Activ --     2.5680                 2.8139                 6.5758

                   100                    101                    102
                     A                      A                      A
 Frequencies --  1409.7898              1458.2671              1463.5988
 Red. masses --     1.3089                 1.3146                 1.3269
 Frc consts  --     1.5328                 1.6471                 1.6747
 IR Inten    --    12.8756                46.3605                 7.7829
 Raman Activ --     3.2801                 2.2854                 1.2488

                   103                    104                    105
                     A                      A                      A
 Frequencies --  1467.0458              1485.4666              1493.1338
 Red. masses --     1.0801                 1.0898                 1.2553
 Frc consts  --     1.3697                 1.4168                 1.6489
 IR Inten    --     4.7219                 3.3890                76.0464
 Raman Activ --     4.9328                 3.9584                 3.1722

                   106                    107                    108
                     A                      A                      A
 Frequencies --  1495.3049              1501.3608              3251.6773
 Red. masses --     1.3236                 1.2543                 1.0597
 Frc consts  --     1.7436                 1.6658                 6.6019
 IR Inten    --    58.4976                20.7945                12.4829
 Raman Activ --     0.6886                 3.2077                72.6518

                   109                    110                    111
                     A                      A                      A
 Frequencies --  3254.0426              3260.9197              3267.2520
 Red. masses --     1.0613                 1.0732                 1.0809
 Frc consts  --     6.6213                 6.7239                 6.7983
 IR Inten    --    86.7185               290.6659                 6.1161
 Raman Activ --    20.2506               181.0941                62.7706

                   112                    113                    114
                     A                      A                      A
 Frequencies --  3270.7484              3273.6581              3281.3631
 Red. masses --     1.0735                 1.0785                 1.0805
 Frc consts  --     6.7663                 6.8098                 6.8545
 IR Inten    --   240.9452                56.0124               254.4202
 Raman Activ --   311.4425                91.6334                20.6314

                   115                    116                    117
                     A                      A                      A
 Frequencies --  3284.0533              3287.0134              3288.0060
 Red. masses --     1.0815                 1.0835                 1.0831
 Frc consts  --     6.8725                 6.8971                 6.8990
 IR Inten    --   265.0656               126.4535               194.1002
 Raman Activ --    11.2406                67.7017                38.7033

                   118                    119                    120
                     A                      A                      A
 Frequencies --  3292.0641              3295.4061              3300.3667
 Red. masses --     1.0844                 1.0867                 1.0880
 Frc consts  --     6.9244                 6.9531                 6.9821
 IR Inten    --   136.2666                47.3052                29.9748
 Raman Activ --   162.7260                27.8069                19.6565

                   121                    122                    123
                     A                      A                      A
 Frequencies --  3304.6503              3306.2699              3314.0516
 Red. masses --     1.0896                 1.0994                 1.1028
 Frc consts  --     7.0108                 7.0807                 7.1362
 IR Inten    --    38.3503               118.0376                59.6255
 Raman Activ --    21.2984                27.9114                23.4640

                   124                    125                    126
                     A                      A                      A
 Frequencies --  3361.7017              3364.7765              3368.7007
 Red. masses --     1.0653                 1.0689                 1.0677
 Frc consts  --     7.0929                 7.1304                 7.1390
 IR Inten    --    27.3445                38.9823                61.1384
 Raman Activ --   111.3567               122.5321               134.5741

                   127                    128                    129
                     A                      A                      A
 Frequencies --  3377.6910              3891.0977              3892.0316
 Red. masses --     1.0673                 1.0673                 1.0676
 Frc consts  --     7.1740                 9.5212                 9.5282
 IR Inten    --    46.6291                70.4625                79.1949
 Raman Activ --   189.8727               108.0259                98.6906

 - Thermochemistry -
 -------------------
 Temperature   298.150 Kelvin.  Pressure   1.00000 Atm.
 Atom     1 has atomic number  8 and mass  15.99491

 Molecular mass:   342.11621 amu.
 Principal axes and moments of inertia in atomic units:
                           1         2         3
     Eigenvalues --  4446.28121********************
           X            0.99998   0.00606  -0.00010
           Y           -0.00606   0.99998   0.00249
           Z            0.00012  -0.00249   1.00000
 This molecule is an asymmetric top.
 Rotational symmetry number  1.
 Warning -- assumption of classical behavior for rotation
           may cause significant error
 Rotational temperatures (Kelvin)      0.01948     0.00704     0.00533
 Rotational constants (GHZ):           0.40590     0.14660     0.11098
    7 imaginary frequencies ignored.
 Zero-point vibrational energy     976269.3 (Joules/Mol)
                                  233.33396 (Kcal/Mol)
 Warning -- explicit consideration of  32 degrees of freedom as
           vibrations may cause significant error
 Vibrational temperatures:     71.45   108.92   113.50   141.81   182.91
          (Kelvin)            207.52   259.45   283.89   295.70   339.45
                              359.45   392.89   406.63   436.02   448.93
                              463.05   483.48   485.18   528.51   551.21
                              587.16   593.69   644.70   664.32   694.91
                              718.57   756.00   779.45   814.80   847.16
                              852.15   891.47   933.23   980.93   988.66
                             1021.15  1074.07  1109.66  1143.66  1213.53
                             1243.02  1278.75  1348.43  1387.20  1403.05
                             1420.09  1429.93  1437.66  1467.24  1476.72
                             1483.99  1507.74  1518.85  1526.26  1533.54
                             1544.84  1584.82  1592.28  1595.58  1609.96
                             1617.75  1633.01  1642.65  1646.62  1655.36
                             1675.97  1685.47  1712.81  1717.01  1750.15
                             1767.78  1776.35  1785.63  1821.61  1830.05
                             1835.03  1853.27  1869.26  1882.13  1887.50
                             1898.53  1912.82  1917.98  1923.23  1938.25
                             1946.67  1955.02  1963.95  1972.15  1982.67
                             2003.86  2012.66  2028.37  2098.12  2105.79
                             2110.75  2137.25  2148.28  2151.41  2160.12
                             4678.43  4681.84  4691.73  4700.84  4705.87
                             4710.06  4721.14  4725.01  4729.27  4730.70
                             4736.54  4741.35  4748.49  4754.65  4756.98
                             4768.18  4836.73  4841.16  4846.80  4859.74
                             5598.41  5599.76

 Zero-point correction=                           0.371841 (Hartree/Particle)
 Thermal correction to Energy=                    0.390006
 Thermal correction to Enthalpy=                  0.390950
 Thermal correction to Gibbs Free Energy=         0.326675
 Sum of electronic and zero-point Energies=          -1297.607196
 Sum of electronic and thermal Energies=             -1297.589032
 Sum of electronic and thermal Enthalpies=           -1297.588088
 Sum of electronic and thermal Free Energies=        -1297.652362

                     E (Thermal)             CV                S
                      KCal/Mol        Cal/Mol-Kelvin    Cal/Mol-Kelvin
 Total                  244.732             75.487            135.277
 Electronic               0.000              0.000              0.000
 Translational            0.889              2.981             43.384
 Rotational               0.889              2.981             35.142
 Vibrational            242.955             69.525             56.751
 Vibration     1          0.595              1.978              4.831
 Vibration     2          0.599              1.965              3.999
 Vibration     3          0.600              1.963              3.918
 Vibration     4          0.604              1.950              3.483
 Vibration     5          0.611              1.926              2.989
 Vibration     6          0.616              1.909              2.747
 Vibration     7          0.629              1.866              2.325
 Vibration     8          0.637              1.844              2.158
 Vibration     9          0.640              1.832              2.083
 Vibration    10          0.655              1.786              1.833
 Vibration    11          0.663              1.763              1.732
 Vibration    12          0.676              1.723              1.577
 Vibration    13          0.682              1.706              1.518
 Vibration    14          0.694              1.668              1.400
 Vibration    15          0.700              1.651              1.352
 Vibration    16          0.707              1.632              1.301
 Vibration    17          0.717              1.604              1.231
 Vibration    18          0.718              1.601              1.225
 Vibration    19          0.740              1.539              1.091
 Vibration    20          0.752              1.506              1.027
 Vibration    21          0.773              1.453              0.933
 Vibration    22          0.776              1.443              0.917
 Vibration    23          0.807              1.365              0.802
 Vibration    24          0.819              1.335              0.761
 Vibration    25          0.839              1.288              0.702
 Vibration    26          0.855              1.251              0.660
 Vibration    27          0.880              1.194              0.597
 Vibration    28          0.897              1.158              0.562
 Vibration    29          0.922              1.104              0.511
 Vibration    30          0.946              1.056              0.469
 Vibration    31          0.950              1.048              0.463
 Vibration    32          0.980              0.991              0.417

 Normal termination of Gaussian 09 at Mon Mar 21 23:00:26 2016.
