 Gaussian 09, Revision B.01,
 Gaussian 09:  EM64L-G09RevB.01 12-Aug-2010

 -------------------------------------------------
 # freq=raman b3lyp/6-31+g(2d,p) geom=connectivity
 -------------------------------------------------

 -----------------
 310 9644/9644.com
 -----------------
 Symbolic Z-matrix:
 Charge =  0 Multiplicity = 1

                         Standard orientation:
 ---------------------------------------------------------------------
 Center     Atomic      Atomic             Coordinates (Angstroms)
 Number     Number       Type             X           Y           Z
 ---------------------------------------------------------------------
      1          8           0       -5.044365   -0.305522    0.476683
      2          6           0       -3.719740   -0.100943   -0.036216
      3          6           0       -3.214335    1.262126    0.408064
      4          8           0       -4.043439    2.317866   -0.097633
      5          1           0       -4.979600    1.989679    0.028399
      6          6           0       -1.804537    1.531856   -0.091920
      7          8           0       -1.279145    2.814049    0.281419
      8          1           0       -0.402890    2.968605   -0.176494
      9          6           0       -3.077937   -2.590904   -0.085150
     10          8           0       -4.327821   -3.249209    0.169766
     11          1           0       -4.195562   -4.232176    0.034509
     12          6           0       -2.694090   -1.171968    0.299475
     13          8           0       -1.424722   -0.841547   -0.283369
     14          6           0       -0.852417    0.383479    0.197651
     15          8           0        0.284550    0.586251   -0.654766
     16          6           0        1.551413    0.238919   -0.077860
     17          6           0        2.039067   -1.134190   -0.510582
     18          8           0        1.039816   -2.163705   -0.565864
     19          1           0        0.207372   -1.854154   -1.026257
     20          6           0        3.316713   -1.534480    0.208788
     21          8           0        3.878833   -2.817286   -0.105299
     22          1           0        4.691058   -2.937317    0.465091
     23          6           0        2.347777    2.567826    0.009003
     24          8           0        1.148202    3.270120   -0.347577
     25          1           0        1.223577    4.234137   -0.091928
     26          6           0        2.692592    1.165547   -0.464864
     27          8           0        3.849330    0.815436    0.309230
     28          6           0        4.385748   -0.476066   -0.012392
     29          8           0        5.375985   -0.577662    1.022190
     30          1           0       -5.642806   -0.495890   -0.249423
     31          1           0       -2.764023   -2.646648   -1.106546
     32          1           0       -3.911709   -1.925270   -0.003558
     33          1           0       -2.566152   -1.159834    1.361730
     34          1           0       -3.800911   -0.073094   -1.102769
     35          1           0       -3.216671    1.300891    1.477359
     36          1           0       -1.887875    1.564629   -1.158166
     37          1           0       -0.579898    0.328308    1.230893
     38          1           0        6.233118   -0.756022    0.628349
     39          1           0        2.336733   -1.001424   -1.529733
     40          1           0        3.093249   -1.541730    1.255169
     41          1           0        4.811626   -0.511194   -0.993357
     42          1           0        1.452623    0.246034    0.987546
     43          1           0        2.892769    1.138005   -1.515611
     44          1           0        3.160672    3.193323   -0.295718
     45          1           0        2.366000    2.533599    1.078301
 ---------------------------------------------------------------------

 SCF Done:  E(RB3LYP) =  -1297.77093304     A.U. after   13 cycles

 The electronic state is 1-A.
 Alpha  occ. eigenvalues --  -19.18894 -19.18697 -19.18579 -19.18297 -19.18245
 Alpha  occ. eigenvalues --  -19.18111 -19.17929 -19.16270 -19.15103 -19.13789
 Alpha  occ. eigenvalues --  -19.12198 -10.30967 -10.30164 -10.28259 -10.26487
 Alpha  occ. eigenvalues --  -10.25373 -10.25340 -10.25178 -10.24975 -10.24301
 Alpha  occ. eigenvalues --  -10.24062 -10.23334 -10.20709  -1.10008  -1.09487
 Alpha  occ. eigenvalues --   -1.07124  -1.05711  -1.05594  -1.03910  -1.03502
 Alpha  occ. eigenvalues --   -1.02653  -1.02089  -1.00222  -0.99048  -0.83793
 Alpha  occ. eigenvalues --   -0.81759  -0.79788  -0.78818  -0.72862  -0.70505
 Alpha  occ. eigenvalues --   -0.67307  -0.64938  -0.63315  -0.63032  -0.61691
 Alpha  occ. eigenvalues --   -0.60317  -0.57019  -0.56041  -0.55641  -0.55421
 Alpha  occ. eigenvalues --   -0.54584  -0.53945  -0.52944  -0.51609  -0.51254
 Alpha  occ. eigenvalues --   -0.50650  -0.50144  -0.49483  -0.48450  -0.46756
 Alpha  occ. eigenvalues --   -0.46125  -0.45385  -0.44897  -0.43459  -0.43226
 Alpha  occ. eigenvalues --   -0.41853  -0.41409  -0.41089  -0.40260  -0.39362
 Alpha  occ. eigenvalues --   -0.38488  -0.38368  -0.37419  -0.36298  -0.36004
 Alpha  occ. eigenvalues --   -0.35480  -0.35049  -0.34655  -0.33513  -0.33289
 Alpha  occ. eigenvalues --   -0.33069  -0.31938  -0.31115  -0.30467  -0.29914
 Alpha  occ. eigenvalues --   -0.29392  -0.27938  -0.27627  -0.26331  -0.25781
 Alpha  occ. eigenvalues --   -0.20326
 Alpha virt. eigenvalues --   -0.03534  -0.01972  -0.01897  -0.00892   0.00014
 Alpha virt. eigenvalues --    0.00894   0.01829   0.02322   0.03042   0.03430
 Alpha virt. eigenvalues --    0.03927   0.04292   0.04656   0.04980   0.05523

 Mulliken atomic charges:
              1
     1  O   -0.570697
     2  C   -0.164170
     3  C    0.362249
     4  O   -0.545170
     5  H    0.336319
     6  C   -0.209276
     7  O   -0.602740
     8  H    0.425018
     9  C   -0.457048
    10  O   -0.514031
    11  H    0.334973
    12  C    0.084536
    13  O   -0.241903
    14  C    0.428743
    15  O   -0.236946
    16  C    0.197283
    17  C    0.072376
    18  O   -0.531282
    19  H    0.358209
    20  C    0.073917
    21  O   -0.541540
    22  H    0.336834
    23  C   -0.315775
    24  O   -0.567488
    25  H    0.360815
    26  C   -0.000661
    27  O   -0.203419
    28  C    0.125870
    29  O   -0.529274
    30  H    0.359151
    31  H    0.128469
    32  H    0.380162
    33  H    0.129294
    34  H    0.141364
    35  H    0.122156
    36  H    0.125370
    37  H    0.123782
    38  H    0.331763
    39  H    0.092484
    40  H    0.124989
    41  H    0.138415
    42  H    0.105329
    43  H    0.129879
    44  H    0.142800
    45  H    0.158871
 Sum of Mulliken atomic charges =   0.00000

 Dipole moment (field-independent basis, Debye):
    X=              2.4603    Y=              0.4488    Z=             -1.4967  Tot=              2.9146
 Quadrupole moment (field-independent basis, Debye-Ang):
   XX=           -107.2878   YY=           -142.4384   ZZ=           -139.3805
   XY=             15.3824   XZ=              2.8757   YZ=             -0.7724

  Exact polarizability: 237.921   2.925 206.804   1.782   1.114 145.061
 Approx polarizability: 284.597   1.139 272.849   2.213   0.846 242.643

 ******    8 imaginary frequencies (negative Signs) ******

                     1                      2                      3
                     A                      A                      A
 Frequencies -- -1125.3445              -558.4818              -294.5146
 Red. masses --     1.0755                 4.5783                 1.7764
 Frc consts  --     0.8025                 0.8413                 0.0908
 IR Inten    --   101.0745                23.6594                 2.3082
 Raman Activ --    59.8455                 1.7211                 0.0290

                     4                      5                      6
                     A                      A                      A
 Frequencies --  -210.7179              -162.2916               -92.0710
 Red. masses --     1.2022                 6.8769                 6.5283
 Frc consts  --     0.0315                 0.1067                 0.0326
 IR Inten    --   102.9565                 8.2428                 0.9359
 Raman Activ --     0.7715                 0.3413                 0.1767

                     7                      8                      9
                     A                      A                      A
 Frequencies --   -60.6970               -40.9856                31.3262
 Red. masses --     6.0204                 6.2836                 6.3646
 Frc consts  --     0.0131                 0.0062                 0.0037
 IR Inten    --     2.4393                 0.5359                 0.2544
 Raman Activ --     0.0721                 0.0969                 0.6340

                    10                     11                     12
                     A                      A                      A
 Frequencies --    45.7786                67.7801               121.8032
 Red. masses --     5.6346                 6.6948                 5.8839
 Frc consts  --     0.0070                 0.0181                 0.0514
 IR Inten    --     2.0687                 0.7249                 1.2903
 Raman Activ --     0.0334                 0.2090                 0.0397

                    13                     14                     15
                     A                      A                      A
 Frequencies --   140.7341               162.8506               180.8894
 Red. masses --     6.7985                 5.8262                 2.0476
 Frc consts  --     0.0793                 0.0910                 0.0395
 IR Inten    --     7.1464                 8.4022                90.1103
 Raman Activ --     0.2520                 0.8993                 0.9394

                    16                     17                     18
                     A                      A                      A
 Frequencies --   192.8523               204.4019               229.3176
 Red. masses --     4.5859                 5.5809                 5.0873
 Frc consts  --     0.1005                 0.1374                 0.1576
 IR Inten    --     6.4524                14.3456                12.7280
 Raman Activ --     1.0316                 1.0421                 2.8283

                    19                     20                     21
                     A                      A                      A
 Frequencies --   243.9526               265.5827               279.7390
 Red. masses --     6.1311                 4.5274                 4.8270
 Frc consts  --     0.2150                 0.1881                 0.2226
 IR Inten    --     4.2736                 0.5641                 2.6197
 Raman Activ --     0.3711                 1.2197                 0.4955

                    22                     23                     24
                     A                      A                      A
 Frequencies --   299.0032               300.3904               312.9567
 Red. masses --     2.5146                 5.1498                 6.5310
 Frc consts  --     0.1325                 0.2738                 0.3769
 IR Inten    --     5.7449                 1.3557                 4.3694
 Raman Activ --     0.0392                 0.3152                 4.8594

                    25                     26                     27
                     A                      A                      A
 Frequencies --   323.8812               347.7865               370.7259
 Red. masses --     4.9479                 5.7175                 4.2112
 Frc consts  --     0.3058                 0.4075                 0.3410
 IR Inten    --     2.9863                12.8013                 0.2290
 Raman Activ --     2.3702                 1.2515                 0.4343

                    28                     29                     30
                     A                      A                      A
 Frequencies --   390.2645               402.6752               408.9538
 Red. masses --     6.5725                 6.1194                 6.1536
 Frc consts  --     0.5898                 0.5846                 0.6064
 IR Inten    --     4.7416                 0.2498                 6.0745
 Raman Activ --     2.7425                 2.0579                 7.8164

                    31                     32                     33
                     A                      A                      A
 Frequencies --   433.6733               447.9909               459.1772
 Red. masses --     6.5793                 3.9327                 4.8378
 Frc consts  --     0.7290                 0.4650                 0.6010
 IR Inten    --     0.0296                17.1846                 1.5880
 Raman Activ --     2.5364                 4.3699                 2.3509

                    34                     35                     36
                     A                      A                      A
 Frequencies --   490.9147               506.3710               542.3128
 Red. masses --     5.0901                 3.4793                 3.1499
 Frc consts  --     0.7227                 0.5256                 0.5458
 IR Inten    --     4.8453                18.7653                14.8032
 Raman Activ --     0.5906                 2.8141                 3.0071

                    37                     38                     39
                     A                      A                      A
 Frequencies --   568.0753               577.0493               594.9709
 Red. masses --     3.5720                 1.3931                 3.6166
 Frc consts  --     0.6792                 0.2733                 0.7543
 IR Inten    --    10.8268                78.7914                39.8989
 Raman Activ --     3.1106                 6.7483                 0.7575

                    40                     41                     42
                     A                      A                      A
 Frequencies --   597.8207               612.0460               628.5913
 Red. masses --     2.7941                 5.7637                 3.7912
 Frc consts  --     0.5883                 1.2721                 0.8826
 IR Inten    --    51.8324                21.8601                 3.4423
 Raman Activ --     0.3203                 1.3334                 0.7443

                    43                     44                     45
                     A                      A                      A
 Frequencies --   675.7644               681.1789               686.3629
 Red. masses --     1.9669                 1.5508                 1.1242
 Frc consts  --     0.5292                 0.4240                 0.3120
 IR Inten    --   114.2470                33.9314               171.5828
 Raman Activ --     0.9339                 5.4108                 2.2456

                    46                     47                     48
                     A                      A                      A
 Frequencies --   735.3764               769.9457               772.8058
 Red. masses --     1.0686                 1.0753                 1.0663
 Frc consts  --     0.3405                 0.3756                 0.3752
 IR Inten    --    90.1508               145.6256                90.2875
 Raman Activ --     1.6273                 2.0724                 1.4922

                    49                     50                     51
                     A                      A                      A
 Frequencies --   865.2183               915.6525               926.3607
 Red. masses --     1.7389                 4.6129                 4.4570
 Frc consts  --     0.7670                 2.2787                 2.2535
 IR Inten    --     4.4266               239.8680                56.2403
 Raman Activ --     0.3420                 8.6945                19.3081

                    52                     53                     54
                     A                      A                      A
 Frequencies --   938.0381               955.7127               967.1841
 Red. masses --     5.5769                 4.5251                 5.7920
 Frc consts  --     2.8912                 2.4352                 3.1923
 IR Inten    --    73.3135               202.5925               109.8013
 Raman Activ --     2.2329                 5.4814                 2.7755

                    55                     56                     57
                     A                      A                      A
 Frequencies --   980.6268               982.1586               999.6669
 Red. masses --     4.9919                 5.6853                 5.1179
 Frc consts  --     2.8283                 3.2312                 3.0134
 IR Inten    --     9.6316               441.4289                12.1349
 Raman Activ --     2.2394                 0.1594                 6.8938

                    58                     59                     60
                     A                      A                      A
 Frequencies --  1010.2958              1013.9828              1038.6536
 Red. masses --     5.5011                 4.7933                 2.0297
 Frc consts  --     3.3082                 2.9037                 1.2901
 IR Inten    --    50.9196               108.2857                26.7657
 Raman Activ --     4.6949                 2.5700                 9.7071

                    61                     62                     63
                     A                      A                      A
 Frequencies --  1048.6160              1052.4164              1064.7294
 Red. masses --     2.7412                 4.6517                 4.1737
 Frc consts  --     1.7760                 3.0355                 2.7878
 IR Inten    --    37.1191               224.7957                13.9801
 Raman Activ --    23.5330                 2.0686                 7.6470

                    64                     65                     66
                     A                      A                      A
 Frequencies --  1074.9470              1093.0941              1098.5062
 Red. masses --     3.5592                 3.2970                 2.7161
 Frc consts  --     2.4231                 2.3211                 1.9311
 IR Inten    --     1.4272                18.2298                35.6571
 Raman Activ --    14.0623                 5.9702                 8.5345

                    67                     68                     69
                     A                      A                      A
 Frequencies --  1101.5481              1117.6184              1125.5146
 Red. masses --     2.8934                 2.6156                 2.9966
 Frc consts  --     2.0685                 1.9249                 2.2366
 IR Inten    --    93.5553                31.1288                38.3601
 Raman Activ --     3.4271                 4.3562                 7.5488

                    70                     71                     72
                     A                      A                      A
 Frequencies --  1130.2538              1137.4665              1143.2149
 Red. masses --     2.1643                 2.0539                 2.3542
 Frc consts  --     1.6290                 1.5657                 1.8128
 IR Inten    --     6.2091                86.7763                58.8622
 Raman Activ --     2.8471                 3.2097                 6.6461

                    73                     74                     75
                     A                      A                      A
 Frequencies --  1144.2901              1158.5799              1168.5615
 Red. masses --     1.9493                 1.8787                 2.4654
 Frc consts  --     1.5039                 1.4858                 1.9835
 IR Inten    --    17.2995                 5.1874                48.4240
 Raman Activ --     3.3260                 1.0110                 4.1432

                    76                     77                     78
                     A                      A                      A
 Frequencies --  1189.4006              1205.9029              1212.2297
 Red. masses --     1.8065                 1.3863                 1.3254
 Frc consts  --     1.5057                 1.1877                 1.1476
 IR Inten    --    13.0121                23.5497                20.6175
 Raman Activ --     2.1002                 6.0678                 0.9306

                    79                     80                     81
                     A                      A                      A
 Frequencies --  1224.2587              1225.5406              1241.4173
 Red. masses --     1.3283                 1.2929                 1.2653
 Frc consts  --     1.1730                 1.1441                 1.1489
 IR Inten    --     7.4647                20.4894                 1.7686
 Raman Activ --     0.7480                 4.3468                 2.9568

                    82                     83                     84
                     A                      A                      A
 Frequencies --  1263.6161              1267.9276              1281.1394
 Red. masses --     1.2607                 1.3185                 1.3631
 Frc consts  --     1.1860                 1.2489                 1.3182
 IR Inten    --    13.2301                22.4541                24.3573
 Raman Activ --     2.2177                 0.7534                 1.8698

                    85                     86                     87
                     A                      A                      A
 Frequencies --  1285.2372              1299.5371              1305.6831
 Red. masses --     1.2902                 1.2568                 1.3677
 Frc consts  --     1.2556                 1.2505                 1.3738
 IR Inten    --     0.8686                28.1695                20.9919
 Raman Activ --     1.9574                 6.6842                 3.6277

                    88                     89                     90
                     A                      A                      A
 Frequencies --  1310.9348              1331.2367              1339.7085
 Red. masses --     1.3916                 1.3028                 1.1610
 Frc consts  --     1.4091                 1.3603                 1.2277
 IR Inten    --    11.8035                20.3181                15.3366
 Raman Activ --     4.6975                 5.9016                10.8819

                    91                     92                     93
                     A                      A                      A
 Frequencies --  1341.5326              1343.1993              1354.1702
 Red. masses --     1.2852                 1.1846                 1.2151
 Frc consts  --     1.3628                 1.2593                 1.3129
 IR Inten    --     8.4724                25.4898                24.8249
 Raman Activ --     6.0238                 1.0447                 1.5358

                    94                     95                     96
                     A                      A                      A
 Frequencies --  1361.5556              1364.0147              1366.8300
 Red. masses --     1.4213                 1.2486                 1.2839
 Frc consts  --     1.5524                 1.3687                 1.4133
 IR Inten    --    14.1736                28.6417                23.9399
 Raman Activ --     4.0052                10.3356                 3.6587

                    97                     98                     99
                     A                      A                      A
 Frequencies --  1377.1987              1380.3297              1394.6576
 Red. masses --     1.1543                 1.3960                 1.2823
 Frc consts  --     1.2899                 1.5671                 1.4696
 IR Inten    --    44.3504                14.5334                 7.8835
 Raman Activ --    25.7884                 7.7359                 1.4333

                   100                    101                    102
                     A                      A                      A
 Frequencies --  1396.4852              1426.7482              1453.4926
 Red. masses --     1.2918                 1.3253                 1.3718
 Frc consts  --     1.4842                 1.5895                 1.7076
 IR Inten    --     0.5076                21.4762                27.3267
 Raman Activ --     9.7691                 1.2123                 2.1039

                   103                    104                    105
                     A                      A                      A
 Frequencies --  1454.8994              1470.6119              1478.1183
 Red. masses --     1.4535                 1.3325                 1.1162
 Frc consts  --     1.8127                 1.6979                 1.4368
 IR Inten    --    61.6630                23.4969                 2.7333
 Raman Activ --     1.6075                 1.7230                 3.3832

                   106                    107                    108
                     A                      A                      A
 Frequencies --  1542.3462              1799.1129              3170.8994
 Red. masses --     1.1994                 1.2542                 1.0539
 Frc consts  --     1.6810                 2.3919                 6.2433
 IR Inten    --    37.0827               148.3598                44.6070
 Raman Activ --     1.3665                 2.1050               193.1004

                   109                    110                    111
                     A                      A                      A
 Frequencies --  3223.3841              3241.9216              3247.5262
 Red. masses --     1.0684                 1.0803                 1.0827
 Frc consts  --     6.5405                 6.6897                 6.7276
 IR Inten    --  1140.9497                57.4592                25.9830
 Raman Activ --   156.1837                53.6197                61.3950

                   112                    113                    114
                     A                      A                      A
 Frequencies --  3260.9870              3262.9257              3270.6496
 Red. masses --     1.0592                 1.0692                 1.0807
 Frc consts  --     6.6362                 6.7071                 6.8110
 IR Inten    --     8.3391                14.0863                13.2496
 Raman Activ --   181.8609               640.2024               128.3967

                   115                    116                    117
                     A                      A                      A
 Frequencies --  3274.4789              3275.9357              3281.3890
 Red. masses --     1.0834                 1.0837                 1.0842
 Frc consts  --     6.8443                 6.8519                 6.8784
 IR Inten    --     1.0422                 3.6513                 3.2391
 Raman Activ --    11.9374                 2.9912               143.8819

                   118                    119                    120
                     A                      A                      A
 Frequencies --  3288.1710              3290.6359              3299.4275
 Red. masses --     1.0872                 1.0868                 1.0916
 Frc consts  --     6.9260                 6.9334                 7.0012
 IR Inten    --    26.5250                 9.4500                 6.6364
 Raman Activ --    23.3716                13.0744                76.8446

                   121                    122                    123
                     A                      A                      A
 Frequencies --  3299.8157              3301.3764              3312.6370
 Red. masses --     1.0882                 1.0885                 1.1019
 Frc consts  --     6.9813                 6.9900                 7.1244
 IR Inten    --    50.3636                87.1969                69.0889
 Raman Activ --    34.0602                28.8927                44.3962

                   124                    125                    126
                     A                      A                      A
 Frequencies --  3355.9336              3364.4521              3368.4280
 Red. masses --     1.0665                 1.0650                 1.0668
 Frc consts  --     7.0770                 7.1026                 7.1314
 IR Inten    --   230.2205                25.7211                81.7251
 Raman Activ --   111.7414                99.1085               132.3664

                   127                    128                    129
                     A                      A                      A
 Frequencies --  3370.3567              3888.7252              3891.7984
 Red. masses --     1.0658                 1.0676                 1.0674
 Frc consts  --     7.1332                 9.5122                 9.5251
 IR Inten    --    34.1960                90.8496                67.3991
 Raman Activ --   135.4713                75.9270               132.7574

 - Thermochemistry -
 -------------------
 Temperature   298.150 Kelvin.  Pressure   1.00000 Atm.
 Atom     1 has atomic number  8 and mass  15.99491

 Molecular mass:   342.11621 amu.
 Principal axes and moments of inertia in atomic units:
                           1         2         3
     Eigenvalues --  4454.20415********************
           X            0.99997   0.00744   0.00050
           Y           -0.00744   0.99997   0.00139
           Z           -0.00049  -0.00139   1.00000
 This molecule is an asymmetric top.
 Rotational symmetry number  1.
 Warning -- assumption of classical behavior for rotation
           may cause significant error
 Rotational temperatures (Kelvin)      0.01945     0.00699     0.00530
 Rotational constants (GHZ):           0.40518     0.14560     0.11038
    8 imaginary frequencies ignored.
 Zero-point vibrational energy     964117.8 (Joules/Mol)
                                  230.42968 (Kcal/Mol)
 Warning -- explicit consideration of  33 degrees of freedom as
           vibrations may cause significant error
 Vibrational temperatures:     45.07    65.87    97.52   175.25   202.48
          (Kelvin)            234.31   260.26   277.47   294.09   329.94
                              350.99   382.11   402.48   430.20   432.19
                              450.27   465.99   500.39   533.39   561.50
                              579.36   588.39   623.96   644.56   660.65
                              706.32   728.55   780.27   817.33   830.24
                              856.03   860.13   880.60   904.40   972.27
                              980.06   987.52  1058.04  1107.78  1111.89
                             1244.85  1317.42  1332.82  1349.63  1375.06
                             1391.56  1410.90  1413.11  1438.30  1453.59
                             1458.89  1494.39  1508.72  1514.19  1531.91
                             1546.61  1572.72  1580.50  1584.88  1608.00
                             1619.36  1626.18  1636.56  1644.83  1646.38
                             1666.94  1681.30  1711.28  1735.02  1744.13
                             1761.43  1763.28  1786.12  1818.06  1824.26
                             1843.27  1849.17  1869.74  1878.58  1886.14
                             1915.35  1927.54  1930.16  1932.56  1948.35
                             1958.97  1962.51  1966.56  1981.48  1985.98
                             2006.60  2009.23  2052.77  2091.25  2093.27
                             2115.88  2126.68  2219.09  2588.52  4562.21
                             4637.72  4664.40  4672.46  4691.83  4694.62
                             4705.73  4711.24  4713.33  4721.18  4730.94
                             4734.49  4747.13  4747.69  4749.94  4766.14
                             4828.43  4840.69  4846.41  4849.19  5595.00
                             5599.42

 Zero-point correction=                           0.367213 (Hartree/Particle)
 Thermal correction to Energy=                    0.385685
 Thermal correction to Enthalpy=                  0.386629
 Thermal correction to Gibbs Free Energy=         0.321221
 Sum of electronic and zero-point Energies=          -1297.403720
 Sum of electronic and thermal Energies=             -1297.385248
 Sum of electronic and thermal Enthalpies=           -1297.384304
 Sum of electronic and thermal Free Energies=        -1297.449712

                     E (Thermal)             CV                S
                      KCal/Mol        Cal/Mol-Kelvin    Cal/Mol-Kelvin
 Total                  242.021             76.429            137.663
 Electronic               0.000              0.000              0.000
 Translational            0.889              2.981             43.384
 Rotational               0.889              2.981             35.155
 Vibrational            240.244             70.468             59.123
 Vibration     1          0.594              1.983              5.744
 Vibration     2          0.595              1.979              4.992
 Vibration     3          0.598              1.970              4.217
 Vibration     4          0.609              1.931              3.072
 Vibration     5          0.615              1.913              2.794
 Vibration     6          0.623              1.888              2.516
 Vibration     7          0.630              1.866              2.319
 Vibration     8          0.635              1.850              2.200
 Vibration     9          0.640              1.834              2.093
 Vibration    10          0.652              1.796              1.884
 Vibration    11          0.659              1.773              1.774
 Vibration    12          0.671              1.736              1.625
 Vibration    13          0.680              1.711              1.535
 Vibration    14          0.692              1.676              1.422
 Vibration    15          0.693              1.673              1.415
 Vibration    16          0.701              1.649              1.347
 Vibration    17          0.708              1.628              1.290
 Vibration    18          0.725              1.580              1.176
 Vibration    19          0.743              1.532              1.077
 Vibration    20          0.758              1.491              0.999
 Vibration    21          0.768              1.464              0.953
 Vibration    22          0.773              1.451              0.930
 Vibration    23          0.794              1.397              0.847
 Vibration    24          0.807              1.365              0.802
 Vibration    25          0.817              1.341              0.769
 Vibration    26          0.847              1.270              0.681
 Vibration    27          0.862              1.236              0.642
 Vibration    28          0.897              1.157              0.560
 Vibration    29          0.924              1.100              0.508
 Vibration    30          0.934              1.081              0.491
 Vibration    31          0.953              1.042              0.458
 Vibration    32          0.956              1.036              0.453
 Vibration    33          0.971              1.006              0.429

 Normal termination of Gaussian 09 at Thu Mar 24 13:19:31 2016.
