 Gaussian 09, Revision B.01,
 Gaussian 09:  EM64L-G09RevB.01 12-Aug-2010

 -------------------------------------------------
 # freq=raman b3lyp/6-31+g(2d,p) geom=connectivity
 -------------------------------------------------

 -----------------
 300 6989/6989.com
 -----------------
 Symbolic Z-matrix:
 Charge =  0 Multiplicity = 1

                         Standard orientation:
 ---------------------------------------------------------------------
 Center     Atomic      Atomic             Coordinates (Angstroms)
 Number     Number       Type             X           Y           Z
 ---------------------------------------------------------------------
      1          8           0        5.016232   -0.392240   -0.379764
      2          6           0        3.701641   -0.146230    0.141736
      3          6           0        3.199176    1.246833   -0.200252
      4          8           0        4.210091    2.233757    0.049189
      5          1           0        5.041981    1.901129   -0.394191
      6          6           0        1.835003    1.569409    0.387611
      7          8           0        1.365423    2.874652    0.018600
      8          1           0        0.372851    2.953864    0.110250
      9          6           0        3.035014   -2.506859    0.246653
     10          8           0        4.212003   -3.196657   -0.198091
     11          1           0        4.296122   -4.162471    0.045754
     12          6           0        2.695866   -1.162433   -0.376792
     13          8           0        1.370679   -0.882775    0.097216
     14          6           0        0.915389    0.463593   -0.101193
     15          8           0       -0.337804    0.566644    0.591475
     16          6           0       -1.533116    0.220497   -0.122990
     17          6           0       -1.952298   -1.179671    0.295574
     18          8           0       -0.994712   -2.169134   -0.105971
     19          1           0       -0.161325   -1.782033    0.286611
     20          6           0       -3.339535   -1.540065   -0.210347
     21          8           0       -3.778896   -2.763518    0.397510
     22          1           0       -4.700196   -2.960585    0.064218
     23          6           0       -2.308405    2.620535   -0.308452
     24          8           0       -1.182703    3.367903    0.175617
     25          1           0       -1.501617    4.300100    0.345665
     26          6           0       -2.620198    1.227532    0.214405
     27          8           0       -3.885029    0.819001   -0.325979
     28          6           0       -4.338385   -0.454030    0.155754
     29          8           0       -5.582490   -0.634915   -0.536649
     30          1           0       -6.278906   -0.816278    0.098734
     31          1           0       -4.495525   -0.423368    1.213708
     32          1           0       -3.313123   -1.658159   -1.273482
     33          1           0       -1.991660   -1.191871    1.364780
     34          1           0       -1.340638    0.238485   -1.175382
     35          1           0       -2.710156    1.280282    1.279311
     36          1           0       -3.177269    3.219570   -0.132011
     37          1           0       -2.190843    2.534669   -1.368502
     38          1           0        5.618197   -0.578227    0.344561
     39          1           0        2.200705   -3.156534    0.083101
     40          1           0        3.129821   -2.356986    1.301854
     41          1           0        2.718940   -1.218298   -1.445084
     42          1           0        3.744746   -0.233054    1.207336
     43          1           0        3.056888    1.246708   -1.260749
     44          1           0        1.899120    1.517045    1.454404
     45          1           0        0.738610    0.609594   -1.146340
 ---------------------------------------------------------------------

 SCF Done:  E(RB3LYP) =  -1297.99926828     A.U. after   13 cycles

 The electronic state is 1-A.
 Alpha  occ. eigenvalues --  -19.19551 -19.18905 -19.18272 -19.18122 -19.17929
 Alpha  occ. eigenvalues --  -19.16936 -19.16146 -19.15669 -19.14441 -19.13887
 Alpha  occ. eigenvalues --  -19.12885 -10.30712 -10.30579 -10.26243 -10.25761
 Alpha  occ. eigenvalues --  -10.25706 -10.25464 -10.24925 -10.24621 -10.24327
 Alpha  occ. eigenvalues --  -10.24032 -10.23966 -10.23643  -1.10109  -1.09215
 Alpha  occ. eigenvalues --   -1.06308  -1.05224  -1.04239  -1.03546  -1.02830
 Alpha  occ. eigenvalues --   -1.01916  -1.01315  -1.00826  -0.99450  -0.82341
 Alpha  occ. eigenvalues --   -0.80586  -0.79472  -0.78482  -0.72022  -0.69781
 Alpha  occ. eigenvalues --   -0.67336  -0.64714  -0.63452  -0.62812  -0.61179
 Alpha  occ. eigenvalues --   -0.60027  -0.56757  -0.56369  -0.55446  -0.54866
 Alpha  occ. eigenvalues --   -0.54028  -0.53161  -0.53075  -0.52042  -0.50708
 Alpha  occ. eigenvalues --   -0.50510  -0.50264  -0.49524  -0.48629  -0.46787
 Alpha  occ. eigenvalues --   -0.46414  -0.45071  -0.44269  -0.43476  -0.43253
 Alpha  occ. eigenvalues --   -0.42750  -0.41414  -0.41339  -0.39988  -0.39453
 Alpha  occ. eigenvalues --   -0.39153  -0.38115  -0.38065  -0.36335  -0.35539
 Alpha  occ. eigenvalues --   -0.34980  -0.34895  -0.34291  -0.33699  -0.33420
 Alpha  occ. eigenvalues --   -0.32766  -0.31710  -0.30911  -0.30264  -0.30161
 Alpha  occ. eigenvalues --   -0.29459  -0.28442  -0.28286  -0.26808  -0.26607
 Alpha  occ. eigenvalues --   -0.26500
 Alpha virt. eigenvalues --   -0.02381  -0.02032  -0.01636   0.00186   0.00384
 Alpha virt. eigenvalues --    0.00960   0.01921   0.02152   0.03130   0.03584
 Alpha virt. eigenvalues --    0.03822   0.04337   0.05104   0.05308   0.05647

 Mulliken atomic charges:
              1
     1  O   -0.544450
     2  C   -0.060507
     3  C    0.187503
     4  O   -0.559613
     5  H    0.347318
     6  C    0.051602
     7  O   -0.603379
     8  H    0.445124
     9  C   -0.188594
    10  O   -0.567113
    11  H    0.345531
    12  C    0.148741
    13  O   -0.251861
    14  C    0.109957
    15  O   -0.230205
    16  C    0.338928
    17  C    0.037288
    18  O   -0.530247
    19  H    0.374657
    20  C    0.104307
    21  O   -0.540913
    22  H    0.333139
    23  C   -0.321755
    24  O   -0.552661
    25  H    0.362382
    26  C   -0.034282
    27  O   -0.249524
    28  C    0.130222
    29  O   -0.538515
    30  H    0.335094
    31  H    0.131278
    32  H    0.135221
    33  H    0.124191
    34  H    0.114624
    35  H    0.117894
    36  H    0.144826
    37  H    0.159727
    38  H    0.343952
    39  H    0.144007
    40  H    0.132583
    41  H    0.123054
    42  H    0.108986
    43  H    0.103764
    44  H    0.121040
    45  H    0.116681
 Sum of Mulliken atomic charges =   0.00000

 Dipole moment (field-independent basis, Debye):
    X=             -3.0448    Y=             -0.2063    Z=              2.2276  Tot=              3.7783
 Quadrupole moment (field-independent basis, Debye-Ang):
   XX=           -118.8112   YY=           -137.3821   ZZ=           -137.6410
   XY=            -19.2689   XZ=             -1.7520   YZ=             -2.5573

  Exact polarizability: 234.232   0.285 197.743  -0.180  -0.956 143.504
 Approx polarizability: 274.913  -0.534 257.776  -0.026  -0.140 239.179

 ******    7 imaginary frequencies (negative Signs) ******

                     1                      2                      3
                     A                      A                      A
 Frequencies --  -278.4994              -271.6524              -239.4558
 Red. masses --     1.4888                 1.7021                 1.3877
 Frc consts  --     0.0680                 0.0740                 0.0469
 IR Inten    --    66.1818                 0.9293                44.9269
 Raman Activ --     0.1893                 0.0211                 0.4080

                     4                      5                      6
                     A                      A                      A
 Frequencies --  -210.6985               -73.3118               -46.5390
 Red. masses --     1.2229                 7.2368                 6.6241
 Frc consts  --     0.0320                 0.0229                 0.0085
 IR Inten    --   108.2071                 0.7251                 0.4774
 Raman Activ --     0.7473                 0.0231                 0.0242

                     7                      8                      9
                     A                      A                      A
 Frequencies --   -28.0804                45.4820                53.5539
 Red. masses --     6.1138                 6.3463                 6.8016
 Frc consts  --     0.0028                 0.0077                 0.0115
 IR Inten    --     1.2989                 0.7405                 0.7864
 Raman Activ --     0.0167                 0.0289                 0.0400

                    10                     11                     12
                     A                      A                      A
 Frequencies --    84.0285                95.4198               122.7318
 Red. masses --     6.6500                 6.2471                 5.5788
 Frc consts  --     0.0277                 0.0335                 0.0495
 IR Inten    --     0.2666                 3.5269                 0.6903
 Raman Activ --     0.3193                 0.0321                 0.1158

                    13                     14                     15
                     A                      A                      A
 Frequencies --   159.7068               188.4572               192.6889
 Red. masses --     6.0954                 6.1664                 6.8535
 Frc consts  --     0.0916                 0.1290                 0.1499
 IR Inten    --     6.4886                 1.4928                 0.6152
 Raman Activ --     0.2651                 0.5657                 0.6056

                    16                     17                     18
                     A                      A                      A
 Frequencies --   212.9484               236.6813               263.8836
 Red. masses --     6.7836                 5.9918                 4.2756
 Frc consts  --     0.1812                 0.1978                 0.1754
 IR Inten    --     0.5033                 1.4966                16.6840
 Raman Activ --     2.9682                 0.4660                 0.1289

                    19                     20                     21
                     A                      A                      A
 Frequencies --   278.4010               297.7390               306.7416
 Red. masses --     4.7108                 5.1196                 5.8049
 Frc consts  --     0.2151                 0.2674                 0.3218
 IR Inten    --     5.2593                 0.9279                 7.7477
 Raman Activ --     0.2614                 0.0683                 0.7205

                    22                     23                     24
                     A                      A                      A
 Frequencies --   312.2307               315.7362               318.5408
 Red. masses --     5.0804                 5.9189                 6.6724
 Frc consts  --     0.2918                 0.3476                 0.3989
 IR Inten    --     2.7148                 2.1628                 2.2755
 Raman Activ --     1.7586                 3.1981                 2.9944

                    25                     26                     27
                     A                      A                      A
 Frequencies --   351.6223               359.9732               380.6828
 Red. masses --     6.4140                 4.7498                 5.8608
 Frc consts  --     0.4672                 0.3626                 0.5004
 IR Inten    --    11.1129                 2.9454                 2.8326
 Raman Activ --     1.0851                 0.0479                 1.4760

                    28                     29                     30
                     A                      A                      A
 Frequencies --   410.0190               421.8918               435.3728
 Red. masses --     4.3951                 6.0386                 5.1387
 Frc consts  --     0.4353                 0.6333                 0.5739
 IR Inten    --    17.4315                 0.2712                 7.2368
 Raman Activ --     1.9015                 8.6725                 2.9198

                    31                     32                     33
                     A                      A                      A
 Frequencies --   437.0399               480.3925               486.0729
 Red. masses --     5.2849                 4.4519                 4.1994
 Frc consts  --     0.5947                 0.6053                 0.5846
 IR Inten    --     2.0394                 3.5107                11.9567
 Raman Activ --     0.1882                 5.4528                 0.2426

                    34                     35                     36
                     A                      A                      A
 Frequencies --   508.9148               530.0430               565.7737
 Red. masses --     3.9404                 3.1893                 4.2628
 Frc consts  --     0.6013                 0.5279                 0.8040
 IR Inten    --    12.2114                11.8420                 6.5967
 Raman Activ --     2.1184                 3.6334                 1.5198

                    37                     38                     39
                     A                      A                      A
 Frequencies --   586.5063               588.4253               613.1472
 Red. masses --     2.6452                 5.1775                 3.4167
 Frc consts  --     0.5361                 1.0562                 0.7568
 IR Inten    --    38.0255                10.0520                 9.4052
 Raman Activ --     0.2953                 0.5683                 0.4447

                    40                     41                     42
                     A                      A                      A
 Frequencies --   617.5724               634.6253               671.6214
 Red. masses --     1.2689                 3.3139                 1.1600
 Frc consts  --     0.2851                 0.7864                 0.3083
 IR Inten    --    75.2207                61.9723               113.2042
 Raman Activ --     1.5395                 2.1108                 1.3600

                    43                     44                     45
                     A                      A                      A
 Frequencies --   684.0033               747.5079               751.4996
 Red. masses --     4.3277                 1.0726                 1.0784
 Frc consts  --     1.1930                 0.3531                 0.3588
 IR Inten    --    10.6475                93.4808                98.4199
 Raman Activ --     1.1146                 1.8011                 1.6967

                    46                     47                     48
                     A                      A                      A
 Frequencies --   803.6878               807.8783               857.2833
 Red. masses --     1.0892                 1.1194                 1.6200
 Frc consts  --     0.4145                 0.4304                 0.7015
 IR Inten    --    43.7011               118.1183                 1.7975
 Raman Activ --     0.7390                 3.5356                 0.3324

                    49                     50                     51
                     A                      A                      A
 Frequencies --   861.7582               922.9988               952.4708
 Red. masses --     1.7698                 6.3107                 5.7034
 Frc consts  --     0.7743                 3.1676                 3.0485
 IR Inten    --     0.1038               144.8427                84.5344
 Raman Activ --     0.5280                 2.5071                 0.7380

                    52                     53                     54
                     A                      A                      A
 Frequencies --   971.4253               978.4153               989.7028
 Red. masses --     6.8936                 5.2063                 4.1214
 Frc consts  --     3.8328                 2.9365                 2.3785
 IR Inten    --    59.8209               105.9766                61.0572
 Raman Activ --     1.4091                 2.6382                 0.4562

                    55                     56                     57
                     A                      A                      A
 Frequencies --  1003.9397              1012.8646              1025.2712
 Red. masses --     7.3183                 6.1354                 6.1076
 Frc consts  --     4.3458                 3.7085                 3.7827
 IR Inten    --   378.8835                54.2341               152.2651
 Raman Activ --     1.2604                 4.5955                 2.0324

                    58                     59                     60
                     A                      A                      A
 Frequencies --  1035.9347              1048.4580              1062.7342
 Red. masses --     5.2846                 5.5962                 6.2599
 Frc consts  --     3.3414                 3.6245                 4.1655
 IR Inten    --   289.7429                97.4745               191.0025
 Raman Activ --     2.7845                12.1415                 1.1629

                    61                     62                     63
                     A                      A                      A
 Frequencies --  1066.3473              1073.4303              1084.1327
 Red. masses --     4.8677                 4.7592                 4.1321
 Frc consts  --     3.2612                 3.2310                 2.8615
 IR Inten    --    24.3485                 8.6063                12.5841
 Raman Activ --     6.4927                 4.6914                19.5721

                    64                     65                     66
                     A                      A                      A
 Frequencies --  1095.6211              1105.4940              1107.2708
 Red. masses --     2.5509                 2.1750                 2.5149
 Frc consts  --     1.8041                 1.5661                 1.8167
 IR Inten    --    17.3121               103.2666                35.7518
 Raman Activ --     9.9925                 4.5581                 6.2988

                    67                     68                     69
                     A                      A                      A
 Frequencies --  1114.3152              1124.6700              1125.4744
 Red. masses --     2.9546                 2.3801                 2.6295
 Frc consts  --     2.1615                 1.7738                 1.9624
 IR Inten    --    24.6289                 7.2585                40.2703
 Raman Activ --     1.3095                 2.4061                 4.2066

                    70                     71                     72
                     A                      A                      A
 Frequencies --  1145.8185              1150.8765              1153.5144
 Red. masses --     2.3219                 1.9774                 2.1788
 Frc consts  --     1.7961                 1.5432                 1.7081
 IR Inten    --    28.6850                 2.3181                 9.1548
 Raman Activ --     6.5753                 4.4696                 2.6095

                    73                     74                     75
                     A                      A                      A
 Frequencies --  1162.1060              1166.6168              1174.7937
 Red. masses --     1.8688                 1.6590                 1.9765
 Frc consts  --     1.4870                 1.3303                 1.6072
 IR Inten    --    12.8200                 7.3694                 8.3383
 Raman Activ --     1.2946                 2.4007                 2.3280

                    76                     77                     78
                     A                      A                      A
 Frequencies --  1206.2628              1210.1988              1232.4675
 Red. masses --     1.3181                 1.3909                 1.1977
 Frc consts  --     1.1300                 1.2002                 1.0719
 IR Inten    --    27.0147                 9.5249                 7.0189
 Raman Activ --     2.5668                 1.9841                 0.3605

                    79                     80                     81
                     A                      A                      A
 Frequencies --  1237.1619              1243.2337              1249.8100
 Red. masses --     1.2702                 1.3029                 1.2949
 Frc consts  --     1.1454                 1.1865                 1.1917
 IR Inten    --     8.4729                 0.1125                16.2776
 Raman Activ --     1.9893                 1.6325                 0.6645

                    82                     83                     84
                     A                      A                      A
 Frequencies --  1269.7557              1278.6070              1282.6113
 Red. masses --     1.1683                 1.2671                 1.2524
 Frc consts  --     1.1098                 1.2205                 1.2139
 IR Inten    --    20.8540                 8.6514                 8.3498
 Raman Activ --     5.9184                 1.3344                 0.8476

                    85                     86                     87
                     A                      A                      A
 Frequencies --  1287.3093              1301.2349              1303.7942
 Red. masses --     1.3617                 1.1980                 1.2337
 Frc consts  --     1.3296                 1.1951                 1.2356
 IR Inten    --    41.3775                 1.2935                19.6318
 Raman Activ --     0.5972                 4.0825                 3.5291

                    88                     89                     90
                     A                      A                      A
 Frequencies --  1307.9326              1316.7544              1321.8323
 Red. masses --     1.2826                 1.2750                 1.3731
 Frc consts  --     1.2927                 1.3025                 1.4135
 IR Inten    --    21.6121                47.2719                19.9343
 Raman Activ --     4.6977                 7.0549                 3.5397

                    91                     92                     93
                     A                      A                      A
 Frequencies --  1328.1173              1338.5246              1350.7585
 Red. masses --     1.2321                 1.2779                 1.4737
 Frc consts  --     1.2804                 1.3490                 1.5842
 IR Inten    --     0.2824                33.3115                 4.7429
 Raman Activ --    11.1257                 2.9028                 4.9297

                    94                     95                     96
                     A                      A                      A
 Frequencies --  1363.7142              1366.8361              1373.6192
 Red. masses --     1.3066                 1.4550                 1.4801
 Frc consts  --     1.4316                 1.6016                 1.6454
 IR Inten    --    14.9843                 4.3132                 4.1081
 Raman Activ --     3.3460                 7.5401                 5.4201

                    97                     98                     99
                     A                      A                      A
 Frequencies --  1378.5913              1391.1828              1394.5371
 Red. masses --     1.2540                 1.4244                 1.4684
 Frc consts  --     1.4041                 1.6243                 1.6825
 IR Inten    --    46.5576                 5.6555                 0.5345
 Raman Activ --     3.1186                 2.0551                 8.0095

                   100                    101                    102
                     A                      A                      A
 Frequencies --  1424.8773              1434.4847              1447.0008
 Red. masses --     1.3757                 1.4507                 1.2909
 Frc consts  --     1.6456                 1.7588                 1.5925
 IR Inten    --    20.4954                31.5723                37.0127
 Raman Activ --     1.1185                 0.9194                 1.0093

                   103                    104                    105
                     A                      A                      A
 Frequencies --  1465.3790              1467.9740              1479.9265
 Red. masses --     1.4265                 1.1007                 1.0883
 Frc consts  --     1.8048                 1.3975                 1.4044
 IR Inten    --    36.9300                 8.7229                 3.6961
 Raman Activ --     1.1630                 5.2696                 3.6086

                   106                    107                    108
                     A                      A                      A
 Frequencies --  1481.4492              1543.5220              3235.9826
 Red. masses --     1.2397                 1.2502                 1.0693
 Frc consts  --     1.6030                 1.7549                 6.5972
 IR Inten    --    45.0446                46.9379              1026.4668
 Raman Activ --     1.2499                 1.3675               167.7495

                   109                    110                    111
                     A                      A                      A
 Frequencies --  3253.3682              3256.3829              3263.6425
 Red. masses --     1.0675                 1.0709                 1.0608
 Frc consts  --     6.6571                 6.6905                 6.6573
 IR Inten    --    17.7943                59.5216                23.9843
 Raman Activ --    12.5096               142.6392               150.1509

                   112                    113                    114
                     A                      A                      A
 Frequencies --  3270.0089              3272.1838              3274.7351
 Red. masses --     1.0815                 1.0819                 1.0824
 Frc consts  --     6.8138                 6.8253                 6.8393
 IR Inten    --    14.7688                10.1836                20.8422
 Raman Activ --    22.0321                47.1742                19.6260

                   115                    116                    117
                     A                      A                      A
 Frequencies --  3278.6324              3285.4429              3289.3804
 Red. masses --     1.0839                 1.0848                 1.0861
 Frc consts  --     6.8648                 6.8989                 6.9241
 IR Inten    --     6.5359                11.6926                 4.0741
 Raman Activ --   162.8083               129.5833                33.4933

                   118                    119                    120
                     A                      A                      A
 Frequencies --  3291.2280              3295.7696              3302.4735
 Red. masses --     1.0855                 1.0894                 1.0868
 Frc consts  --     6.9281                 6.9717                 6.9834
 IR Inten    --    13.3446                82.3340                70.5502
 Raman Activ --    20.6309                30.0332                 5.0245

                   121                    122                    123
                     A                      A                      A
 Frequencies --  3311.8322              3317.2768              3322.7710
 Red. masses --     1.1012                 1.1044                 1.0673
 Frc consts  --     7.1163                 7.1607                 6.9425
 IR Inten    --    49.8405                67.1733               590.0016
 Raman Activ --    11.9252                32.0965               150.1528

                   124                    125                    126
                     A                      A                      A
 Frequencies --  3369.5290              3370.5506              3374.7552
 Red. masses --     1.0653                 1.0684                 1.0658
 Frc consts  --     7.1262                 7.1516                 7.1516
 IR Inten    --    35.7724                68.9395                31.8296
 Raman Activ --    75.5227               221.8095               137.2043

                   127                    128                    129
                     A                      A                      A
 Frequencies --  3378.5453              3891.7823              3892.1693
 Red. masses --     1.0689                 1.0676                 1.0674
 Frc consts  --     7.1887                 9.5271                 9.5275
 IR Inten    --    65.4461                99.6686                60.4982
 Raman Activ --   160.1475                64.8731               131.6952

 - Thermochemistry -
 -------------------
 Temperature   298.150 Kelvin.  Pressure   1.00000 Atm.
 Atom     1 has atomic number  8 and mass  15.99491

 Molecular mass:   342.11621 amu.
 Principal axes and moments of inertia in atomic units:
                           1         2         3
     Eigenvalues --  4416.07570********************
           X            0.99996  -0.00839  -0.00022
           Y            0.00838   0.99996  -0.00398
           Z            0.00025   0.00398   0.99999
 This molecule is an asymmetric top.
 Rotational symmetry number  1.
 Warning -- assumption of classical behavior for rotation
           may cause significant error
 Rotational temperatures (Kelvin)      0.01961     0.00703     0.00528
 Rotational constants (GHZ):           0.40868     0.14643     0.11005
    7 imaginary frequencies ignored.
 Zero-point vibrational energy     973825.4 (Joules/Mol)
                                  232.74985 (Kcal/Mol)
 Warning -- explicit consideration of  33 degrees of freedom as
           vibrations may cause significant error
 Vibrational temperatures:     65.44    77.05   120.90   137.29   176.58
          (Kelvin)            229.78   271.15   277.24   306.38   340.53
                              379.67   400.56   428.38   441.33   449.23
                              454.27   458.31   505.91   517.92   547.72
                              589.93   607.01   626.40   628.80   691.18
                              699.35   732.21   762.61   814.02   843.85
                              846.61   882.18   888.55   913.08   966.31
                              984.13  1075.50  1081.24  1156.33  1162.36
                             1233.44  1239.88  1327.99  1370.39  1397.66
                             1407.72  1423.96  1444.44  1457.28  1475.13
                             1490.48  1508.50  1529.04  1534.23  1544.42
                             1559.82  1576.35  1590.56  1593.11  1603.25
                             1618.15  1619.30  1648.58  1655.85  1659.65
                             1672.01  1678.50  1690.26  1735.54  1741.20
                             1773.24  1780.00  1788.73  1798.20  1826.89
                             1839.63  1845.39  1852.15  1872.18  1875.87
                             1881.82  1894.51  1901.82  1910.86  1925.84
                             1943.44  1962.08  1966.57  1976.33  1983.48
                             2001.60  2006.43  2050.08  2063.90  2081.91
                             2108.35  2112.08  2129.28  2131.47  2220.78
                             4655.85  4680.87  4685.20  4695.65  4704.81
                             4707.94  4711.61  4717.21  4727.01  4732.68
                             4735.34  4741.87  4751.52  4764.98  4772.82
                             4780.72  4847.99  4849.46  4855.51  4860.97
                             5599.40  5599.96

 Zero-point correction=                           0.370910 (Hartree/Particle)
 Thermal correction to Energy=                    0.389205
 Thermal correction to Enthalpy=                  0.390149
 Thermal correction to Gibbs Free Energy=         0.325461
 Sum of electronic and zero-point Energies=          -1297.628358
 Sum of electronic and thermal Energies=             -1297.610064
 Sum of electronic and thermal Enthalpies=           -1297.609119
 Sum of electronic and thermal Free Energies=        -1297.673807

                     E (Thermal)             CV                S
                      KCal/Mol        Cal/Mol-Kelvin    Cal/Mol-Kelvin
 Total                  244.230             76.077            136.147
 Electronic               0.000              0.000              0.000
 Translational            0.889              2.981             43.384
 Rotational               0.889              2.981             35.144
 Vibrational            242.452             70.115             57.618
 Vibration     1          0.595              1.979              5.005
 Vibration     2          0.596              1.976              4.682
 Vibration     3          0.601              1.960              3.795
 Vibration     4          0.603              1.952              3.546
 Vibration     5          0.610              1.930              3.057
 Vibration     6          0.622              1.892              2.553
 Vibration     7          0.633              1.856              2.243
 Vibration     8          0.635              1.850              2.202
 Vibration     9          0.644              1.821              2.018
 Vibration    10          0.656              1.785              1.828
 Vibration    11          0.670              1.739              1.636
 Vibration    12          0.679              1.713              1.543
 Vibration    13          0.691              1.678              1.430
 Vibration    14          0.697              1.661              1.380
 Vibration    15          0.701              1.650              1.350
 Vibration    16          0.703              1.644              1.332
 Vibration    17          0.705              1.638              1.318
 Vibration    18          0.728              1.572              1.159
 Vibration    19          0.734              1.555              1.122
 Vibration    20          0.750              1.511              1.036
 Vibration    21          0.774              1.448              0.927
 Vibration    22          0.784              1.423              0.886
 Vibration    23          0.796              1.393              0.841
 Vibration    24          0.797              1.389              0.836
 Vibration    25          0.837              1.294              0.709
 Vibration    26          0.842              1.281              0.694
 Vibration    27          0.864              1.230              0.636
 Vibration    28          0.885              1.184              0.587
 Vibration    29          0.922              1.105              0.512
 Vibration    30          0.944              1.061              0.473
 Vibration    31          0.946              1.056              0.470
 Vibration    32          0.972              1.004              0.428
 Vibration    33          0.977              0.995              0.420

 Normal termination of Gaussian 09 at Wed Mar 23 06:11:33 2016.
