 Gaussian 09, Revision B.01,
 Gaussian 09:  EM64L-G09RevB.01 12-Aug-2010

 ------------------------------------------------
 # freq=raman b3lyp/6-31+g(d,p) geom=connectivity
 ------------------------------------------------

 ------------
 450 5000.com
 ------------
 Symbolic Z-matrix:
 Charge =  0 Multiplicity = 1

                         Standard orientation:
 ---------------------------------------------------------------------
 Center     Atomic      Atomic             Coordinates (Angstroms)
 Number     Number       Type             X           Y           Z
 ---------------------------------------------------------------------
      1          8           0        5.029550   -0.303092   -0.661102
      2          6           0        3.863533   -0.044966    0.135744
      3          6           0        3.315736    1.255094   -0.428511
      4          8           0        4.072616    2.460130   -0.242638
      5          1           0        4.978619    2.554961   -0.654004
      6          6           0        1.906101    1.667202   -0.034293
      7          8           0        1.307841    2.826342   -0.632958
      8          1           0        1.931162    3.535702   -0.304202
      9          6           0        3.315511   -2.480249    0.583779
     10          8           0        2.429755   -3.607678    0.635861
     11          1           0        3.072762   -4.366980    0.726847
     12          6           0        2.839576   -1.160297   -0.000629
     13          8           0        1.581149   -0.639228    0.453360
     14          6           0        1.045933    0.446060   -0.316971
     15          8           0       -0.137615    0.624746    0.473029
     16          6           0       -1.410419    0.326925   -0.119636
     17          6           0       -1.699314   -1.111007    0.278034
     18          8           0       -0.680348   -2.108926    0.117342
     19          1           0        0.192241   -1.638247    0.248774
     20          6           0       -2.932821   -1.554897   -0.490659
     21          8           0       -3.413517   -2.907334   -0.478777
     22          1           0       -2.591609   -3.435148   -0.691430
     23          6           0       -2.211212    2.633434    0.407104
     24          8           0       -3.283973    3.503195    0.797395
     25          1           0       -3.269639    3.505711    1.797313
     26          6           0       -2.561445    1.154758    0.427787
     27          8           0       -3.690261    0.708625   -0.338139
     28          6           0       -4.074135   -0.647278   -0.062776
     29          8           0       -5.330985   -0.933994   -0.692090
     30          1           0       -6.047667   -0.667397   -0.111664
     31          1           0       -4.201576   -0.749785    0.994651
     32          1           0       -2.733423   -1.326912   -1.516896
     33          1           0       -1.960291   -1.099307    1.315654
     34          1           0       -1.357885    0.415814   -1.184643
     35          1           0       -2.720982    0.869850    1.446745
     36          1           0       -1.907006    2.895319   -0.584750
     37          1           0        5.812447   -0.017446   -0.184575
     38          1           0        3.635769   -2.284283    1.585744
     39          1           0        4.176186   -2.781015    0.023711
     40          1           0        2.724851   -1.332463   -1.050437
     41          1           0        4.137712    0.083682    1.161988
     42          1           0        3.282246    1.100554   -1.486762
     43          1           0        1.905883    1.823492    1.024231
     44          1           0        0.870688    0.227783   -1.349708
     45          1           0       -1.386441    2.795155    1.069297
 ---------------------------------------------------------------------

 SCF Done:  E(RB3LYP) =  -1297.91838439     A.U. after   14 cycles

 The electronic state is 1-A.
 Alpha  occ. eigenvalues --  -19.20565 -19.20103 -19.19480 -19.18524 -19.18130
 Alpha  occ. eigenvalues --  -19.18113 -19.16237 -19.16076 -19.16029 -19.15018
 Alpha  occ. eigenvalues --  -19.14369 -10.32359 -10.28796 -10.28185 -10.27793
 Alpha  occ. eigenvalues --  -10.26992 -10.26284 -10.26077 -10.25089 -10.24792
 Alpha  occ. eigenvalues --  -10.23275 -10.23256 -10.22933  -1.11430  -1.07642
 Alpha  occ. eigenvalues --   -1.06620  -1.05584  -1.04418  -1.03751  -1.03279
 Alpha  occ. eigenvalues --   -1.01988  -1.01441  -1.00560  -0.99529  -0.83184
 Alpha  occ. eigenvalues --   -0.82252  -0.79139  -0.77617  -0.72746  -0.69697
 Alpha  occ. eigenvalues --   -0.67899  -0.64864  -0.63634  -0.62570  -0.61309
 Alpha  occ. eigenvalues --   -0.60384  -0.57717  -0.56957  -0.55492  -0.53953
 Alpha  occ. eigenvalues --   -0.53355  -0.53186  -0.52814  -0.52384  -0.50933
 Alpha  occ. eigenvalues --   -0.50041  -0.49631  -0.49296  -0.47808  -0.46761
 Alpha  occ. eigenvalues --   -0.46218  -0.45380  -0.44725  -0.43730  -0.43354
 Alpha  occ. eigenvalues --   -0.43138  -0.42400  -0.40565  -0.40263  -0.39507
 Alpha  occ. eigenvalues --   -0.38655  -0.37567  -0.37421  -0.36832  -0.36350
 Alpha  occ. eigenvalues --   -0.35538  -0.35438  -0.34446  -0.34222  -0.33913
 Alpha  occ. eigenvalues --   -0.32477  -0.31277  -0.30574  -0.30333  -0.29863
 Alpha  occ. eigenvalues --   -0.29652  -0.29523  -0.28057  -0.27613  -0.26054
 Alpha  occ. eigenvalues --   -0.25656
 Alpha virt. eigenvalues --   -0.03877  -0.02404  -0.00997  -0.00983   0.00149
 Alpha virt. eigenvalues --    0.01080   0.01367   0.01752   0.02498   0.02960
 Alpha virt. eigenvalues --    0.03441   0.04342   0.05005   0.05536   0.05791

 Mulliken atomic charges:
              1
     1  O   -0.541125
     2  C    0.040467
     3  C    0.130063
     4  O   -0.616241
     5  H    0.371210
     6  C   -0.196617
     7  O   -0.480967
     8  H    0.366907
     9  C   -0.379524
    10  O   -0.489835
    11  H    0.350959
    12  C    0.323434
    13  O   -0.389127
    14  C    0.241552
    15  O   -0.326501
    16  C   -0.378087
    17  C    0.157537
    18  O   -0.573546
    19  H    0.441876
    20  C   -0.104778
    21  O   -0.454009
    22  H    0.360584
    23  C    0.050841
    24  O   -0.488554
    25  H    0.334486
    26  C    0.119356
    27  O   -0.316362
    28  C    0.321833
    29  O   -0.501664
    30  H    0.349070
    31  H    0.105965
    32  H    0.130157
    33  H    0.120507
    34  H    0.135373
    35  H    0.111602
    36  H    0.155018
    37  H    0.363718
    38  H    0.130777
    39  H    0.151292
    40  H    0.136826
    41  H    0.141987
    42  H    0.143408
    43  H    0.150631
    44  H    0.148778
    45  H    0.150724
 Sum of Mulliken atomic charges =   0.00000

 Dipole moment (field-independent basis, Debye):
    X=             10.2884    Y=              1.0236    Z=              3.0023  Tot=             10.7663
 Quadrupole moment (field-independent basis, Debye-Ang):
   XX=           -117.5430   YY=           -146.3633   ZZ=           -135.0929
   XY=             -5.1504   XZ=            -10.9664   YZ=              3.9767

  Exact polarizability: 222.402   2.162 196.576  -1.049   1.497 143.577
 Approx polarizability: 263.002   1.430 251.402  -0.475   2.812 233.478

 ******    7 imaginary frequencies (negative Signs) ******

                     1                      2                      3
                     A                      A                      A
 Frequencies --  -293.6571              -273.1012              -269.7223
 Red. masses --     1.7163                 1.1587                 1.0892
 Frc consts  --     0.0872                 0.0509                 0.0467
 IR Inten    --     2.4712                96.0721               146.9174
 Raman Activ --     0.1676                 1.7229                 0.9612

                     4                      5                      6
                     A                      A                      A
 Frequencies --  -171.1812               -77.2220               -69.1083
 Red. masses --     1.7175                 6.0424                 6.2462
 Frc consts  --     0.0297                 0.0212                 0.0176
 IR Inten    --     6.7997                 0.6124                 0.0890
 Raman Activ --     0.1918                 0.0430                 0.1158

                     7                      8                      9
                     A                      A                      A
 Frequencies --   -40.3389                44.8855                53.4505
 Red. masses --     6.5988                 6.7907                 6.4409
 Frc consts  --     0.0063                 0.0081                 0.0108
 IR Inten    --     0.2964                 0.4646                 0.4000
 Raman Activ --     0.0959                 0.0399                 0.0915

                    10                     11                     12
                     A                      A                      A
 Frequencies --    82.6294               100.0377               105.4427
 Red. masses --     6.4844                 6.4588                 6.5658
 Frc consts  --     0.0261                 0.0381                 0.0430
 IR Inten    --     1.0938                 1.0665                 1.1858
 Raman Activ --     0.0916                 0.3735                 0.2676

                    13                     14                     15
                     A                      A                      A
 Frequencies --   138.7936               149.3915               175.5118
 Red. masses --     6.5401                 5.8952                 6.1425
 Frc consts  --     0.0742                 0.0775                 0.1115
 IR Inten    --     0.5208                 0.4968                 2.4979
 Raman Activ --     0.4212                 0.2171                 0.6095

                    16                     17                     18
                     A                      A                      A
 Frequencies --   201.8054               208.3122               242.1268
 Red. masses --     5.7341                 6.6758                 5.0909
 Frc consts  --     0.1376                 0.1707                 0.1758
 IR Inten    --     1.9126                 0.4277                15.1318
 Raman Activ --     0.7554                 1.5260                 0.3968

                    19                     20                     21
                     A                      A                      A
 Frequencies --   258.3822               279.4089               291.3911
 Red. masses --     5.0056                 5.7203                 4.5388
 Frc consts  --     0.1969                 0.2631                 0.2271
 IR Inten    --     5.4040                 4.1196                 2.1325
 Raman Activ --     0.3625                 1.4207                 0.5133

                    22                     23                     24
                     A                      A                      A
 Frequencies --   300.5721               318.4417               327.3756
 Red. masses --     4.7969                 5.6905                 5.8566
 Frc consts  --     0.2553                 0.3400                 0.3698
 IR Inten    --     3.0214                 3.1284                 3.6156
 Raman Activ --     0.3220                 5.2361                 1.1997

                    25                     26                     27
                     A                      A                      A
 Frequencies --   342.1929               361.9081               367.0718
 Red. masses --     6.4407                 7.3228                 4.1478
 Frc consts  --     0.4443                 0.5651                 0.3293
 IR Inten    --     0.7943                 1.8716                 6.5463
 Raman Activ --     5.2625                 0.5233                 1.2932

                    28                     29                     30
                     A                      A                      A
 Frequencies --   403.3614               424.4760               432.4425
 Red. masses --     5.7983                 4.8514                 6.6179
 Frc consts  --     0.5558                 0.5150                 0.7292
 IR Inten    --     2.4132                10.6139                 0.2561
 Raman Activ --     3.7296                 3.6560                 1.1445

                    31                     32                     33
                     A                      A                      A
 Frequencies --   449.8019               477.8242               489.5388
 Red. masses --     4.5729                 3.5538                 5.3979
 Frc consts  --     0.5451                 0.4781                 0.7622
 IR Inten    --     9.3076                 7.0267                 9.7567
 Raman Activ --     1.9382                 1.5691                 2.4918

                    34                     35                     36
                     A                      A                      A
 Frequencies --   530.3674               538.7532               560.9304
 Red. masses --     3.7125                 3.9108                 6.2075
 Frc consts  --     0.6153                 0.6688                 1.1508
 IR Inten    --    32.6031                23.1210                 2.2073
 Raman Activ --     1.3315                 7.3788                 1.6424

                    37                     38                     39
                     A                      A                      A
 Frequencies --   586.1337               594.4379               611.6811
 Red. masses --     2.9963                 3.1941                 3.3953
 Frc consts  --     0.6065                 0.6650                 0.7485
 IR Inten    --     6.3951                23.6452                 4.1390
 Raman Activ --     0.1987                 1.4143                 0.5121

                    40                     41                     42
                     A                      A                      A
 Frequencies --   644.7862               661.3098               678.2878
 Red. masses --     3.1809                 3.4584                 1.1542
 Frc consts  --     0.7792                 0.8911                 0.3129
 IR Inten    --    33.0109                20.2300                42.6157
 Raman Activ --     1.5998                 0.7327                 2.2533

                    43                     44                     45
                     A                      A                      A
 Frequencies --   689.1412               701.3850               722.4006
 Red. masses --     1.1064                 1.1081                 1.1474
 Frc consts  --     0.3096                 0.3212                 0.3528
 IR Inten    --   118.9019               131.7790               123.3738
 Raman Activ --     1.7560                 0.7382                 2.1535

                    46                     47                     48
                     A                      A                      A
 Frequencies --   737.6792               823.5708               834.0416
 Red. masses --     1.1073                 2.4688                 2.6640
 Frc consts  --     0.3550                 0.9866                 1.0919
 IR Inten    --   116.8092                13.7530                 5.7832
 Raman Activ --     1.5953                 1.4810                 6.8017

                    49                     50                     51
                     A                      A                      A
 Frequencies --   844.7780               928.1681               966.0393
 Red. masses --     1.0875                 5.5029                 5.9619
 Frc consts  --     0.4572                 2.7932                 3.2781
 IR Inten    --    42.9350               145.4462               183.1318
 Raman Activ --     0.3132                 3.5541                 0.6601

                    52                     53                     54
                     A                      A                      A
 Frequencies --   975.9673               985.0979              1001.8413
 Red. masses --     4.1822                 3.3720                 5.5859
 Frc consts  --     2.3470                 1.9279                 3.3032
 IR Inten    --    36.0054                13.0128               146.8058
 Raman Activ --     2.2065                 3.1854                 3.6998

                    55                     56                     57
                     A                      A                      A
 Frequencies --  1012.9136              1014.6275              1033.4942
 Red. masses --     6.1021                 5.5142                 2.2308
 Frc consts  --     3.6887                 3.3446                 1.4039
 IR Inten    --   210.4022               185.3435               111.9298
 Raman Activ --     1.8255                 3.2901                 2.4440

                    58                     59                     60
                     A                      A                      A
 Frequencies --  1036.5305              1053.2415              1066.2860
 Red. masses --     4.0188                 2.1208                 3.1447
 Frc consts  --     2.5440                 1.3861                 2.1066
 IR Inten    --   148.4537                42.9991                18.9936
 Raman Activ --     4.4598                 3.0295                 1.9094

                    61                     62                     63
                     A                      A                      A
 Frequencies --  1070.5488              1074.2329              1077.5696
 Red. masses --     4.7819                 4.9047                 4.7116
 Frc consts  --     3.2290                 3.3347                 3.2234
 IR Inten    --   261.2640                10.4011                91.4997
 Raman Activ --     0.8603                24.4684                 4.0538

                    64                     65                     66
                     A                      A                      A
 Frequencies --  1090.6399              1102.0209              1119.1832
 Red. masses --     2.3777                 2.3394                 3.0951
 Frc consts  --     1.6664                 1.6739                 2.2842
 IR Inten    --    44.1916                13.6766                33.0317
 Raman Activ --     1.8267                13.0363                 9.6286

                    67                     68                     69
                     A                      A                      A
 Frequencies --  1128.5981              1131.3460              1140.9312
 Red. masses --     2.0905                 2.2614                 2.1369
 Frc consts  --     1.5688                 1.7054                 1.6389
 IR Inten    --    26.7437                21.9621                48.4246
 Raman Activ --     2.3036                 1.3320                 3.5364

                    70                     71                     72
                     A                      A                      A
 Frequencies --  1146.3880              1158.2486              1167.0792
 Red. masses --     2.5160                 2.7608                 2.0750
 Frc consts  --     1.9481                 2.1822                 1.6652
 IR Inten    --    21.5620               131.6204                14.1391
 Raman Activ --     2.0844                 3.4688                 2.6724

                    73                     74                     75
                     A                      A                      A
 Frequencies --  1179.5967              1180.4215              1187.1079
 Red. masses --     2.0042                 2.2644                 3.0246
 Frc consts  --     1.6431                 1.8590                 2.5113
 IR Inten    --    13.7540                62.2673                32.4345
 Raman Activ --     6.3699                 2.0882                 1.6486

                    76                     77                     78
                     A                      A                      A
 Frequencies --  1201.8267              1208.7192              1213.9139
 Red. masses --     1.4762                 1.7097                 1.5083
 Frc consts  --     1.2562                 1.4717                 1.3096
 IR Inten    --     4.6156                 4.6205                21.8159
 Raman Activ --     2.6371                 1.2733                 4.8218

                    79                     80                     81
                     A                      A                      A
 Frequencies --  1236.3645              1245.5847              1252.8597
 Red. masses --     1.4726                 1.2461                 1.3386
 Frc consts  --     1.3263                 1.1391                 1.2379
 IR Inten    --     9.6481                11.9989                 4.9101
 Raman Activ --     0.8706                 0.6360                 3.8079

                    82                     83                     84
                     A                      A                      A
 Frequencies --  1260.6311              1280.8463              1293.9433
 Red. masses --     1.3252                 1.3478                 1.2952
 Frc consts  --     1.2408                 1.3028                 1.2776
 IR Inten    --     6.6947                40.5999                 9.3352
 Raman Activ --     2.4535                 2.5392                 3.1032

                    85                     86                     87
                     A                      A                      A
 Frequencies --  1298.7715              1304.2852              1316.1152
 Red. masses --     1.1469                 1.3765                 1.4701
 Frc consts  --     1.1398                 1.3797                 1.5003
 IR Inten    --     7.8835                17.4775                 4.7866
 Raman Activ --     4.2872                 5.1278                 4.2220

                    88                     89                     90
                     A                      A                      A
 Frequencies --  1319.0154              1340.7796              1343.1242
 Red. masses --     1.5007                 1.3328                 1.4355
 Frc consts  --     1.5383                 1.4116                 1.5258
 IR Inten    --     6.9371                21.4880                19.6338
 Raman Activ --    10.2439                 1.1912                 0.6096

                    91                     92                     93
                     A                      A                      A
 Frequencies --  1356.6481              1358.7892              1369.6704
 Red. masses --     1.1976                 1.3652                 1.2770
 Frc consts  --     1.2987                 1.4851                 1.4115
 IR Inten    --    20.1396                 5.8759                24.3848
 Raman Activ --     2.3975                12.5048                 4.6828

                    94                     95                     96
                     A                      A                      A
 Frequencies --  1372.7956              1381.0289              1388.4374
 Red. masses --     1.2030                 1.3348                 1.2737
 Frc consts  --     1.3357                 1.5000                 1.4467
 IR Inten    --    30.1421                 7.5710                 8.8539
 Raman Activ --     2.4233                 8.2381                 1.9596

                    97                     98                     99
                     A                      A                      A
 Frequencies --  1389.9255              1390.9637              1394.8908
 Red. masses --     1.2673                 1.2019                 1.3709
 Frc consts  --     1.4425                 1.3701                 1.5715
 IR Inten    --     7.1114                29.5851                16.3902
 Raman Activ --     5.8838                 5.8134                 1.9231

                   100                    101                    102
                     A                      A                      A
 Frequencies --  1399.8059              1452.8562              1457.6095
 Red. masses --     1.3398                 1.1140                 1.1282
 Frc consts  --     1.5468                 1.3854                 1.4123
 IR Inten    --     4.1480                10.5673                55.8876
 Raman Activ --     1.1169                 5.4753                 4.4047

                   103                    104                    105
                     A                      A                      A
 Frequencies --  1465.4165              1470.8425              1483.9058
 Red. masses --     1.4997                 1.0761                 1.3576
 Frc consts  --     1.8975                 1.3716                 1.7612
 IR Inten    --    18.9961                 1.7501                 6.8157
 Raman Activ --     1.8880                 6.8725                 2.7102

                   106                    107                    108
                     A                      A                      A
 Frequencies --  1484.0897              1503.3743              3264.3967
 Red. masses --     1.4077                 1.2819                 1.0778
 Frc consts  --     1.8268                 1.7070                 6.7667
 IR Inten    --    79.2775                37.6411               124.0725
 Raman Activ --     0.8909                 0.8904                 8.0561

                   109                    110                    111
                     A                      A                      A
 Frequencies --  3265.8101              3273.4769              3277.4006
 Red. masses --     1.0645                 1.0832                 1.0808
 Frc consts  --     6.6893                 6.8390                 6.8399
 IR Inten    --    13.4014                 7.1044                30.7882
 Raman Activ --   113.6266                26.3450                42.4223

                   112                    113                    114
                     A                      A                      A
 Frequencies --  3279.7629              3281.3599              3285.5451
 Red. masses --     1.0819                 1.0817                 1.0585
 Frc consts  --     6.8567                 6.8620                 6.7324
 IR Inten    --    22.1608                13.8399                 6.9315
 Raman Activ --    87.2672               198.9184                82.1178

                   115                    116                    117
                     A                      A                      A
 Frequencies --  3289.7237              3297.7639              3299.9353
 Red. masses --     1.0824                 1.0736                 1.0853
 Frc consts  --     6.9017                 6.8792                 6.9631
 IR Inten    --   273.9648               511.9052                10.4822
 Raman Activ --   106.8867                88.5742                10.7990

                   118                    119                    120
                     A                      A                      A
 Frequencies --  3309.3181              3310.6021              3321.3788
 Red. masses --     1.0873                 1.0883                 1.1028
 Frc consts  --     7.0157                 7.0276                 7.1679
 IR Inten    --    62.8804                 3.3890                36.6846
 Raman Activ --     2.5960                55.6026                55.8911

                   121                    122                    123
                     A                      A                      A
 Frequencies --  3327.6392              3349.9855              3389.4110
 Red. masses --     1.0872                 1.1034                 1.0721
 Frc consts  --     7.0930                 7.2959                 7.2569
 IR Inten    --    61.8916                28.4980                12.7534
 Raman Activ --    45.6565                44.8403                62.8372

                   124                    125                    126
                     A                      A                      A
 Frequencies --  3394.4554              3403.3849              3403.6621
 Red. masses --     1.0678                 1.0651                 1.0663
 Frc consts  --     7.2489                 7.2690                 7.2782
 IR Inten    --    33.8043                29.4345                74.4301
 Raman Activ --   216.8101                59.1136                76.1711

                   127                    128                    129
                     A                      A                      A
 Frequencies --  3403.8723              3916.3654              3916.8757
 Red. masses --     1.0653                 1.0676                 1.0674
 Frc consts  --     7.2724                 9.6473                 9.6484
 IR Inten    --    27.9781                69.4427                55.1282
 Raman Activ --   195.7695                93.8269               148.9457

 - Thermochemistry -
 -------------------
 Temperature   298.150 Kelvin.  Pressure   1.00000 Atm.
 Atom     1 has atomic number  8 and mass  15.99491

 Molecular mass:   342.11621 amu.
 Principal axes and moments of inertia in atomic units:
                           1         2         3
     Eigenvalues --  4870.66602********************
           X            0.99998  -0.00620  -0.00242
           Y            0.00620   0.99998   0.00174
           Z            0.00241  -0.00176   1.00000
 This molecule is an asymmetric top.
 Rotational symmetry number  1.
 Warning -- assumption of classical behavior for rotation
           may cause significant error
 Rotational temperatures (Kelvin)      0.01778     0.00735     0.00542
 Rotational constants (GHZ):           0.37053     0.15318     0.11284
    7 imaginary frequencies ignored.
 Zero-point vibrational energy     976836.6 (Joules/Mol)
                                  233.46956 (Kcal/Mol)
 Warning -- explicit consideration of  32 degrees of freedom as
           vibrations may cause significant error
 Vibrational temperatures:     64.58    76.90   118.89   143.93   151.71
          (Kelvin)            199.69   214.94   252.52   290.35   299.71
                              348.37   371.75   402.01   419.25   432.46
                              458.17   471.02   492.34   520.70   528.13
                              580.35   610.73   622.19   647.16   687.48
                              704.34   763.08   775.14   807.05   843.31
                              855.26   880.07   927.70   951.48   975.90
                              991.52  1009.14  1039.37  1061.35  1184.93
                             1200.00  1215.45  1335.43  1389.91  1404.20
                             1417.33  1441.42  1457.35  1459.82  1486.97
                             1491.33  1515.38  1534.15  1540.28  1545.58
                             1550.38  1569.19  1585.56  1610.25  1623.80
                             1627.75  1641.54  1649.39  1666.46  1679.16
                             1697.17  1698.36  1707.98  1729.16  1739.08
                             1746.55  1778.85  1792.12  1802.58  1813.76
                             1842.85  1861.69  1868.64  1876.57  1893.59
                             1897.77  1929.08  1932.45  1951.91  1954.99
                             1970.65  1975.14  1986.99  1997.65  1999.79
                             2001.28  2006.93  2014.01  2090.33  2097.17
                             2108.40  2116.21  2135.01  2135.27  2163.02
                             4696.73  4698.77  4709.80  4715.44  4718.84
                             4721.14  4727.16  4733.17  4744.74  4747.87
                             4761.36  4763.21  4778.72  4787.72  4819.88
                             4876.60  4883.86  4896.71  4897.10  4897.41
                             5634.77  5635.50

 Zero-point correction=                           0.372057 (Hartree/Particle)
 Thermal correction to Energy=                    0.390664
 Thermal correction to Enthalpy=                  0.391609
 Thermal correction to Gibbs Free Energy=         0.325980
 Sum of electronic and zero-point Energies=          -1297.546327
 Sum of electronic and thermal Energies=             -1297.527720
 Sum of electronic and thermal Enthalpies=           -1297.526776
 Sum of electronic and thermal Free Energies=        -1297.592405

                     E (Thermal)             CV                S
                      KCal/Mol        Cal/Mol-Kelvin    Cal/Mol-Kelvin
 Total                  245.146             76.270            138.128
 Electronic               0.000              0.000              0.000
 Translational            0.889              2.981             43.384
 Rotational               0.889              2.981             35.172
 Vibrational            243.368             70.309             59.572
 Vibration     1          0.595              1.979              5.031
 Vibration     2          0.596              1.976              4.685
 Vibration     3          0.600              1.961              3.827
 Vibration     4          0.604              1.949              3.454
 Vibration     5          0.605              1.945              3.351
 Vibration     6          0.614              1.915              2.820
 Vibration     7          0.618              1.903              2.680
 Vibration     8          0.627              1.873              2.376
 Vibration     9          0.639              1.837              2.117
 Vibration    10          0.642              1.828              2.058
 Vibration    11          0.658              1.776              1.787
 Vibration    12          0.667              1.749              1.673
 Vibration    13          0.680              1.712              1.537
 Vibration    14          0.687              1.690              1.466
 Vibration    15          0.693              1.673              1.414
 Vibration    16          0.705              1.638              1.318
 Vibration    17          0.711              1.621              1.273
 Vibration    18          0.721              1.591              1.202
 Vibration    19          0.736              1.551              1.114
 Vibration    20          0.740              1.540              1.092
 Vibration    21          0.769              1.463              0.950
 Vibration    22          0.786              1.417              0.877
 Vibration    23          0.793              1.400              0.851
 Vibration    24          0.809              1.361              0.796
 Vibration    25          0.834              1.299              0.716
 Vibration    26          0.845              1.273              0.685
 Vibration    27          0.885              1.183              0.586
 Vibration    28          0.894              1.164              0.568
 Vibration    29          0.917              1.116              0.522
 Vibration    30          0.943              1.061              0.474
 Vibration    31          0.952              1.044              0.459
 Vibration    32          0.971              1.007              0.430

 Normal termination of Gaussian 09 at Thu Jan 21 17:59:41 2016.
