 Gaussian 09, Revision B.01,
 Gaussian 09:  EM64L-G09RevB.01 12-Aug-2010

 ------------------------------------------------
 # freq=raman b3lyp/6-31+g(d,p) geom=connectivity
 ------------------------------------------------

 ------------
 350 7000.com
 ------------
 Symbolic Z-matrix:
 Charge =  0 Multiplicity = 1

                         Standard orientation:
 ---------------------------------------------------------------------
 Center     Atomic      Atomic             Coordinates (Angstroms)
 Number     Number       Type             X           Y           Z
 ---------------------------------------------------------------------
      1          8           0       -4.998846   -0.336256    0.346177
      2          6           0       -3.727817   -0.168782   -0.299419
      3          6           0       -3.269129    1.221038    0.113508
      4          8           0       -4.128425    2.369456    0.144202
      5          1           0       -5.042650    2.103876    0.448572
      6          6           0       -1.840431    1.551692   -0.286685
      7          8           0       -1.379380    2.829709    0.175673
      8          1           0       -0.410393    2.825908   -0.075130
      9          6           0       -3.152507   -2.601823   -0.149559
     10          8           0       -4.240132   -3.259642    0.515250
     11          1           0       -3.941025   -4.204922    0.385058
     12          6           0       -2.705888   -1.185945    0.178885
     13          8           0       -1.391803   -0.838569   -0.283510
     14          6           0       -0.899008    0.438552    0.144374
     15          8           0        0.325531    0.486564   -0.601205
     16          6           0        1.505970    0.167757    0.150098
     17          6           0        2.029752   -1.105639   -0.494419
     18          8           0        1.122310   -2.189776   -0.251124
     19          1           0        0.310488   -1.906378   -0.761945
     20          6           0        3.349191   -1.579230    0.092911
     21          8           0        3.989198   -2.694710   -0.542465
     22          1           0        4.792493   -3.029418   -0.050607
     23          6           0        2.336299    2.689820    0.104727
     24          8           0        1.192254    3.346944   -0.460282
     25          1           0        1.426853    4.315719   -0.533942
     26          6           0        2.589504    1.204519   -0.096200
     27          8           0        3.767465    0.836230    0.636383
     28          6           0        4.279189   -0.377700    0.066676
     29          8           0        5.458380   -0.614533    0.849596
     30          1           0        6.201454   -0.783730    0.265805
     31          1           0        4.568462   -0.188583   -0.945972
     32          1           0        3.176848   -1.841194    1.115932
     33          1           0        2.138019   -0.957144   -1.548519
     34          1           0        1.300184    0.035506    1.191761
     35          1           0        2.845242    1.101497   -1.130069
     36          1           0        3.199854    3.202466   -0.264554
     37          1           0        2.296570    2.855628    1.161055
     38          1           0       -5.680715   -0.462835   -0.317624
     39          1           0       -2.294704   -3.227477   -0.016782
     40          1           0       -3.387480   -2.609831   -1.193409
     41          1           0       -2.680504   -1.115771    1.246280
     42          1           0       -3.839622   -0.223102   -1.362174
     43          1           0       -3.147168    1.061630    1.164515
     44          1           0       -1.817386    1.582692   -1.355988
     45          1           0       -0.717969    0.456567    1.198793
 ---------------------------------------------------------------------

 SCF Done:  E(RB3LYP) =  -1297.91201451     A.U. after   13 cycles

 The electronic state is 1-A.
 Alpha  occ. eigenvalues --  -19.19849 -19.19286 -19.19210 -19.19023 -19.18279
 Alpha  occ. eigenvalues --  -19.17723 -19.17623 -19.17591 -19.15661 -19.15393
 Alpha  occ. eigenvalues --  -19.13990 -10.31195 -10.30740 -10.26566 -10.26361
 Alpha  occ. eigenvalues --  -10.26028 -10.25907 -10.25651 -10.25455 -10.25129
 Alpha  occ. eigenvalues --  -10.24757 -10.24166 -10.23862  -1.10339  -1.09331
 Alpha  occ. eigenvalues --   -1.05698  -1.05338  -1.04057  -1.03796  -1.03533
 Alpha  occ. eigenvalues --   -1.02668  -1.01645  -1.01283  -0.99817  -0.82546
 Alpha  occ. eigenvalues --   -0.80586  -0.79547  -0.78394  -0.72546  -0.70041
 Alpha  occ. eigenvalues --   -0.66965  -0.65023  -0.63328  -0.62466  -0.62071
 Alpha  occ. eigenvalues --   -0.60233  -0.56495  -0.55924  -0.55181  -0.54722
 Alpha  occ. eigenvalues --   -0.54042  -0.53277  -0.53173  -0.52527  -0.51034
 Alpha  occ. eigenvalues --   -0.50770  -0.49942  -0.49289  -0.48695  -0.46671
 Alpha  occ. eigenvalues --   -0.46453  -0.45324  -0.44383  -0.43836  -0.43353
 Alpha  occ. eigenvalues --   -0.42780  -0.41643  -0.41212  -0.40351  -0.39348
 Alpha  occ. eigenvalues --   -0.38401  -0.38020  -0.37540  -0.36596  -0.36306
 Alpha  occ. eigenvalues --   -0.35839  -0.35220  -0.34466  -0.34192  -0.33634
 Alpha  occ. eigenvalues --   -0.32615  -0.31547  -0.30855  -0.30685  -0.29967
 Alpha  occ. eigenvalues --   -0.29204  -0.28937  -0.28490  -0.26995  -0.26894
 Alpha  occ. eigenvalues --   -0.25829
 Alpha virt. eigenvalues --   -0.02237  -0.01976  -0.01941  -0.00380   0.00021
 Alpha virt. eigenvalues --    0.00633   0.01631   0.01972   0.02919   0.03504
 Alpha virt. eigenvalues --    0.03640   0.04198   0.04926   0.05001   0.05346

 Mulliken atomic charges:
              1
     1  O   -0.537760
     2  C    0.077253
     3  C   -0.077674
     4  O   -0.509745
     5  H    0.362663
     6  C   -0.046605
     7  O   -0.520690
     8  H    0.442270
     9  C   -0.242250
    10  O   -0.473581
    11  H    0.344305
    12  C    0.186902
    13  O   -0.407076
    14  C    0.151612
    15  O   -0.318447
    16  C    0.056511
    17  C   -0.132909
    18  O   -0.467446
    19  H    0.381153
    20  C    0.184341
    21  O   -0.526246
    22  H    0.359482
    23  C   -0.065252
    24  O   -0.601331
    25  H    0.393194
    26  C    0.152405
    27  O   -0.314159
    28  C    0.112363
    29  O   -0.565131
    30  H    0.362922
    31  H    0.124448
    32  H    0.151201
    33  H    0.152924
    34  H    0.139267
    35  H    0.121697
    36  H    0.135992
    37  H    0.150694
    38  H    0.363728
    39  H    0.135126
    40  H    0.128850
    41  H    0.135912
    42  H    0.129486
    43  H    0.107560
    44  H    0.136817
    45  H    0.125222
 Sum of Mulliken atomic charges =   0.00000

 Dipole moment (field-independent basis, Debye):
    X=              2.7942    Y=             -0.7757    Z=             -2.5431  Tot=              3.8570
 Quadrupole moment (field-independent basis, Debye-Ang):
   XX=           -120.3919   YY=           -135.5544   ZZ=           -141.2485
   XY=             14.8766   XZ=              1.6322   YZ=             -1.8756

  Exact polarizability: 226.710  -1.922 194.959   0.812   0.712 141.987
 Approx polarizability: 263.773  -2.436 251.164   0.158   0.719 232.965

 ******    7 imaginary frequencies (negative Signs) ******

                     1                      2                      3
                     A                      A                      A
 Frequencies --  -339.2650              -315.0204              -295.3858
 Red. masses --     1.6456                 1.1649                 1.7202
 Frc consts  --     0.1116                 0.0681                 0.0884
 IR Inten    --     9.1826               133.5677                 1.8304
 Raman Activ --     0.1483                 1.2407                 0.0636

                     4                      5                      6
                     A                      A                      A
 Frequencies --  -277.0268               -78.1419               -70.5574
 Red. masses --     1.1617                 6.4430                 5.9805
 Frc consts  --     0.0525                 0.0232                 0.0175
 IR Inten    --   106.3983                 0.7144                 0.2164
 Raman Activ --     0.9000                 0.0625                 0.0232

                     7                      8                      9
                     A                      A                      A
 Frequencies --   -30.1424                42.4443                67.9472
 Red. masses --     6.6855                 6.5364                 6.2359
 Frc consts  --     0.0036                 0.0069                 0.0170
 IR Inten    --     1.1907                 0.0145                 1.1454
 Raman Activ --     0.0397                 0.0292                 0.2489

                    10                     11                     12
                     A                      A                      A
 Frequencies --    80.2495                85.4281               125.5511
 Red. masses --     6.5109                 6.6657                 5.6031
 Frc consts  --     0.0247                 0.0287                 0.0520
 IR Inten    --     0.5173                 2.1814                 0.4311
 Raman Activ --     0.0818                 0.0345                 0.0490

                    13                     14                     15
                     A                      A                      A
 Frequencies --   141.3959               168.6509               187.0271
 Red. masses --     6.3085                 6.7246                 6.1771
 Frc consts  --     0.0743                 0.1127                 0.1273
 IR Inten    --     3.4637                 0.0874                 2.9850
 Raman Activ --     0.3088                 0.2410                 0.9996

                    16                     17                     18
                     A                      A                      A
 Frequencies --   207.2006               228.4170               247.2335
 Red. masses --     6.8935                 6.3064                 4.1152
 Frc consts  --     0.1744                 0.1939                 0.1482
 IR Inten    --     0.3205                 4.7091                12.8933
 Raman Activ --     1.4805                 1.2661                 0.3347

                    19                     20                     21
                     A                      A                      A
 Frequencies --   268.9176               282.9966               299.5049
 Red. masses --     4.8029                 6.1333                 5.3949
 Frc consts  --     0.2046                 0.2894                 0.2851
 IR Inten    --     9.3858                 3.8852                 1.6859
 Raman Activ --     0.3850                 0.3199                 2.1752

                    22                     23                     24
                     A                      A                      A
 Frequencies --   302.6467               309.1020               316.1096
 Red. masses --     4.7275                 7.0230                 5.7689
 Frc consts  --     0.2551                 0.3953                 0.3396
 IR Inten    --     1.2656                 4.5119                 0.7882
 Raman Activ --     1.2190                 3.0711                 1.8419

                    25                     26                     27
                     A                      A                      A
 Frequencies --   340.3059               352.4003               374.9072
 Red. masses --     6.4163                 4.6829                 7.3897
 Frc consts  --     0.4378                 0.3426                 0.6120
 IR Inten    --     9.8779                 2.1380                 1.9443
 Raman Activ --     1.9836                 0.5331                 2.0972

                    28                     29                     30
                     A                      A                      A
 Frequencies --   401.9015               415.9763               429.5806
 Red. masses --     3.7002                 6.3772                 5.8745
 Frc consts  --     0.3521                 0.6502                 0.6387
 IR Inten    --    14.2653                 4.8528                 0.5793
 Raman Activ --     2.8620                 4.2457                 3.0900

                    31                     32                     33
                     A                      A                      A
 Frequencies --   434.0908               462.7629               490.2316
 Red. masses --     4.7842                 4.7690                 5.2099
 Frc consts  --     0.5312                 0.6017                 0.7377
 IR Inten    --     1.3441                 8.7643                16.7433
 Raman Activ --     1.6655                 6.9847                 0.1970

                    34                     35                     36
                     A                      A                      A
 Frequencies --   510.8792               522.2143               568.0782
 Red. masses --     3.3410                 3.3273                 4.6954
 Frc consts  --     0.5138                 0.5346                 0.8928
 IR Inten    --    16.8179                 5.9890                16.3461
 Raman Activ --     1.0492                 4.1080                 1.9299

                    37                     38                     39
                     A                      A                      A
 Frequencies --   587.3946               592.3545               618.5435
 Red. masses --     5.5388                 2.9883                 4.8374
 Frc consts  --     1.1260                 0.6178                 1.0904
 IR Inten    --     8.9994                45.2282                 6.9988
 Raman Activ --     0.9775                 0.9506                 0.9572

                    40                     41                     42
                     A                      A                      A
 Frequencies --   626.6258               672.1122               690.3810
 Red. masses --     4.2771                 1.0515                 1.1098
 Frc consts  --     0.9895                 0.2799                 0.3117
 IR Inten    --    34.0694                87.4870               102.2461
 Raman Activ --     1.5561                 1.7761                 2.0126

                    43                     44                     45
                     A                      A                      A
 Frequencies --   690.7056               704.3575               710.9267
 Red. masses --     4.8182                 1.1089                 1.0550
 Frc consts  --     1.3543                 0.3241                 0.3142
 IR Inten    --    21.0989                69.0049               137.5612
 Raman Activ --     1.0277                 1.3582                 2.0003

                    46                     47                     48
                     A                      A                      A
 Frequencies --   774.0602               838.8329               857.6727
 Red. masses --     1.1204                 1.8173                 1.6074
 Frc consts  --     0.3955                 0.7534                 0.6966
 IR Inten    --   186.3656                 5.1495                10.0143
 Raman Activ --     4.6360                 1.0045                 1.0724

                    49                     50                     51
                     A                      A                      A
 Frequencies --   889.7926               926.8007               971.1267
 Red. masses --     1.1643                 5.8139                 3.5860
 Frc consts  --     0.5431                 2.9423                 1.9926
 IR Inten    --    59.3016                89.3904                46.7158
 Raman Activ --     0.4915                 2.4867                 1.5272

                    52                     53                     54
                     A                      A                      A
 Frequencies --   990.4476               999.8950              1004.2683
 Red. masses --     5.6304                 5.5797                 6.8028
 Frc consts  --     3.2542                 3.2868                 4.0424
 IR Inten    --    15.8406                62.1892                95.1137
 Raman Activ --     2.9152                 0.7043                 1.2054

                    55                     56                     57
                     A                      A                      A
 Frequencies --  1011.0411              1018.6654              1029.3918
 Red. masses --     4.9601                 5.3298                 4.7002
 Frc consts  --     2.9873                 3.2586                 2.9344
 IR Inten    --   351.3337               182.1406                62.2392
 Raman Activ --     1.1782                 4.8084                 3.0361

                    58                     59                     60
                     A                      A                      A
 Frequencies --  1040.3654              1059.5921              1068.1271
 Red. masses --     3.5707                 7.3691                 2.8488
 Frc consts  --     2.2771                 4.8746                 1.9149
 IR Inten    --   205.0309               226.8926                43.2779
 Raman Activ --     1.2148                 1.6214                 7.6111

                    61                     62                     63
                     A                      A                      A
 Frequencies --  1079.2542              1083.3310              1091.0926
 Red. masses --     4.4054                 5.4016                 2.9575
 Frc consts  --     3.0233                 3.7350                 2.0744
 IR Inten    --    39.1876               107.7185                30.2877
 Raman Activ --     4.3386                 0.6335                13.7069

                    64                     65                     66
                     A                      A                      A
 Frequencies --  1106.2804              1112.6698              1127.9727
 Red. masses --     2.3503                 2.9418                 2.4684
 Frc consts  --     1.6948                 2.1458                 1.8504
 IR Inten    --   130.3239                 7.1591                 3.0564
 Raman Activ --     3.6523                 5.5775                 6.6569

                    67                     68                     69
                     A                      A                      A
 Frequencies --  1128.4350              1137.7624              1144.2875
 Red. masses --     3.1185                 2.5458                 2.3254
 Frc consts  --     2.3397                 1.9417                 1.7940
 IR Inten    --     6.3667                68.2463                39.5524
 Raman Activ --    14.4080                 5.3949                 4.2826

                    70                     71                     72
                     A                      A                      A
 Frequencies --  1153.4814              1155.7534              1163.1092
 Red. masses --     2.0289                 2.0306                 2.4134
 Frc consts  --     1.5905                 1.5981                 1.9236
 IR Inten    --    32.4136                18.9497                 4.9837
 Raman Activ --     3.6963                 3.8238                 2.1519

                    73                     74                     75
                     A                      A                      A
 Frequencies --  1171.5633              1187.7240              1189.9265
 Red. masses --     2.3671                 1.5584                 1.7079
 Frc consts  --     1.9142                 1.2952                 1.4248
 IR Inten    --    19.6139                 8.5439                42.0945
 Raman Activ --     6.4360                 2.6575                 3.4654

                    76                     77                     78
                     A                      A                      A
 Frequencies --  1210.6502              1221.9136              1237.2368
 Red. masses --     1.6308                 1.5239                 1.2055
 Frc consts  --     1.4082                 1.3406                 1.0872
 IR Inten    --    12.6022                15.0585                21.5752
 Raman Activ --     1.3340                 2.7693                 1.1880

                    79                     80                     81
                     A                      A                      A
 Frequencies --  1249.9692              1255.3392              1265.1034
 Red. masses --     1.5207                 1.6062                 1.2242
 Frc consts  --     1.3999                 1.4913                 1.1544
 IR Inten    --    24.0056                 4.6049                21.5547
 Raman Activ --     1.8450                 0.4912                 0.7222

                    82                     83                     84
                     A                      A                      A
 Frequencies --  1283.6278              1289.2262              1300.7501
 Red. masses --     1.3771                 1.2584                 1.2420
 Frc consts  --     1.3369                 1.2323                 1.2382
 IR Inten    --    16.8996                18.2863                15.6939
 Raman Activ --     2.3702                 5.7033                 1.3856

                    85                     86                     87
                     A                      A                      A
 Frequencies --  1307.3209              1312.6243              1314.5792
 Red. masses --     1.2982                 1.2320                 1.3379
 Frc consts  --     1.3072                 1.2507                 1.3622
 IR Inten    --    25.0990                 5.5617                 4.7874
 Raman Activ --     1.4853                 9.9195                 1.8602

                    88                     89                     90
                     A                      A                      A
 Frequencies --  1327.2764              1335.8923              1337.9502
 Red. masses --     1.2816                 1.4038                 1.1518
 Frc consts  --     1.3302                 1.4760                 1.2148
 IR Inten    --     3.0944                24.7021                17.8980
 Raman Activ --     3.9321                 5.6466                10.2027

                    91                     92                     93
                     A                      A                      A
 Frequencies --  1341.6143              1357.5214              1366.0153
 Red. masses --     1.2684                 1.3719                 1.3873
 Frc consts  --     1.3451                 1.4896                 1.5252
 IR Inten    --    34.5594                 2.5670                31.3897
 Raman Activ --     3.2162                 7.4746                 5.3664

                    94                     95                     96
                     A                      A                      A
 Frequencies --  1375.5637              1379.2130              1382.3393
 Red. masses --     1.3700                 1.3700                 1.3235
 Frc consts  --     1.5273                 1.5355                 1.4901
 IR Inten    --     1.6414                31.6414                12.2849
 Raman Activ --     7.2673                 5.3361                 8.2748

                    97                     98                     99
                     A                      A                      A
 Frequencies --  1397.6947              1403.1331              1411.9583
 Red. masses --     1.4672                 1.4269                 1.3580
 Frc consts  --     1.6888                 1.6551                 1.5952
 IR Inten    --    30.3963                27.4205                16.3844
 Raman Activ --     2.2716                 1.2739                 1.8806

                   100                    101                    102
                     A                      A                      A
 Frequencies --  1421.4325              1470.0190              1470.7392
 Red. masses --     1.3758                 1.3185                 1.1672
 Frc consts  --     1.6377                 1.6787                 1.4875
 IR Inten    --     5.4190                 9.7678                 1.0916
 Raman Activ --     4.4823                 2.3673                 2.0912

                   103                    104                    105
                     A                      A                      A
 Frequencies --  1477.2927              1482.9415              1502.6432
 Red. masses --     1.0725                 1.1200                 1.2999
 Frc consts  --     1.3791                 1.4511                 1.7293
 IR Inten    --     3.4471                 1.6979                57.1081
 Raman Activ --     5.2598                 4.2697                 2.0895

                   106                    107                    108
                     A                      A                      A
 Frequencies --  1507.6029              1508.5734              3236.7487
 Red. masses --     1.2920                 1.3000                 1.0794
 Frc consts  --     1.7302                 1.7431                 6.6626
 IR Inten    --    69.1603                14.7104                24.0858
 Raman Activ --     1.6583                 0.6767                69.7160

                   109                    110                    111
                     A                      A                      A
 Frequencies --  3259.2791              3265.4316              3270.3435
 Red. masses --     1.0591                 1.0799                 1.0626
 Frc consts  --     6.6287                 6.7846                 6.6960
 IR Inten    --    30.6591                20.0842               150.8741
 Raman Activ --   100.6219                46.0987                25.5049

                   112                    113                    114
                     A                      A                      A
 Frequencies --  3280.2637              3282.7450              3287.0196
 Red. masses --     1.0803                 1.0820                 1.0848
 Frc consts  --     6.8485                 6.8700                 6.9059
 IR Inten    --    63.2648                15.8517                21.4324
 Raman Activ --   102.3579               112.6300                74.5463

                   115                    116                    117
                     A                      A                      A
 Frequencies --  3297.1375              3298.0061              3300.5751
 Red. masses --     1.0743                 1.0835                 1.0858
 Frc consts  --     6.8811                 6.9436                 6.9694
 IR Inten    --   384.0468                52.4027               152.8916
 Raman Activ --   204.4505                74.2180                42.1282

                   118                    119                    120
                     A                      A                      A
 Frequencies --  3308.0339              3311.0686              3312.2334
 Red. masses --     1.0880                 1.0935                 1.0931
 Frc consts  --     7.0149                 7.0631                 7.0657
 IR Inten    --    47.9215                46.1329                42.6067
 Raman Activ --     7.4591                40.8186                17.5675

                   121                    122                    123
                     A                      A                      A
 Frequencies --  3322.3217              3325.8635              3378.5751
 Red. masses --     1.0956                 1.0975                 1.0650
 Frc consts  --     7.1249                 7.1524                 7.1624
 IR Inten    --     6.2095                81.9723               188.9541
 Raman Activ --    46.6020                34.8868               120.9730

                   124                    125                    126
                     A                      A                      A
 Frequencies --  3393.0878              3397.4058              3401.4818
 Red. masses --     1.0666                 1.0672                 1.0659
 Frc consts  --     7.2354                 7.2576                 7.2658
 IR Inten    --    36.5789                54.9527                38.6318
 Raman Activ --   109.9488               160.8931               130.6217

                   127                    128                    129
                     A                      A                      A
 Frequencies --  3405.2996              3919.3794              3920.6871
 Red. masses --     1.0673                 1.0677                 1.0675
 Frc consts  --     7.2920                 9.6632                 9.6683
 IR Inten    --    68.5267                73.3063                62.5495
 Raman Activ --   154.2969                96.4386               111.1501

 - Thermochemistry -
 -------------------
 Temperature   298.150 Kelvin.  Pressure   1.00000 Atm.
 Atom     1 has atomic number  8 and mass  15.99491

 Molecular mass:   342.11621 amu.
 Principal axes and moments of inertia in atomic units:
                           1         2         3
     Eigenvalues --  4532.71459********************
           X            0.99997   0.00827  -0.00046
           Y           -0.00827   0.99997   0.00082
           Z            0.00047  -0.00082   1.00000
 This molecule is an asymmetric top.
 Rotational symmetry number  1.
 Warning -- assumption of classical behavior for rotation
           may cause significant error
 Rotational temperatures (Kelvin)      0.01911     0.00698     0.00526
 Rotational constants (GHZ):           0.39816     0.14551     0.10969
    7 imaginary frequencies ignored.
 Zero-point vibrational energy     979436.6 (Joules/Mol)
                                  234.09098 (Kcal/Mol)
 Warning -- explicit consideration of  32 degrees of freedom as
           vibrations may cause significant error
 Vibrational temperatures:     61.07    97.76   115.46   122.91   180.64
          (Kelvin)            203.44   242.65   269.09   298.12   328.64
                              355.71   386.91   407.17   430.92   435.44
                              444.73   454.81   489.62   507.02   539.41
                              578.25   598.50   618.07   624.56   665.81
                              705.33   735.04   751.35   817.34   845.13
                              852.26   889.95   901.57   967.02   993.30
                              993.77  1013.41  1022.86  1113.70  1206.89
                             1234.00  1280.21  1333.46  1397.23  1425.03
                             1438.62  1444.92  1454.66  1465.63  1481.06
                             1496.85  1524.51  1536.79  1552.80  1558.67
                             1569.84  1591.69  1600.88  1622.90  1623.56
                             1636.98  1646.37  1659.60  1662.87  1673.45
                             1685.62  1708.87  1712.04  1741.85  1758.06
                             1780.11  1798.42  1806.15  1820.20  1846.85
                             1854.91  1871.49  1880.94  1888.57  1891.38
                             1909.65  1922.05  1925.01  1930.28  1953.17
                             1965.39  1979.13  1984.38  1988.88  2010.97
                             2018.79  2031.49  2045.12  2115.03  2116.06
                             2125.49  2133.62  2161.97  2169.10  2170.50
                             4656.95  4689.37  4698.22  4705.29  4719.56
                             4723.13  4729.28  4743.84  4745.09  4748.79
                             4759.52  4763.88  4765.56  4780.07  4785.17
                             4861.01  4881.89  4888.10  4893.97  4899.46
                             5639.11  5640.99

 Zero-point correction=                           0.373048 (Hartree/Particle)
 Thermal correction to Energy=                    0.391520
 Thermal correction to Enthalpy=                  0.392464
 Thermal correction to Gibbs Free Energy=         0.327284
 Sum of electronic and zero-point Energies=          -1297.538967
 Sum of electronic and thermal Energies=             -1297.520495
 Sum of electronic and thermal Enthalpies=           -1297.519551
 Sum of electronic and thermal Free Energies=        -1297.584730

                     E (Thermal)             CV                S
                      KCal/Mol        Cal/Mol-Kelvin    Cal/Mol-Kelvin
 Total                  245.682             75.906            137.182
 Electronic               0.000              0.000              0.000
 Translational            0.889              2.981             43.384
 Rotational               0.889              2.981             35.180
 Vibrational            243.905             69.945             58.618
 Vibration     1          0.595              1.980              5.142
 Vibration     2          0.598              1.969              4.212
 Vibration     3          0.600              1.963              3.885
 Vibration     4          0.601              1.959              3.762
 Vibration     5          0.610              1.928              3.013
 Vibration     6          0.615              1.912              2.785
 Vibration     7          0.625              1.881              2.450
 Vibration     8          0.632              1.858              2.257
 Vibration     9          0.641              1.830              2.068
 Vibration    10          0.651              1.798              1.891
 Vibration    11          0.661              1.767              1.750
 Vibration    12          0.673              1.730              1.603
 Vibration    13          0.682              1.705              1.515
 Vibration    14          0.692              1.675              1.420
 Vibration    15          0.694              1.669              1.402
 Vibration    16          0.698              1.656              1.367
 Vibration    17          0.703              1.643              1.330
 Vibration    18          0.720              1.595              1.211
 Vibration    19          0.729              1.570              1.155
 Vibration    20          0.746              1.524              1.060
 Vibration    21          0.768              1.466              0.956
 Vibration    22          0.779              1.436              0.906
 Vibration    23          0.791              1.406              0.860
 Vibration    24          0.795              1.396              0.845
 Vibration    25          0.820              1.333              0.758
 Vibration    26          0.846              1.272              0.683
 Vibration    27          0.866              1.226              0.631
 Vibration    28          0.877              1.201              0.605
 Vibration    29          0.924              1.100              0.508
 Vibration    30          0.945              1.059              0.472
 Vibration    31          0.950              1.048              0.463
 Vibration    32          0.978              0.993              0.419

 Normal termination of Gaussian 09 at Tue Mar  1 16:04:17 2016.
