 Gaussian 09, Revision B.01,
 Gaussian 09:  EM64L-G09RevB.01 12-Aug-2010

 -------------------------------------------------
 # freq=raman b3lyp/6-31+g(2d,p) geom=connectivity
 -------------------------------------------------

 -----------------
 450 7777/7777.com
 -----------------
 Symbolic Z-matrix:
 Charge =  0 Multiplicity = 1

                         Standard orientation:
 ---------------------------------------------------------------------
 Center     Atomic      Atomic             Coordinates (Angstroms)
 Number     Number       Type             X           Y           Z
 ---------------------------------------------------------------------
      1          8           0       -5.074337    0.183402   -0.750258
      2          6           0       -3.868244   -0.065137   -0.015203
      3          6           0       -3.266311   -1.345697   -0.569266
      4          8           0       -4.046770   -2.504560   -0.243509
      5          1           0       -5.025569   -2.320728   -0.151260
      6          6           0       -1.955515   -1.682727    0.122297
      7          8           0       -1.344871   -2.872060   -0.401179
      8          1           0       -1.847200   -3.229064   -1.188373
      9          6           0       -3.472365    2.354995    0.591900
     10          8           0       -2.816219    3.627501    0.677151
     11          1           0       -3.356882    4.223949    1.270167
     12          6           0       -2.868016    1.078484    0.028309
     13          8           0       -1.627741    0.692158    0.638744
     14          6           0       -1.062287   -0.459985   -0.004029
     15          8           0        0.187027   -0.601419    0.687789
     16          6           0        1.403432   -0.266315    0.004620
     17          6           0        1.689875    1.224318    0.085998
     18          8           0        0.727254    1.965194   -0.676814
     19          1           0       -0.112144    1.914045   -0.136978
     20          6           0        3.035771    1.598094   -0.513478
     21          8           0        3.347576    2.998431   -0.542027
     22          1           0        2.883373    3.296521   -1.375876
     23          6           0        2.449464   -2.530110    0.283079
     24          8           0        3.588599   -3.402256    0.294259
     25          1           0        3.766254   -3.254279    1.267273
     26          6           0        2.534017   -1.055687    0.644143
     27          8           0        3.743773   -0.594944    0.026431
     28          6           0        4.080660    0.785317    0.232815
     29          8           0        5.304983    0.821643   -0.514337
     30          1           0        5.937513    0.215487   -0.121806
     31          1           0        2.039859   -2.578062   -0.704253
     32          1           0        1.728337   -2.963821    0.943966
     33          1           0        2.560203   -0.913484    1.704328
     34          1           0        4.193485    1.051794    1.262942
     35          1           0        3.034343    1.257646   -1.527871
     36          1           0        1.654416    1.539376    1.107948
     37          1           0        1.316667   -0.549940   -1.023451
     38          1           0       -3.776741    2.117054    1.589717
     39          1           0       -4.367119    2.525927    0.030564
     40          1           0       -2.632006    1.296827   -0.992242
     41          1           0       -5.793934   -0.321647   -0.364635
     42          1           0       -4.154561   -0.264572    0.996305
     43          1           0       -3.125401   -1.271662   -1.627360
     44          1           0       -2.157544   -1.842560    1.160824
     45          1           0       -0.882433   -0.246833   -1.037044
 ---------------------------------------------------------------------

 SCF Done:  E(RB3LYP) =  -1297.97000555     A.U. after   14 cycles

 The electronic state is 1-A.
 Alpha  occ. eigenvalues --  -19.19523 -19.19264 -19.18627 -19.17182 -19.17124
 Alpha  occ. eigenvalues --  -19.16962 -19.15734 -19.15485 -19.15162 -19.15033
 Alpha  occ. eigenvalues --  -19.14674 -10.30702 -10.28744 -10.27968 -10.27491
 Alpha  occ. eigenvalues --  -10.27017 -10.25832 -10.25293 -10.24848 -10.24397
 Alpha  occ. eigenvalues --  -10.23657 -10.23531 -10.22252  -1.10200  -1.07946
 Alpha  occ. eigenvalues --   -1.07513  -1.05534  -1.04180  -1.03296  -1.02970
 Alpha  occ. eigenvalues --   -1.02653  -1.02246  -1.00836  -0.99630  -0.82967
 Alpha  occ. eigenvalues --   -0.81860  -0.78779  -0.78077  -0.72180  -0.69434
 Alpha  occ. eigenvalues --   -0.67808  -0.65059  -0.63587  -0.62862  -0.61555
 Alpha  occ. eigenvalues --   -0.60063  -0.57796  -0.56175  -0.54970  -0.54173
 Alpha  occ. eigenvalues --   -0.53809  -0.53545  -0.52781  -0.52485  -0.51545
 Alpha  occ. eigenvalues --   -0.49828  -0.49359  -0.49155  -0.47670  -0.47615
 Alpha  occ. eigenvalues --   -0.46098  -0.45546  -0.45049  -0.43915  -0.43166
 Alpha  occ. eigenvalues --   -0.42573  -0.42181  -0.41138  -0.39781  -0.39444
 Alpha  occ. eigenvalues --   -0.39204  -0.38047  -0.37219  -0.36783  -0.36397
 Alpha  occ. eigenvalues --   -0.35377  -0.35224  -0.34858  -0.33564  -0.32979
 Alpha  occ. eigenvalues --   -0.32446  -0.31739  -0.31543  -0.31323  -0.29719
 Alpha  occ. eigenvalues --   -0.29401  -0.29211  -0.28784  -0.28057  -0.26579
 Alpha  occ. eigenvalues --   -0.26270
 Alpha virt. eigenvalues --   -0.04675  -0.02139  -0.01036  -0.00760   0.00668
 Alpha virt. eigenvalues --    0.01183   0.01618   0.01975   0.02247   0.03026
 Alpha virt. eigenvalues --    0.03892   0.04066   0.04955   0.05079   0.05499

 Mulliken atomic charges:
              1
     1  O   -0.515549
     2  C   -0.287577
     3  C    0.291896
     4  O   -0.534682
     5  H    0.308691
     6  C   -0.173597
     7  O   -0.517545
     8  H    0.337648
     9  C   -0.380135
    10  O   -0.507590
    11  H    0.334718
    12  C    0.338288
    13  O   -0.279421
    14  C    0.288681
    15  O   -0.229130
    16  C    0.139823
    17  C    0.297149
    18  O   -0.568712
    19  H    0.373805
    20  C   -0.236733
    21  O   -0.505400
    22  H    0.339135
    23  C   -0.192347
    24  O   -0.450498
    25  H    0.311978
    26  C   -0.149985
    27  O   -0.207056
    28  C    0.366716
    29  O   -0.502216
    30  H    0.322417
    31  H    0.137822
    32  H    0.159471
    33  H    0.113468
    34  H    0.128007
    35  H    0.129420
    36  H    0.123935
    37  H    0.110930
    38  H    0.131204
    39  H    0.169836
    40  H    0.120998
    41  H    0.323622
    42  H    0.131633
    43  H    0.136544
    44  H    0.138731
    45  H    0.131605
 Sum of Mulliken atomic charges =   0.00000

 Dipole moment (field-independent basis, Debye):
    X=             -8.1349    Y=             -0.4173    Z=              2.4632  Tot=              8.5099
 Quadrupole moment (field-independent basis, Debye-Ang):
   XX=           -118.3803   YY=           -155.1864   ZZ=           -130.0310
   XY=             -4.1329   XZ=              5.4072   YZ=              2.8252

  Exact polarizability: 224.284   0.260 199.770   0.301   0.298 148.092
 Approx polarizability: 266.794  -1.228 259.395  -0.957   0.306 247.152

 ******    7 imaginary frequencies (negative Signs) ******

                     1                      2                      3
                     A                      A                      A
 Frequencies --  -328.3014              -291.4074              -285.0907
 Red. masses --     1.6355                 1.6563                 1.1774
 Frc consts  --     0.1039                 0.0829                 0.0564
 IR Inten    --     3.3830                 2.9394                90.6237
 Raman Activ --     0.0711                 0.0580                 0.7180

                     4                      5                      6
                     A                      A                      A
 Frequencies --  -204.2689               -68.1673               -58.4786
 Red. masses --     1.1145                 6.3767                 6.3699
 Frc consts  --     0.0274                 0.0175                 0.0128
 IR Inten    --   138.1297                 0.0940                 1.7735
 Raman Activ --     1.4851                 0.0468                 0.0399

                     7                      8                      9
                     A                      A                      A
 Frequencies --   -36.0496                34.5006                38.8413
 Red. masses --     6.5513                 6.3817                 6.3834
 Frc consts  --     0.0050                 0.0045                 0.0057
 IR Inten    --     0.7137                 0.4235                 1.0006
 Raman Activ --     0.1039                 0.0679                 0.0602

                    10                     11                     12
                     A                      A                      A
 Frequencies --    69.3129                96.0364               103.5497
 Red. masses --     5.5998                 6.3495                 6.8836
 Frc consts  --     0.0159                 0.0345                 0.0435
 IR Inten    --     2.0197                 0.8424                 1.6116
 Raman Activ --     0.3050                 0.2968                 0.2084

                    13                     14                     15
                     A                      A                      A
 Frequencies --   124.9421               136.5753               157.4846
 Red. masses --     5.3412                 6.4350                 6.8959
 Frc consts  --     0.0491                 0.0707                 0.1008
 IR Inten    --     0.7678                 4.3842                 0.6315
 Raman Activ --     0.2563                 0.5337                 0.3924

                    16                     17                     18
                     A                      A                      A
 Frequencies --   191.7126               209.0345               266.4593
 Red. masses --     6.3753                 5.4331                 4.7698
 Frc consts  --     0.1381                 0.1399                 0.1995
 IR Inten    --     0.9088                 0.5638                13.0710
 Raman Activ --     1.9499                 0.7757                 0.3528

                    19                     20                     21
                     A                      A                      A
 Frequencies --   272.8380               281.3130               298.0099
 Red. masses --     5.5217                 5.3913                 5.5535
 Frc consts  --     0.2422                 0.2514                 0.2906
 IR Inten    --     7.8052                12.5327                 4.2200
 Raman Activ --     0.1233                 1.7086                 0.3316

                    22                     23                     24
                     A                      A                      A
 Frequencies --   303.5031               322.2357               328.2012
 Red. masses --     4.6707                 6.6780                 6.2390
 Frc consts  --     0.2535                 0.4086                 0.3960
 IR Inten    --     1.5496                 1.0697                 2.7493
 Raman Activ --     0.3358                 2.2556                 8.0748

                    25                     26                     27
                     A                      A                      A
 Frequencies --   341.7383               356.1314               380.9925
 Red. masses --     5.4436                 6.3276                 4.1368
 Frc consts  --     0.3746                 0.4728                 0.3538
 IR Inten    --    12.1385                 3.9994                 4.4277
 Raman Activ --     0.8617                 0.6541                 0.6995

                    28                     29                     30
                     A                      A                      A
 Frequencies --   414.8326               425.8729               431.5521
 Red. masses --     5.1252                 5.1030                 4.7866
 Frc consts  --     0.5196                 0.5453                 0.5252
 IR Inten    --     1.7434                 6.2328                 5.9251
 Raman Activ --     3.2493                 3.3031                 2.2054

                    31                     32                     33
                     A                      A                      A
 Frequencies --   439.2333               470.7050               492.1954
 Red. masses --     6.1335                 3.7551                 4.5750
 Frc consts  --     0.6972                 0.4902                 0.6530
 IR Inten    --     1.4374                 8.4257                11.8968
 Raman Activ --     1.6408                 1.5052                 0.7364

                    34                     35                     36
                     A                      A                      A
 Frequencies --   529.9077               536.0426               559.6619
 Red. masses --     3.5276                 3.8472                 4.6378
 Frc consts  --     0.5836                 0.6513                 0.8559
 IR Inten    --    34.6691                20.8703                11.2634
 Raman Activ --     3.8242                 0.7050                 4.2233

                    37                     38                     39
                     A                      A                      A
 Frequencies --   586.8924               592.0890               597.8255
 Red. masses --     2.9138                 2.9732                 2.9400
 Frc consts  --     0.5913                 0.6141                 0.6191
 IR Inten    --    10.0994                15.3288                60.9974
 Raman Activ --     0.5210                 0.1706                 1.0826

                    40                     41                     42
                     A                      A                      A
 Frequencies --   623.2615               634.1455               652.9713
 Red. masses --     1.2522                 1.3485                 2.0192
 Frc consts  --     0.2866                 0.3195                 0.5072
 IR Inten    --    38.4615                59.7537                17.9657
 Raman Activ --     2.3630                 2.0803                 0.3354

                    43                     44                     45
                     A                      A                      A
 Frequencies --   664.0722               665.5437               704.2811
 Red. masses --     3.3139                 1.1302                 1.1435
 Frc consts  --     0.8610                 0.2950                 0.3342
 IR Inten    --    34.2907                82.8652               108.1998
 Raman Activ --     1.0831                 1.4711                 0.9327

                    46                     47                     48
                     A                      A                      A
 Frequencies --   730.8565               819.6238               833.7206
 Red. masses --     1.2458                 1.6341                 1.5761
 Frc consts  --     0.3921                 0.6468                 0.6455
 IR Inten    --   115.5308                76.8556                35.3312
 Raman Activ --     1.0081                 3.4816                 2.8337

                    49                     50                     51
                     A                      A                      A
 Frequencies --   852.8502               940.5135               955.1581
 Red. masses --     2.3973                 6.8781                 5.3429
 Frc consts  --     1.0274                 3.5847                 2.8720
 IR Inten    --    15.9348               214.4659                68.4827
 Raman Activ --     2.3576                 6.1698                 2.0172

                    52                     53                     54
                     A                      A                      A
 Frequencies --   964.9673               967.8443               990.1808
 Red. masses --     4.9411                 4.5081                 6.3109
 Frc consts  --     2.7108                 2.4880                 3.6456
 IR Inten    --   122.1712               149.7712               232.5329
 Raman Activ --     2.8112                 1.3726                 2.0285

                    55                     56                     57
                     A                      A                      A
 Frequencies --   993.5056              1012.3893              1020.8957
 Red. masses --     4.2327                 4.0436                 5.8580
 Frc consts  --     2.4615                 2.4418                 3.5972
 IR Inten    --    26.2607               223.4371                44.3196
 Raman Activ --     1.5053                 1.7086                 0.7645

                    58                     59                     60
                     A                      A                      A
 Frequencies --  1029.4000              1050.7076              1058.2220
 Red. masses --     2.9611                 4.3451                 4.5636
 Frc consts  --     1.8487                 2.8263                 3.0110
 IR Inten    --    56.0331               311.1606                15.5931
 Raman Activ --     1.6533                 4.4167                15.2411

                    61                     62                     63
                     A                      A                      A
 Frequencies --  1061.6327              1070.1435              1083.4118
 Red. masses --     4.2454                 4.6076                 5.3733
 Frc consts  --     2.8192                 3.1089                 3.7160
 IR Inten    --    60.3057                11.3216               104.1469
 Raman Activ --     5.3800                16.6021                 6.8710

                    64                     65                     66
                     A                      A                      A
 Frequencies --  1089.2006              1097.4172              1107.7211
 Red. masses --     2.8935                 2.3895                 2.3240
 Frc consts  --     2.0225                 1.6955                 1.6801
 IR Inten    --    18.8615                20.1569                24.0431
 Raman Activ --     4.6630                 3.9360                 2.5318

                    67                     68                     69
                     A                      A                      A
 Frequencies --  1122.5181              1127.7099              1130.9570
 Red. masses --     3.4448                 2.5427                 2.3988
 Frc consts  --     2.5574                 1.9052                 1.8078
 IR Inten    --    26.8038                 1.8318                79.6494
 Raman Activ --     7.2404                 1.6206                 5.1513

                    70                     71                     72
                     A                      A                      A
 Frequencies --  1138.0982              1143.5754              1145.4706
 Red. masses --     2.4549                 2.5695                 2.1990
 Frc consts  --     1.8734                 1.9799                 1.7000
 IR Inten    --    36.4100                 4.1566                44.4658
 Raman Activ --     0.3255                 3.6174                 1.7709

                    73                     74                     75
                     A                      A                      A
 Frequencies --  1146.3110              1169.9003              1177.2194
 Red. masses --     1.6336                 2.3850                 2.1392
 Frc consts  --     1.2648                 1.9233                 1.7467
 IR Inten    --     4.5330                22.6846                10.2053
 Raman Activ --     4.5243                 1.9939                 3.2941

                    76                     77                     78
                     A                      A                      A
 Frequencies --  1188.8582              1200.9044              1219.1517
 Red. masses --     1.3576                 1.2632                 1.2999
 Frc consts  --     1.1306                 1.0733                 1.1384
 IR Inten    --     5.2016                10.0650                 1.0327
 Raman Activ --     2.1636                 4.3476                 0.8554

                    79                     80                     81
                     A                      A                      A
 Frequencies --  1234.0515              1245.5826              1257.4837
 Red. masses --     1.3230                 1.3163                 1.1650
 Frc consts  --     1.1871                 1.2032                 1.0854
 IR Inten    --    16.2016                 6.3226                 9.6853
 Raman Activ --     0.5635                 2.9610                 1.0758

                    82                     83                     84
                     A                      A                      A
 Frequencies --  1262.9645              1276.8611              1279.3258
 Red. masses --     1.2183                 1.3968                 1.4541
 Frc consts  --     1.1450                 1.3417                 1.4022
 IR Inten    --     6.8310                12.2680                24.0928
 Raman Activ --     0.6160                 0.8792                 2.6944

                    85                     86                     87
                     A                      A                      A
 Frequencies --  1288.7896              1301.4596              1317.9855
 Red. masses --     1.3200                 1.2866                 1.2213
 Frc consts  --     1.2917                 1.2840                 1.2500
 IR Inten    --     9.0604                40.9438                 5.1612
 Raman Activ --     4.4416                 5.4906                 3.7571

                    88                     89                     90
                     A                      A                      A
 Frequencies --  1321.8869              1323.7718              1334.6716
 Red. masses --     1.2604                 1.2209                 1.3586
 Frc consts  --     1.2976                 1.2605                 1.4259
 IR Inten    --    22.1624                 7.2821                 5.8864
 Raman Activ --     2.2966                 5.5453                 6.6441

                    91                     92                     93
                     A                      A                      A
 Frequencies --  1340.7689              1341.5260              1355.3303
 Red. masses --     1.4383                 1.4929                 1.2037
 Frc consts  --     1.5233                 1.5830                 1.3027
 IR Inten    --    16.8264                 7.5842                13.3636
 Raman Activ --     6.2153                 6.5421                 1.8399

                    94                     95                     96
                     A                      A                      A
 Frequencies --  1369.6448              1369.7282              1381.2845
 Red. masses --     1.3044                 1.2852                 1.1895
 Frc consts  --     1.4417                 1.4207                 1.3372
 IR Inten    --    26.8274                14.8157                26.2543
 Raman Activ --     3.3632                 4.8055                 4.6984

                    97                     98                     99
                     A                      A                      A
 Frequencies --  1383.4554              1396.9296              1398.8922
 Red. masses --     1.3865                 1.3486                 1.4543
 Frc consts  --     1.5635                 1.5505                 1.6768
 IR Inten    --     6.3692                 1.1421                 7.8710
 Raman Activ --     2.8640                 1.2038                 6.6829

                   100                    101                    102
                     A                      A                      A
 Frequencies --  1405.4323              1440.4564              1453.9023
 Red. masses --     1.4941                 1.3465                 1.0713
 Frc consts  --     1.7388                 1.6461                 1.3342
 IR Inten    --    56.8890                77.6416                 2.5976
 Raman Activ --     2.5955                 4.1180                 5.6586

                   103                    104                    105
                     A                      A                      A
 Frequencies --  1458.4053              1470.6385              1482.1344
 Red. masses --     1.0828                 1.3371                 1.2793
 Frc consts  --     1.3570                 1.7038                 1.6558
 IR Inten    --     1.8031                 9.3477                14.7030
 Raman Activ --     4.2311                 1.4956                 2.4867

                   106                    107                    108
                     A                      A                      A
 Frequencies --  1506.9773              1525.6642              3252.7523
 Red. masses --     1.3366                 1.1451                 1.0673
 Frc consts  --     1.7884                 1.5704                 6.6533
 IR Inten    --    52.4929                64.7476                19.2497
 Raman Activ --     2.3273                 2.2918               138.0852

                   109                    110                    111
                     A                      A                      A
 Frequencies --  3260.2882              3261.5723              3274.7260
 Red. masses --     1.0735                 1.0602                 1.0831
 Frc consts  --     6.7233                 6.6452                 6.8435
 IR Inten    --    15.4898                35.0011                 9.6974
 Raman Activ --    16.9565                63.5526                43.8994

                   112                    113                    114
                     A                      A                      A
 Frequencies --  3276.8529              3278.9361              3281.6917
 Red. masses --     1.0833                 1.0829                 1.0849
 Frc consts  --     6.8535                 6.8600                 6.8839
 IR Inten    --    13.5234                 3.9203                 3.2108
 Raman Activ --    35.5838                78.1729               140.0497

                   115                    116                    117
                     A                      A                      A
 Frequencies --  3284.4874              3288.9521              3292.4546
 Red. masses --     1.0850                 1.0845                 1.0864
 Frc consts  --     6.8961                 6.9118                 6.9387
 IR Inten    --     1.1382                15.4601                 0.3844
 Raman Activ --     6.5158                75.0076                67.4694

                   118                    119                    120
                     A                      A                      A
 Frequencies --  3302.6838              3305.2864              3308.0019
 Red. masses --     1.0874                 1.0960                 1.0922
 Frc consts  --     6.9886                 7.0550                 7.0420
 IR Inten    --    55.9291                 3.7168                80.6308
 Raman Activ --    33.4552                33.1755                20.8897

                   121                    122                    123
                     A                      A                      A
 Frequencies --  3320.1873              3347.9584              3358.9239
 Red. masses --     1.1001                 1.0664                 1.0667
 Frc consts  --     7.1450                 7.0428                 7.0907
 IR Inten    --    56.4329               237.7637                10.6737
 Raman Activ --    31.0926               158.4857               152.6350

                   124                    125                    126
                     A                      A                      A
 Frequencies --  3368.6465              3373.2569              3375.8776
 Red. masses --     1.0678                 1.0674                 1.0676
 Frc consts  --     7.1395                 7.1563                 7.1683
 IR Inten    --     6.2465                68.1707                40.3625
 Raman Activ --    39.9681               144.2140                71.6858

                   127                    128                    129
                     A                      A                      A
 Frequencies --  3380.6405              3882.2591              3886.9302
 Red. masses --     1.0659                 1.0674                 1.0664
 Frc consts  --     7.1776                 9.4785                 9.4929
 IR Inten    --    44.3492                52.5231                47.7027
 Raman Activ --    75.3767                91.8164               124.3196

 - Thermochemistry -
 -------------------
 Temperature   298.150 Kelvin.  Pressure   1.00000 Atm.
 Atom     1 has atomic number  8 and mass  15.99491

 Molecular mass:   342.11621 amu.
 Principal axes and moments of inertia in atomic units:
                           1         2         3
     Eigenvalues --  4804.72770********************
           X            0.99998  -0.00585   0.00073
           Y            0.00585   0.99998   0.00166
           Z           -0.00074  -0.00165   1.00000
 This molecule is an asymmetric top.
 Rotational symmetry number  1.
 Warning -- assumption of classical behavior for rotation
           may cause significant error
 Rotational temperatures (Kelvin)      0.01803     0.00710     0.00531
 Rotational constants (GHZ):           0.37562     0.14795     0.11064
    7 imaginary frequencies ignored.
 Zero-point vibrational energy     971755.9 (Joules/Mol)
                                  232.25524 (Kcal/Mol)
 Warning -- explicit consideration of  32 degrees of freedom as
           vibrations may cause significant error
 Vibrational temperatures:     49.64    55.88    99.73   138.17   148.98
          (Kelvin)            179.76   196.50   226.58   275.83   300.75
                              383.37   392.55   404.75   428.77   436.67
                              463.62   472.21   491.68   512.39   548.16
                              596.85   612.74   620.91   631.96   677.24
                              708.16   762.42   771.24   805.23   844.41
                              851.88   860.14   896.73   912.39   939.48
                              955.45   957.57  1013.30  1051.54  1179.25
                             1199.54  1227.06  1353.19  1374.26  1388.37
                             1392.51  1424.65  1429.43  1456.60  1468.84
                             1481.08  1511.73  1522.54  1527.45  1539.70
                             1558.79  1567.11  1578.94  1593.76  1615.05
                             1622.52  1627.19  1637.47  1645.35  1648.07
                             1649.28  1683.22  1693.75  1710.50  1727.83
                             1754.09  1775.52  1792.11  1809.24  1817.12
                             1837.12  1840.66  1854.28  1872.51  1896.28
                             1901.90  1904.61  1920.29  1929.07  1930.15
                             1950.02  1970.61  1970.73  1987.36  1990.48
                             2009.87  2012.69  2022.10  2072.49  2091.84
                             2098.32  2115.92  2132.46  2168.20  2195.09
                             4679.98  4690.82  4692.67  4711.59  4714.65
                             4717.65  4721.62  4725.64  4732.06  4737.10
                             4751.82  4755.56  4759.47  4777.00  4816.96
                             4832.74  4846.72  4853.36  4857.13  4863.98
                             5585.70  5592.42

 Zero-point correction=                           0.370122 (Hartree/Particle)
 Thermal correction to Energy=                    0.388943
 Thermal correction to Enthalpy=                  0.389887
 Thermal correction to Gibbs Free Energy=         0.323184
 Sum of electronic and zero-point Energies=          -1297.599883
 Sum of electronic and thermal Energies=             -1297.581062
 Sum of electronic and thermal Enthalpies=           -1297.580118
 Sum of electronic and thermal Free Energies=        -1297.646822

                     E (Thermal)             CV                S
                      KCal/Mol        Cal/Mol-Kelvin    Cal/Mol-Kelvin
 Total                  244.066             76.859            140.390
 Electronic               0.000              0.000              0.000
 Translational            0.889              2.981             43.384
 Rotational               0.889              2.981             35.213
 Vibrational            242.288             70.897             61.793
 Vibration     1          0.594              1.983              5.552
 Vibration     2          0.594              1.981              5.317
 Vibration     3          0.598              1.969              4.173
 Vibration     4          0.603              1.952              3.533
 Vibration     5          0.605              1.946              3.386
 Vibration     6          0.610              1.928              3.022
 Vibration     7          0.614              1.917              2.851
 Vibration     8          0.621              1.894              2.580
 Vibration     9          0.634              1.851              2.211
 Vibration    10          0.642              1.827              2.052
 Vibration    11          0.672              1.735              1.619
 Vibration    12          0.676              1.723              1.578
 Vibration    13          0.681              1.708              1.526
 Vibration    14          0.691              1.677              1.428
 Vibration    15          0.695              1.667              1.398
 Vibration    16          0.707              1.631              1.299
 Vibration    17          0.711              1.619              1.269
 Vibration    18          0.721              1.592              1.204
 Vibration    19          0.732              1.563              1.139
 Vibration    20          0.751              1.511              1.035
 Vibration    21          0.778              1.438              0.910
 Vibration    22          0.788              1.414              0.872
 Vibration    23          0.793              1.402              0.854
 Vibration    24          0.799              1.385              0.829
 Vibration    25          0.828              1.315              0.736
 Vibration    26          0.848              1.267              0.678
 Vibration    27          0.885              1.184              0.587
 Vibration    28          0.891              1.170              0.574
 Vibration    29          0.915              1.119              0.525
 Vibration    30          0.944              1.060              0.473
 Vibration    31          0.950              1.049              0.463
 Vibration    32          0.956              1.036              0.453

 Normal termination of Gaussian 09 at Mon Mar 28 11:24:16 2016.
