 Gaussian 09, Revision B.01,
 Gaussian 09:  EM64L-G09RevB.01 12-Aug-2010

 -------------------------------------------------
 # freq=raman b3lyp/6-31+g(2d,p) geom=connectivity
 -------------------------------------------------

 -----------------
 550 7946/7946.com
 -----------------
 Symbolic Z-matrix:
 Charge =  0 Multiplicity = 1

                         Standard orientation:
 ---------------------------------------------------------------------
 Center     Atomic      Atomic             Coordinates (Angstroms)
 Number     Number       Type             X           Y           Z
 ---------------------------------------------------------------------
      1          8           0        5.050097   -0.067799    0.546412
      2          6           0        3.902646   -0.116451   -0.314481
      3          6           0        3.154196   -1.371880    0.100863
      4          8           0        3.933599   -2.489415   -0.348154
      5          1           0        4.836981   -2.309816    0.039166
      6          6           0        1.705462   -1.440513   -0.354128
      7          8           0        1.110463   -2.577524    0.288220
      8          1           0        1.673553   -3.403423    0.308826
      9          6           0        3.736901    2.376913    0.038563
     10          8           0        2.963964    3.584167    0.082985
     11          1           0        3.450845    4.389098   -0.255518
     12          6           0        3.012895    1.042377    0.105634
     13          8           0        1.805383    1.021372   -0.670138
     14          6           0        1.056401   -0.082759   -0.141540
     15          8           0       -0.297720    0.026184   -0.605305
     16          6           0       -1.456532   -0.384749    0.133451
     17          6           0       -2.062221    0.599013    1.121425
     18          8           0       -2.665209   -0.086850    2.228266
     19          1           0       -2.024112   -0.808932    2.489334
     20          6           0       -2.852280    1.641473    0.345868
     21          8           0       -2.289636    2.770218   -0.337173
     22          1           0       -1.306069    2.800258   -0.161663
     23          6           0       -2.440334   -2.421548   -0.725660
     24          8           0       -2.939035   -3.137042    0.414695
     25          1           0       -2.180328   -3.378396    1.019541
     26          6           0       -2.533698   -0.906845   -0.803070
     27          8           0       -3.843176   -0.350142   -0.622280
     28          6           0       -3.834140    1.083711   -0.671842
     29          8           0       -5.111451    1.508394   -0.175475
     30          1           0        5.823496   -0.372714    0.066327
     31          1           0        4.302162    2.390519   -0.869840
     32          1           0        4.429038    2.408321    0.853952
     33          1           0        2.738709    0.880524    1.127166
     34          1           0        4.154276   -0.100407   -1.354348
     35          1           0        3.148701   -1.397738    1.170537
     36          1           0        1.705735   -1.632315   -1.406797
     37          1           0        1.020157    0.062108    0.917988
     38          1           0       -5.768727    1.424443   -0.870126
     39          1           0       -3.645240    1.452940   -1.658192
     40          1           0       -3.470829    2.084182    1.098401
     41          1           0       -1.234698    1.131225    1.541966
     42          1           0       -1.142529   -1.224153    0.718005
     43          1           0       -2.231009   -0.635616   -1.792875
     44          1           0       -1.405695   -2.675600   -0.825062
     45          1           0       -2.948424   -2.809463   -1.583719
 ---------------------------------------------------------------------

 SCF Done:  E(RB3LYP) =  -1297.93244330     A.U. after   13 cycles

 The electronic state is 1-A.
 Alpha  occ. eigenvalues --  -19.19722 -19.19265 -19.18617 -19.18212 -19.17287
 Alpha  occ. eigenvalues --  -19.16337 -19.16266 -19.15465 -19.15303 -19.14866
 Alpha  occ. eigenvalues --  -19.14864 -10.31827 -10.27571 -10.27151 -10.26893
 Alpha  occ. eigenvalues --  -10.26589 -10.26217 -10.24860 -10.24631 -10.24592
 Alpha  occ. eigenvalues --  -10.23572 -10.22879 -10.22785  -1.09968  -1.08192
 Alpha  occ. eigenvalues --   -1.06424  -1.05778  -1.04264  -1.03765  -1.02851
 Alpha  occ. eigenvalues --   -1.02475  -1.01899  -1.01477  -0.99853  -0.82614
 Alpha  occ. eigenvalues --   -0.81914  -0.78713  -0.77268  -0.72477  -0.70212
 Alpha  occ. eigenvalues --   -0.67998  -0.65471  -0.63361  -0.63224  -0.62324
 Alpha  occ. eigenvalues --   -0.57814  -0.57033  -0.56124  -0.55363  -0.54866
 Alpha  occ. eigenvalues --   -0.53887  -0.53602  -0.52630  -0.52394  -0.51595
 Alpha  occ. eigenvalues --   -0.51182  -0.49598  -0.48208  -0.47751  -0.46756
 Alpha  occ. eigenvalues --   -0.46242  -0.45265  -0.44905  -0.43943  -0.43671
 Alpha  occ. eigenvalues --   -0.43032  -0.42163  -0.40651  -0.39556  -0.39293
 Alpha  occ. eigenvalues --   -0.39076  -0.38043  -0.37755  -0.37558  -0.36383
 Alpha  occ. eigenvalues --   -0.35788  -0.34929  -0.33646  -0.33592  -0.33398
 Alpha  occ. eigenvalues --   -0.32455  -0.31724  -0.31048  -0.30446  -0.29728
 Alpha  occ. eigenvalues --   -0.29531  -0.28570  -0.28139  -0.27766  -0.26850
 Alpha  occ. eigenvalues --   -0.24817
 Alpha virt. eigenvalues --   -0.04002  -0.02445  -0.01883  -0.00467  -0.00108
 Alpha virt. eigenvalues --    0.01143   0.01470   0.02111   0.02392   0.02976
 Alpha virt. eigenvalues --    0.03205   0.04224   0.04455   0.05130   0.05361

 Mulliken atomic charges:
              1
     1  O   -0.549545
     2  C   -0.029088
     3  C    0.139387
     4  O   -0.583021
     5  H    0.328128
     6  C    0.205940
     7  O   -0.587727
     8  H    0.373593
     9  C   -0.240386
    10  O   -0.511880
    11  H    0.335967
    12  C    0.326406
    13  O   -0.241541
    14  C    0.043481
    15  O   -0.400637
    16  C    0.108699
    17  C    0.070951
    18  O   -0.491274
    19  H    0.321168
    20  C    0.043534
    21  O   -0.501987
    22  H    0.331973
    23  C   -0.579706
    24  O   -0.455385
    25  H    0.318868
    26  C    0.308304
    27  O   -0.284488
    28  C    0.311011
    29  O   -0.513281
    30  H    0.332305
    31  H    0.127722
    32  H    0.163786
    33  H    0.113731
    34  H    0.138931
    35  H    0.138743
    36  H    0.131551
    37  H    0.102402
    38  H    0.320014
    39  H    0.129390
    40  H    0.140146
    41  H    0.084599
    42  H    0.061332
    43  H    0.109170
    44  H    0.167436
    45  H    0.141277
 Sum of Mulliken atomic charges =   0.00000

 Dipole moment (field-independent basis, Debye):
    X=             10.0937    Y=             -1.2704    Z=             -1.1686  Tot=             10.2402
 Quadrupole moment (field-independent basis, Debye-Ang):
   XX=           -126.9271   YY=           -139.1990   ZZ=           -136.7554
   XY=              0.1678   XZ=              7.9670   YZ=             -5.0731

  Exact polarizability: 217.525  -1.090 196.246   1.655  -2.784 153.099
 Approx polarizability: 266.938  -1.619 258.787   0.512  -9.386 244.950

 ******    7 imaginary frequencies (negative Signs) ******

                     1                      2                      3
                     A                      A                      A
 Frequencies --  -283.7829              -140.5760              -129.2135
 Red. masses --     1.7605                 2.1547                 1.4082
 Frc consts  --     0.0835                 0.0251                 0.0139
 IR Inten    --     4.3614                 4.2762               111.6474
 Raman Activ --     0.1618                 0.1787                 1.0514

                     4                      5                      6
                     A                      A                      A
 Frequencies --  -108.0639               -65.6874               -59.5522
 Red. masses --     4.0367                 5.7938                 5.8566
 Frc consts  --     0.0278                 0.0147                 0.0122
 IR Inten    --     5.1382                 1.7674                 4.6200
 Raman Activ --     0.3939                 0.0772                 0.1309

                     7                      8                      9
                     A                      A                      A
 Frequencies --   -41.0000                32.3017                42.7696
 Red. masses --     6.1685                 5.0922                 5.7457
 Frc consts  --     0.0061                 0.0031                 0.0062
 IR Inten    --     3.6793                 2.8497                 1.6597
 Raman Activ --     0.0572                 0.1762                 0.1371

                    10                     11                     12
                     A                      A                      A
 Frequencies --    66.6887                96.6728               102.0240
 Red. masses --     6.6043                 2.0264                 2.4810
 Frc consts  --     0.0173                 0.0112                 0.0152
 IR Inten    --     0.1855                41.4120                41.1151
 Raman Activ --     0.0930                 0.8080                 0.8204

                    13                     14                     15
                     A                      A                      A
 Frequencies --   126.2223               141.4393               174.8419
 Red. masses --     4.9588                 7.3813                 4.7644
 Frc consts  --     0.0465                 0.0870                 0.0858
 IR Inten    --    10.6205                 0.2462                 1.2783
 Raman Activ --     0.6336                 0.6537                 0.5037

                    16                     17                     18
                     A                      A                      A
 Frequencies --   181.0704               203.7934               236.8628
 Red. masses --     6.8865                 5.8459                 6.4224
 Frc consts  --     0.1330                 0.1430                 0.2123
 IR Inten    --     0.2582                 2.9479                 0.8934
 Raman Activ --     0.1458                 0.6598                 2.0517

                    19                     20                     21
                     A                      A                      A
 Frequencies --   258.3499               270.4100               280.7658
 Red. masses --     5.8397                 6.1925                 6.3302
 Frc consts  --     0.2296                 0.2668                 0.2940
 IR Inten    --     5.9363                 2.3914                 1.3791
 Raman Activ --     1.3054                 0.0882                 0.9472

                    22                     23                     24
                     A                      A                      A
 Frequencies --   294.5721               304.4595               311.3437
 Red. masses --     4.0958                 4.7150                 6.6504
 Frc consts  --     0.2094                 0.2575                 0.3798
 IR Inten    --     5.0422                23.3365                 3.7132
 Raman Activ --     0.4917                 1.0925                 1.1341

                    25                     26                     27
                     A                      A                      A
 Frequencies --   346.7799               372.9804               409.3895
 Red. masses --     5.1992                 4.2049                 6.5528
 Frc consts  --     0.3684                 0.3446                 0.6471
 IR Inten    --     7.0655                 7.6491                 9.2901
 Raman Activ --     1.6907                 0.4290                 0.4757

                    28                     29                     30
                     A                      A                      A
 Frequencies --   419.2564               432.1543               450.8881
 Red. masses --     4.4120                 4.6248                 4.9816
 Frc consts  --     0.4569                 0.5089                 0.5967
 IR Inten    --     6.9158                 5.0727                 2.7427
 Raman Activ --     2.2772                 2.7043                 1.7412

                    31                     32                     33
                     A                      A                      A
 Frequencies --   452.8821               494.7838               517.8164
 Red. masses --     5.6248                 5.8407                 3.4880
 Frc consts  --     0.6797                 0.8425                 0.5510
 IR Inten    --     9.6291                 3.9525                20.2810
 Raman Activ --     6.4739                 2.2759                 0.9269

                    34                     35                     36
                     A                      A                      A
 Frequencies --   522.9584               540.1567               569.3814
 Red. masses --     5.1317                 5.4204                 4.6751
 Frc consts  --     0.8269                 0.9318                 0.8930
 IR Inten    --    18.0608                12.4813                35.0008
 Raman Activ --     3.0117                 3.0451                 2.2891

                    37                     38                     39
                     A                      A                      A
 Frequencies --   586.9071               613.8410               625.1421
 Red. masses --     3.0551                 2.1746                 1.4859
 Frc consts  --     0.6200                 0.4828                 0.3421
 IR Inten    --    17.0315                10.3705                86.8984
 Raman Activ --     0.7610                 0.7675                 1.1955

                    40                     41                     42
                     A                      A                      A
 Frequencies --   630.2882               637.8107               643.4086
 Red. masses --     1.4170                 1.1083                 1.9906
 Frc consts  --     0.3317                 0.2656                 0.4855
 IR Inten    --    23.5467               206.9561                34.6486
 Raman Activ --     2.4788                 0.9822                 1.6895

                    43                     44                     45
                     A                      A                      A
 Frequencies --   661.6415               699.1991               720.3927
 Red. masses --     1.1058                 1.8771                 1.7073
 Frc consts  --     0.2852                 0.5407                 0.5220
 IR Inten    --   117.7814                26.8855                 9.3635
 Raman Activ --     1.1581                 0.9569                 0.3663

                    46                     47                     48
                     A                      A                      A
 Frequencies --   774.4096               779.5768               844.8932
 Red. masses --     4.1576                 1.1126                 2.7539
 Frc consts  --     1.4690                 0.3984                 1.1583
 IR Inten    --     6.9883                69.2917                 3.7294
 Raman Activ --     3.8323                 1.2133                 3.0480

                    49                     50                     51
                     A                      A                      A
 Frequencies --   852.7014               877.0338               917.5750
 Red. masses --     3.1012                 2.2992                 3.5305
 Frc consts  --     1.3285                 1.0420                 1.7513
 IR Inten    --    25.1159                20.1745               126.9271
 Raman Activ --     3.6347                 1.0927                 2.9146

                    52                     53                     54
                     A                      A                      A
 Frequencies --   947.2153               964.7836               967.1415
 Red. masses --     4.1889                 4.2375                 4.5702
 Frc consts  --     2.2143                 2.3239                 2.5186
 IR Inten    --   103.6714                 2.9537               207.9256
 Raman Activ --     7.8184                 2.6345                 2.4193

                    55                     56                     57
                     A                      A                      A
 Frequencies --   991.2620              1002.0927              1011.8974
 Red. masses --     5.6587                 4.5999                 4.2865
 Frc consts  --     3.2760                 2.7216                 2.5860
 IR Inten    --   303.7449                30.3481               212.9441
 Raman Activ --     0.3061                 3.2351                 3.4601

                    58                     59                     60
                     A                      A                      A
 Frequencies --  1019.3966              1036.3063              1044.9910
 Red. masses --     7.9176                 4.6150                 5.2183
 Frc consts  --     4.8476                 2.9201                 3.3574
 IR Inten    --   103.0911               183.2757               132.6388
 Raman Activ --     3.9314                 0.6228                 2.0470

                    61                     62                     63
                     A                      A                      A
 Frequencies --  1048.8256              1058.2208              1066.9382
 Red. masses --     3.9151                 3.1265                 4.0879
 Frc consts  --     2.5374                 2.0628                 2.7417
 IR Inten    --    66.1439                36.8289                48.0802
 Raman Activ --     3.1354                 0.4661                11.7848

                    64                     65                     66
                     A                      A                      A
 Frequencies --  1073.7007              1085.4796              1106.7835
 Red. masses --     3.6171                 2.7058                 2.5825
 Frc consts  --     2.4569                 1.8784                 1.8639
 IR Inten    --   110.1608                 9.4250                62.8064
 Raman Activ --    11.2797                 2.9065                 4.3886

                    67                     68                     69
                     A                      A                      A
 Frequencies --  1112.6462              1116.1638              1126.1326
 Red. masses --     2.5327                 3.7706                 2.2245
 Frc consts  --     1.8473                 2.7677                 1.6622
 IR Inten    --    22.1949                 7.8722                15.7658
 Raman Activ --     4.5126                 3.1651                 3.1664

                    70                     71                     72
                     A                      A                      A
 Frequencies --  1145.3794              1147.8975              1162.1223
 Red. masses --     2.9961                 2.4571                 1.4641
 Frc consts  --     2.3158                 1.9075                 1.1650
 IR Inten    --    73.7129                11.8347                 4.7509
 Raman Activ --     3.3000                 3.5176                 0.9911

                    73                     74                     75
                     A                      A                      A
 Frequencies --  1173.7537              1191.3971              1194.0539
 Red. masses --     1.9090                 1.7740                 1.5565
 Frc consts  --     1.5495                 1.4836                 1.3075
 IR Inten    --    29.0211                 3.5011                25.8912
 Raman Activ --     3.2665                 1.1766                 1.7909

                    76                     77                     78
                     A                      A                      A
 Frequencies --  1212.7108              1220.9525              1237.6629
 Red. masses --     1.6172                 1.5127                 1.3389
 Frc consts  --     1.4013                 1.3286                 1.2084
 IR Inten    --    28.4922                 9.4022                17.4359
 Raman Activ --     0.9839                 0.8906                 1.1914

                    79                     80                     81
                     A                      A                      A
 Frequencies --  1265.6535              1278.6961              1280.6004
 Red. masses --     1.4013                 1.2188                 1.2636
 Frc consts  --     1.3226                 1.1741                 1.2210
 IR Inten    --     4.6405                 9.6479                18.7916
 Raman Activ --     1.0817                 0.6168                 5.1808

                    82                     83                     84
                     A                      A                      A
 Frequencies --  1288.4456              1298.7046              1302.4443
 Red. masses --     1.1647                 1.0980                 1.2066
 Frc consts  --     1.1392                 1.0911                 1.2060
 IR Inten    --     0.1583                 5.9038                13.5642
 Raman Activ --     3.9888                 1.7735                 4.3881

                    85                     86                     87
                     A                      A                      A
 Frequencies --  1303.3290              1312.8075              1324.5728
 Red. masses --     1.2778                 1.3242                 1.1972
 Frc consts  --     1.2788                 1.3446                 1.2375
 IR Inten    --    36.5333                 3.6194                10.7329
 Raman Activ --     3.5742                 2.9497                 2.0517

                    88                     89                     90
                     A                      A                      A
 Frequencies --  1327.1290              1334.5694              1338.4722
 Red. masses --     1.2624                 1.2015                 1.2860
 Frc consts  --     1.3100                 1.2608                 1.3575
 IR Inten    --    14.3577                18.1436                37.3446
 Raman Activ --     1.9459                 2.2462                 2.4161

                    91                     92                     93
                     A                      A                      A
 Frequencies --  1342.2517              1352.3337              1363.6085
 Red. masses --     1.2777                 1.2273                 1.2668
 Frc consts  --     1.3563                 1.3225                 1.3878
 IR Inten    --    26.9525                30.1551                22.8016
 Raman Activ --     4.1129                 9.5115                 1.9715

                    94                     95                     96
                     A                      A                      A
 Frequencies --  1377.4125              1383.5030              1384.9967
 Red. masses --     1.5646                 1.3758                 1.3122
 Frc consts  --     1.7490                 1.5515                 1.4830
 IR Inten    --    14.1726                44.1195                 5.1741
 Raman Activ --     4.3793                 1.3976                 2.5282

                    97                     98                     99
                     A                      A                      A
 Frequencies --  1392.7936              1397.6262              1401.9797
 Red. masses --     1.3434                 1.4584                 1.3248
 Frc consts  --     1.5354                 1.6785                 1.5342
 IR Inten    --     6.8219                12.7907                 7.5311
 Raman Activ --     0.6489                 5.0213                 7.1480

                   100                    101                    102
                     A                      A                      A
 Frequencies --  1420.7575              1442.8633              1443.3195
 Red. masses --     1.2570                 1.2334                 1.2748
 Frc consts  --     1.4949                 1.5129                 1.5646
 IR Inten    --     3.1027                32.9630                10.5257
 Raman Activ --     2.4559                 3.9323                 1.4565

                   103                    104                    105
                     A                      A                      A
 Frequencies --  1460.3799              1465.0015              1466.5591
 Red. masses --     1.4339                 1.1020                 1.1026
 Frc consts  --     1.8018                 1.3935                 1.3973
 IR Inten    --    58.5248                40.1985                 1.1943
 Raman Activ --     1.6819                 5.9535                 3.5647

                   106                    107                    108
                     A                      A                      A
 Frequencies --  1472.4281              1486.0552              3243.3273
 Red. masses --     1.5252                 1.4086                 1.0821
 Frc consts  --     1.9482                 1.8327                 6.7064
 IR Inten    --    26.5514                50.9779                 7.4433
 Raman Activ --     1.1082                 1.1131                14.0303

                   109                    110                    111
                     A                      A                      A
 Frequencies --  3245.0289              3253.1839              3256.3419
 Red. masses --     1.0816                 1.0826                 1.0600
 Frc consts  --     6.7108                 6.7504                 6.6224
 IR Inten    --    59.6891                23.1505                39.2406
 Raman Activ --    47.7027                40.1629               132.6087

                   112                    113                    114
                     A                      A                      A
 Frequencies --  3262.6873              3267.0818              3271.5058
 Red. masses --     1.0682                 1.0814                 1.0831
 Frc consts  --     6.6999                 6.8010                 6.8298
 IR Inten    --     6.2793                11.8584                10.0991
 Raman Activ --    69.6171                19.6564               128.4530

                   115                    116                    117
                     A                      A                      A
 Frequencies --  3276.1107              3276.6681              3290.4527
 Red. masses --     1.0771                 1.0803                 1.0853
 Frc consts  --     6.8109                 6.8337                 6.9235
 IR Inten    --    39.3888                10.2561                34.9623
 Raman Activ --    25.2928               247.4766                 8.4320

                   118                    119                    120
                     A                      A                      A
 Frequencies --  3294.7675              3308.3108              3314.6312
 Red. masses --     1.0872                 1.0958                 1.0967
 Frc consts  --     6.9536                 7.0666                 7.0990
 IR Inten    --    29.6509                 0.8983                55.1906
 Raman Activ --    60.3281                41.7048                44.0113

                   121                    122                    123
                     A                      A                      A
 Frequencies --  3318.0686              3360.2554              3367.9335
 Red. masses --     1.1038                 1.0662                 1.0706
 Frc consts  --     7.1598                 7.0932                 7.1549
 IR Inten    --    27.8960                14.9145                23.3105
 Raman Activ --    67.4109                53.8933                62.9955

                   124                    125                    126
                     A                      A                      A
 Frequencies --  3371.7407              3372.5152              3376.6934
 Red. masses --     1.0646                 1.0682                 1.0673
 Frc consts  --     7.1308                 7.1582                 7.1703
 IR Inten    --    34.0198                62.8551                83.4071
 Raman Activ --   100.1607               169.5611               109.0421

                   127                    128                    129
                     A                      A                      A
 Frequencies --  3379.6955              3882.4076              3884.2901
 Red. masses --     1.0666                 1.0674                 1.0665
 Frc consts  --     7.1779                 9.4794                 9.4806
 IR Inten    --    28.7479                55.3714                39.9035
 Raman Activ --    67.3402               105.5853               159.9461

 - Thermochemistry -
 -------------------
 Temperature   298.150 Kelvin.  Pressure   1.00000 Atm.
 Atom     1 has atomic number  8 and mass  15.99491

 Molecular mass:   342.11621 amu.
 Principal axes and moments of inertia in atomic units:
                           1         2         3
     Eigenvalues --  4606.30777********************
           X            0.99999   0.00465   0.00237
           Y           -0.00466   0.99999   0.00100
           Z           -0.00236  -0.00101   1.00000
 This molecule is an asymmetric top.
 Rotational symmetry number  1.
 Warning -- assumption of classical behavior for rotation
           may cause significant error
 Rotational temperatures (Kelvin)      0.01880     0.00712     0.00560
 Rotational constants (GHZ):           0.39180     0.14843     0.11668
    7 imaginary frequencies ignored.
 Zero-point vibrational energy     972371.0 (Joules/Mol)
                                  232.40224 (Kcal/Mol)
 Warning -- explicit consideration of  31 degrees of freedom as
           vibrations may cause significant error
 Vibrational temperatures:     46.47    61.54    95.95   139.09   146.79
          (Kelvin)            181.61   203.50   251.56   260.52   293.21
                              340.79   371.71   389.06   403.96   423.82
                              438.05   447.95   498.94   536.63   589.02
                              603.22   621.77   648.73   651.60   711.88
                              745.02   752.42   777.16   819.21   844.43
                              883.18   899.44   906.84   917.67   925.72
                              951.95  1005.99  1036.48  1114.20  1121.64
                             1215.61  1226.85  1261.85  1320.18  1362.83
                             1388.11  1391.50  1426.20  1441.79  1455.89
                             1466.68  1491.01  1503.51  1509.02  1522.54
                             1535.08  1544.81  1561.76  1592.41  1600.85
                             1605.91  1620.25  1647.94  1651.57  1672.03
                             1688.77  1714.15  1717.98  1744.82  1756.68
                             1780.72  1820.99  1839.76  1842.50  1853.78
                             1868.54  1873.92  1875.20  1888.83  1905.76
                             1909.44  1920.15  1925.76  1931.20  1945.70
                             1961.93  1981.79  1990.55  1992.70  2003.92
                             2010.87  2017.13  2044.15  2075.96  2076.61
                             2101.16  2107.81  2110.05  2118.49  2138.10
                             4666.42  4668.87  4680.60  4685.14  4694.27
                             4700.60  4706.96  4713.59  4714.39  4734.22
                             4740.43  4759.92  4769.01  4773.95  4834.65
                             4845.70  4851.18  4852.29  4858.30  4862.62
                             5585.91  5588.62

 Zero-point correction=                           0.370357 (Hartree/Particle)
 Thermal correction to Energy=                    0.389154
 Thermal correction to Enthalpy=                  0.390099
 Thermal correction to Gibbs Free Energy=         0.323430
 Sum of electronic and zero-point Energies=          -1297.562087
 Sum of electronic and thermal Energies=             -1297.543289
 Sum of electronic and thermal Enthalpies=           -1297.542345
 Sum of electronic and thermal Free Energies=        -1297.609013

                     E (Thermal)             CV                S
                      KCal/Mol        Cal/Mol-Kelvin    Cal/Mol-Kelvin
 Total                  244.198             76.624            140.316
 Electronic               0.000              0.000              0.000
 Translational            0.889              2.981             43.384
 Rotational               0.889              2.981             35.115
 Vibrational            242.421             70.663             61.817
 Vibration     1          0.594              1.983              5.683
 Vibration     2          0.595              1.980              5.126
 Vibration     3          0.598              1.970              4.249
 Vibration     4          0.603              1.952              3.520
 Vibration     5          0.604              1.948              3.415
 Vibration     6          0.611              1.927              3.003
 Vibration     7          0.615              1.912              2.784
 Vibration     8          0.627              1.873              2.383
 Vibration     9          0.630              1.865              2.317
 Vibration    10          0.639              1.835              2.099
 Vibration    11          0.656              1.784              1.826
 Vibration    12          0.667              1.749              1.673
 Vibration    13          0.674              1.728              1.594
 Vibration    14          0.680              1.709              1.529
 Vibration    15          0.689              1.684              1.448
 Vibration    16          0.695              1.665              1.392
 Vibration    17          0.700              1.652              1.355
 Vibration    18          0.725              1.582              1.181
 Vibration    19          0.744              1.528              1.068
 Vibration    20          0.774              1.450              0.929
 Vibration    21          0.782              1.428              0.895
 Vibration    22          0.793              1.400              0.852
 Vibration    23          0.810              1.359              0.793
 Vibration    24          0.811              1.355              0.787
 Vibration    25          0.850              1.262              0.671
 Vibration    26          0.873              1.211              0.615
 Vibration    27          0.878              1.199              0.603
 Vibration    28          0.895              1.161              0.565
 Vibration    29          0.925              1.097              0.505
 Vibration    30          0.944              1.060              0.473
 Vibration    31          0.973              1.003              0.426

 Normal termination of Gaussian 09 at Mon Apr  4 21:26:34 2016.
