 Gaussian 09, Revision B.01,
 Gaussian 09:  EM64L-G09RevB.01 12-Aug-2010

 ------------------------------------------------
 # freq=raman b3lyp/6-31+g(d,p) geom=connectivity
 ------------------------------------------------

 -------------
 400 10000.com
 -------------
 Symbolic Z-matrix:
 Charge =  0 Multiplicity = 1

                         Standard orientation:
 ---------------------------------------------------------------------
 Center     Atomic      Atomic             Coordinates (Angstroms)
 Number     Number       Type             X           Y           Z
 ---------------------------------------------------------------------
      1          8           0       -4.966072   -0.289964    0.411653
      2          6           0       -3.662331   -0.200366   -0.180414
      3          6           0       -3.263553    1.252294    0.021261
      4          8           0       -4.099794    2.208203   -0.647221
      5          1           0       -5.061075    1.949868   -0.548897
      6          6           0       -1.790620    1.561699   -0.191397
      7          8           0       -1.233820    2.669290    0.531653
      8          1           0       -0.312927    2.869702    0.195118
      9          6           0       -2.955645   -2.532437    0.293493
     10          8           0       -4.233717   -3.180639    0.234679
     11          1           0       -4.037616   -4.160204    0.175720
     12          6           0       -2.658607   -1.066243    0.563256
     13          8           0       -1.350355   -0.876704    0.003873
     14          6           0       -0.928789    0.443810    0.374256
     15          8           0        0.193522    0.514980   -0.517092
     16          6           0        1.475660    0.168944    0.025025
     17          6           0        2.032748   -1.043963   -0.702036
     18          8           0        1.087475   -2.123502   -0.695550
     19          1           0        0.235599   -1.600867   -0.743995
     20          6           0        3.266712   -1.575275    0.010070
     21          8           0        3.729162   -2.729618   -0.704758
     22          1           0        4.575437   -2.999688   -0.245251
     23          6           0        2.209324    2.566140    0.266162
     24          8           0        1.359542    3.398784   -0.536437
     25          1           0        1.319728    4.321160   -0.151464
     26          6           0        2.584534    1.177751   -0.225121
     27          8           0        3.758548    0.825034    0.521570
     28          6           0        4.282174   -0.449660    0.121145
     29          8           0        5.391072   -0.635520    1.012972
     30          1           0        6.212309   -0.573702    0.519668
     31          1           0        4.694197   -0.319877   -0.857780
     32          1           0        2.986306   -1.877609    0.997423
     33          1           0        2.279094   -0.782610   -1.709959
     34          1           0        1.392116   -0.035745    1.071936
     35          1           0        2.815488    1.212365   -1.269325
     36          1           0        3.120766    3.103355    0.426082
     37          1           0        1.732297    2.448371    1.216675
     38          1           0       -5.634550   -0.167802   -0.266442
     39          1           0       -0.663298    0.556635    1.404637
     40          1           0       -1.592333    1.676337   -1.236596
     41          1           0       -3.428699    1.431169    1.063197
     42          1           0       -3.692991   -0.449731   -1.220500
     43          1           0       -2.665255   -0.856513    1.612479
     44          1           0       -2.409698   -3.066762    1.042718
     45          1           0       -2.499050   -2.736783   -0.652374
 ---------------------------------------------------------------------

 SCF Done:  E(RB3LYP) =  -1297.90989846     A.U. after   13 cycles

 The electronic state is 1-A.
 Alpha  occ. eigenvalues --  -19.19764 -19.19583 -19.19240 -19.19111 -19.18887
 Alpha  occ. eigenvalues --  -19.17794 -19.17653 -19.16681 -19.16616 -19.15461
 Alpha  occ. eigenvalues --  -19.14321 -10.31157 -10.31128 -10.26541 -10.26540
 Alpha  occ. eigenvalues --  -10.25988 -10.25820 -10.25489 -10.25438 -10.25049
 Alpha  occ. eigenvalues --  -10.24524 -10.24377 -10.23913  -1.11278  -1.09469
 Alpha  occ. eigenvalues --   -1.05750  -1.05327  -1.04401  -1.03855  -1.03248
 Alpha  occ. eigenvalues --   -1.02473  -1.02318  -1.01333  -1.00485  -0.82838
 Alpha  occ. eigenvalues --   -0.80813  -0.79534  -0.78427  -0.72126  -0.70111
 Alpha  occ. eigenvalues --   -0.67605  -0.65231  -0.63226  -0.62710  -0.61738
 Alpha  occ. eigenvalues --   -0.60695  -0.56615  -0.56370  -0.55203  -0.55008
 Alpha  occ. eigenvalues --   -0.53878  -0.53816  -0.53546  -0.51725  -0.51455
 Alpha  occ. eigenvalues --   -0.50631  -0.50484  -0.49312  -0.48788  -0.46815
 Alpha  occ. eigenvalues --   -0.46537  -0.45228  -0.44545  -0.43607  -0.43397
 Alpha  occ. eigenvalues --   -0.42555  -0.41915  -0.41731  -0.40675  -0.39761
 Alpha  occ. eigenvalues --   -0.39391  -0.38148  -0.37030  -0.36915  -0.36209
 Alpha  occ. eigenvalues --   -0.36120  -0.35721  -0.34358  -0.34083  -0.33703
 Alpha  occ. eigenvalues --   -0.33080  -0.31825  -0.31427  -0.30775  -0.29811
 Alpha  occ. eigenvalues --   -0.29386  -0.28722  -0.28382  -0.28074  -0.27002
 Alpha  occ. eigenvalues --   -0.26415
 Alpha virt. eigenvalues --   -0.02113  -0.02053  -0.02018  -0.00755   0.00012
 Alpha virt. eigenvalues --    0.00647   0.01915   0.02363   0.03094   0.03565
 Alpha virt. eigenvalues --    0.03831   0.04213   0.04347   0.05333   0.05771

 Mulliken atomic charges:
              1
     1  O   -0.519884
     2  C   -0.023375
     3  C    0.092492
     4  O   -0.521089
     5  H    0.329753
     6  C    0.080415
     7  O   -0.532614
     8  H    0.419737
     9  C   -0.151410
    10  O   -0.524486
    11  H    0.354241
    12  C    0.107147
    13  O   -0.378058
    14  C    0.043973
    15  O   -0.340645
    16  C   -0.093072
    17  C   -0.116571
    18  O   -0.490292
    19  H    0.414772
    20  C    0.201761
    21  O   -0.473664
    22  H    0.343320
    23  C   -0.029025
    24  O   -0.615863
    25  H    0.388833
    26  C    0.067308
    27  O   -0.293678
    28  C    0.069949
    29  O   -0.527775
    30  H    0.360432
    31  H    0.118383
    32  H    0.148419
    33  H    0.141725
    34  H    0.135810
    35  H    0.144387
    36  H    0.146891
    37  H    0.138353
    38  H    0.355433
    39  H    0.153702
    40  H    0.167367
    41  H    0.144576
    42  H    0.146923
    43  H    0.141131
    44  H    0.128183
    45  H    0.146087
 Sum of Mulliken atomic charges =   0.00000

 Dipole moment (field-independent basis, Debye):
    X=              2.2990    Y=              0.6244    Z=              0.0742  Tot=              2.3834
 Quadrupole moment (field-independent basis, Debye-Ang):
   XX=           -118.2492   YY=           -137.8756   ZZ=           -143.1315
   XY=             10.0535   XZ=              1.5876   YZ=             -1.6372

  Exact polarizability: 225.655  -1.194 191.560   2.870   0.721 141.761
 Approx polarizability: 264.047  -0.140 247.850   2.574   1.850 231.203

 ******    7 imaginary frequencies (negative Signs) ******

                     1                      2                      3
                     A                      A                      A
 Frequencies --  -357.3579              -345.6659              -283.1497
 Red. masses --     1.4980                 1.2480                 1.1755
 Frc consts  --     0.1127                 0.0879                 0.0555
 IR Inten    --    34.6986                98.8717               101.3139
 Raman Activ --     0.2992                 0.8856                 1.1586

                     4                      5                      6
                     A                      A                      A
 Frequencies --  -272.6505               -70.5533               -53.8684
 Red. masses --     1.8019                 6.4118                 5.8257
 Frc consts  --     0.0789                 0.0188                 0.0100
 IR Inten    --    11.5550                 1.4330                 0.9143
 Raman Activ --     0.0806                 0.0634                 0.1543

                     7                      8                      9
                     A                      A                      A
 Frequencies --   -52.4867                47.3245                52.7807
 Red. masses --     6.1979                 7.1417                 6.4003
 Frc consts  --     0.0101                 0.0094                 0.0105
 IR Inten    --     0.4377                 0.8420                 0.6305
 Raman Activ --     0.0162                 0.1702                 0.0191

                    10                     11                     12
                     A                      A                      A
 Frequencies --    72.9983                82.8534               100.4357
 Red. masses --     6.1536                 6.9744                 5.8037
 Frc consts  --     0.0193                 0.0282                 0.0345
 IR Inten    --     1.0440                 1.0671                 3.8789
 Raman Activ --     0.1408                 0.0654                 0.1361

                    13                     14                     15
                     A                      A                      A
 Frequencies --   132.9918               159.8427               177.1066
 Red. masses --     6.5571                 6.5484                 6.5612
 Frc consts  --     0.0683                 0.0986                 0.1213
 IR Inten    --     5.4318                 0.3594                 1.0869
 Raman Activ --     0.2633                 0.2143                 0.1685

                    16                     17                     18
                     A                      A                      A
 Frequencies --   195.8926               245.0909               266.6613
 Red. masses --     7.3420                 5.5064                 5.3736
 Frc consts  --     0.1660                 0.1949                 0.2251
 IR Inten    --     0.7795                 6.7691                 6.9780
 Raman Activ --     1.6679                 1.0051                 0.7773

                    19                     20                     21
                     A                      A                      A
 Frequencies --   272.7850               294.6550               299.8133
 Red. masses --     5.2492                 4.5854                 6.1844
 Frc consts  --     0.2301                 0.2346                 0.3275
 IR Inten    --     1.7564                 6.3364                 4.6371
 Raman Activ --     0.1551                 1.0931                 0.1535

                    22                     23                     24
                     A                      A                      A
 Frequencies --   307.9133               318.5516               326.0794
 Red. masses --     4.2998                 6.4771                 6.4942
 Frc consts  --     0.2402                 0.3873                 0.4068
 IR Inten    --     2.5829                 4.4887                 6.8968
 Raman Activ --     0.4376                 1.9866                 5.2335

                    25                     26                     27
                     A                      A                      A
 Frequencies --   335.3253               358.0061               393.6803
 Red. masses --     5.1137                 5.8350                 6.5644
 Frc consts  --     0.3388                 0.4406                 0.5994
 IR Inten    --     2.6555                 6.6775                 1.2293
 Raman Activ --     1.1476                 0.2542                 2.1799

                    28                     29                     30
                     A                      A                      A
 Frequencies --   410.7436               424.0191               440.1708
 Red. masses --     4.5128                 5.3143                 5.2268
 Frc consts  --     0.4486                 0.5629                 0.5967
 IR Inten    --     8.7146                13.1965                 3.8831
 Raman Activ --     1.2687                 7.0920                 2.4289

                    31                     32                     33
                     A                      A                      A
 Frequencies --   450.3179               477.4111               484.9651
 Red. masses --     4.6088                 4.7247                 4.2450
 Frc consts  --     0.5507                 0.6345                 0.5882
 IR Inten    --     4.1156                 5.6292                17.6596
 Raman Activ --     2.1685                 5.6140                 0.0524

                    34                     35                     36
                     A                      A                      A
 Frequencies --   526.0295               547.0196               577.2924
 Red. masses --     4.3636                 3.0066                 4.4312
 Frc consts  --     0.7114                 0.5301                 0.8701
 IR Inten    --     2.3844                15.5480                23.3168
 Raman Activ --     1.2906                 3.3662                 2.2450

                    37                     38                     39
                     A                      A                      A
 Frequencies --   595.4798               612.3779               633.4447
 Red. masses --     3.2627                 4.4463                 5.7916
 Frc consts  --     0.6817                 0.9824                 1.3692
 IR Inten    --    20.5009                10.4509                21.5777
 Raman Activ --     0.5655                 1.4326                 0.5347

                    40                     41                     42
                     A                      A                      A
 Frequencies --   656.6187               688.4526               693.3294
 Red. masses --     3.5660                 1.1003                 1.1072
 Frc consts  --     0.9058                 0.3073                 0.3136
 IR Inten    --    33.8237                73.9178               114.0481
 Raman Activ --     0.5162                 2.0359                 1.9945

                    43                     44                     45
                     A                      A                      A
 Frequencies --   704.7748               724.8596               734.6025
 Red. masses --     4.0312                 1.0951                 1.0661
 Frc consts  --     1.1797                 0.3390                 0.3390
 IR Inten    --    48.1065                82.6005               187.7011
 Raman Activ --     3.1568                 2.1593                 2.4738

                    46                     47                     48
                     A                      A                      A
 Frequencies --   791.8124               840.9899               849.5057
 Red. masses --     1.1120                 1.1905                 1.6207
 Frc consts  --     0.4108                 0.4961                 0.6891
 IR Inten    --   111.7089                38.0632                20.1975
 Raman Activ --     2.5364                 0.6709                 2.2347

                    49                     50                     51
                     A                      A                      A
 Frequencies --   872.9198               938.4538               972.5344
 Red. masses --     1.7415                 5.0890                 5.0329
 Frc consts  --     0.7819                 2.6406                 2.8046
 IR Inten    --     8.6871                61.2895               115.1639
 Raman Activ --     0.8639                 2.1901                 0.7637

                    52                     53                     54
                     A                      A                      A
 Frequencies --   983.0818               990.0175              1004.0579
 Red. masses --     4.9513                 4.2228                 5.9972
 Frc consts  --     2.8193                 2.4386                 3.5622
 IR Inten    --    74.2367                50.8254               109.3698
 Raman Activ --     1.7181                 4.3406                 2.7188

                    55                     56                     57
                     A                      A                      A
 Frequencies --  1017.3774              1021.5051              1031.2905
 Red. masses --     4.5199                 4.7481                 4.4351
 Frc consts  --     2.7564                 2.9191                 2.7792
 IR Inten    --    11.6233               233.4173                92.4933
 Raman Activ --     1.6682                 1.7299                 2.0361

                    58                     59                     60
                     A                      A                      A
 Frequencies --  1043.8126              1056.1832              1063.9660
 Red. masses --     2.3093                 4.2788                 5.3801
 Frc consts  --     1.4824                 2.8122                 3.5883
 IR Inten    --   120.5980               353.6287                19.8238
 Raman Activ --     5.3116                 4.2755                 0.9523

                    61                     62                     63
                     A                      A                      A
 Frequencies --  1074.0745              1076.4193              1083.9245
 Red. masses --     4.0343                 3.0130                 4.0925
 Frc consts  --     2.7421                 2.0569                 2.8329
 IR Inten    --    78.3663                 3.4105               161.7304
 Raman Activ --     0.5838                 2.2942                 6.9616

                    64                     65                     66
                     A                      A                      A
 Frequencies --  1101.6810              1105.2513              1112.1228
 Red. masses --     2.9988                 2.9402                 2.8095
 Frc consts  --     2.1444                 2.1162                 2.0473
 IR Inten    --    26.1217                41.0489                12.6619
 Raman Activ --    22.8899                12.9156                 3.2957

                    67                     68                     69
                     A                      A                      A
 Frequencies --  1120.0263              1127.9184              1134.6265
 Red. masses --     2.4966                 2.4354                 2.2739
 Frc consts  --     1.8452                 1.8255                 1.7248
 IR Inten    --    21.9212                 4.3347                63.1682
 Raman Activ --     3.4146                 8.5776                 8.9360

                    70                     71                     72
                     A                      A                      A
 Frequencies --  1144.0650              1153.0737              1161.0902
 Red. masses --     2.6239                 2.1333                 2.2047
 Frc consts  --     2.0235                 1.6712                 1.7512
 IR Inten    --     7.9711                37.0913                63.5690
 Raman Activ --     4.5943                 2.8285                 6.7198

                    73                     74                     75
                     A                      A                      A
 Frequencies --  1165.8706              1179.8755              1190.9768
 Red. masses --     2.1672                 1.7556                 1.9107
 Frc consts  --     1.7356                 1.4399                 1.5968
 IR Inten    --     4.9469                32.1757                31.4309
 Raman Activ --     2.1832                 1.7688                 0.4873

                    76                     77                     78
                     A                      A                      A
 Frequencies --  1194.4781              1213.1234              1217.1590
 Red. masses --     1.4440                 1.5638                 1.3453
 Frc consts  --     1.2138                 1.3559                 1.1743
 IR Inten    --    10.4251                 5.6456                 5.4424
 Raman Activ --     2.5918                 2.4156                 4.1826

                    79                     80                     81
                     A                      A                      A
 Frequencies --  1225.9228              1254.5945              1261.2584
 Red. masses --     1.3037                 1.3848                 1.2299
 Frc consts  --     1.1544                 1.2842                 1.1528
 IR Inten    --     7.7985                20.0326                14.5863
 Raman Activ --     0.6304                 1.6679                 2.3544

                    82                     83                     84
                     A                      A                      A
 Frequencies --  1262.6765              1281.1582              1288.9743
 Red. masses --     1.2474                 1.1490                 1.3970
 Frc consts  --     1.1718                 1.1111                 1.3676
 IR Inten    --    11.7887                 9.3980                41.4351
 Raman Activ --     0.4736                 6.0492                 3.2554

                    85                     86                     87
                     A                      A                      A
 Frequencies --  1300.5875              1306.5491              1310.0670
 Red. masses --     1.3141                 1.3072                 1.5214
 Frc consts  --     1.3097                 1.3148                 1.5384
 IR Inten    --    14.4981                12.1432                36.2855
 Raman Activ --     1.8638                 3.0475                 2.3962

                    88                     89                     90
                     A                      A                      A
 Frequencies --  1312.1343              1327.5123              1328.9391
 Red. masses --     1.4058                 1.2433                 1.2451
 Frc consts  --     1.4260                 1.2910                 1.2956
 IR Inten    --    12.3977                76.1031                11.7344
 Raman Activ --     7.7364                 2.2483                 7.7565

                    91                     92                     93
                     A                      A                      A
 Frequencies --  1332.5670              1344.1999              1349.1764
 Red. masses --     1.2496                 1.2899                 1.1754
 Frc consts  --     1.3074                 1.3732                 1.2606
 IR Inten    --    12.2350                13.2581                18.3661
 Raman Activ --     3.5928                 2.3709                 9.4506

                    94                     95                     96
                     A                      A                      A
 Frequencies --  1361.3111              1367.0608              1373.2589
 Red. masses --     1.3779                 1.4775                 1.0892
 Frc consts  --     1.5045                 1.6269                 1.2103
 IR Inten    --    47.2720                13.4965                 7.8938
 Raman Activ --     5.5279                 9.6275                 5.7481

                    97                     98                     99
                     A                      A                      A
 Frequencies --  1394.2613              1405.8317              1406.7496
 Red. masses --     1.5255                 1.5604                 1.3546
 Frc consts  --     1.7472                 1.8170                 1.5794
 IR Inten    --     2.7863                21.3524                 7.9502
 Raman Activ --     3.2994                 1.7701                 8.9973

                   100                    101                    102
                     A                      A                      A
 Frequencies --  1413.7693              1442.5410              1453.9562
 Red. masses --     1.4994                 1.4344                 1.4666
 Frc consts  --     1.7657                 1.7587                 1.8267
 IR Inten    --    23.9343                33.2840                 8.7784
 Raman Activ --     2.7900                 2.0669                 0.6369

                   103                    104                    105
                     A                      A                      A
 Frequencies --  1467.3133              1468.5035              1485.2057
 Red. masses --     1.1508                 1.2800                 1.0741
 Frc consts  --     1.4598                 1.6263                 1.3960
 IR Inten    --     7.2641                16.8941                 5.5466
 Raman Activ --     3.9370                 2.9135                 5.4022

                   106                    107                    108
                     A                      A                      A
 Frequencies --  1489.7856              1527.9817              3257.7509
 Red. masses --     1.3338                 1.2585                 1.0584
 Frc consts  --     1.7441                 1.7311                 6.6178
 IR Inten    --     9.5306                56.1280                36.7176
 Raman Activ --     0.5949                 1.4283                74.2235

                   109                    110                    111
                     A                      A                      A
 Frequencies --  3266.2290              3275.3606              3277.3908
 Red. masses --     1.0595                 1.0843                 1.0823
 Frc consts  --     6.6593                 6.8538                 6.8494
 IR Inten    --    59.1846                25.5614                15.5962
 Raman Activ --    50.4924                62.2992                85.6343

                   112                    113                    114
                     A                      A                      A
 Frequencies --  3286.2393              3298.0498              3298.7136
 Red. masses --     1.0839                 1.0891                 1.0825
 Frc consts  --     6.8964                 6.9797                 6.9400
 IR Inten    --    15.1792                 2.3095                31.8912
 Raman Activ --    24.9033               104.3712               226.4086

                   115                    116                    117
                     A                      A                      A
 Frequencies --  3301.7781              3302.3571              3310.4257
 Red. masses --     1.0718                 1.0848                 1.0907
 Frc consts  --     6.8846                 6.9700                 7.0421
 IR Inten    --   470.7995                11.9789                 7.9218
 Raman Activ --   164.8779                19.3644                15.0967

                   118                    119                    120
                     A                      A                      A
 Frequencies --  3314.6226              3315.9030              3321.4693
 Red. masses --     1.0879                 1.0898                 1.0952
 Frc consts  --     7.0419                 7.0601                 7.1185
 IR Inten    --    69.5980                 3.8994                52.4818
 Raman Activ --    17.4333                59.6742                19.4498

                   121                    122                    123
                     A                      A                      A
 Frequencies --  3324.4907              3330.4045              3357.5333
 Red. masses --     1.1042                 1.0876                 1.0652
 Frc consts  --     7.1903                 7.1078                 7.0751
 IR Inten    --    32.6948                56.8826               375.0217
 Raman Activ --    54.3683                28.2176               122.1376

                   124                    125                    126
                     A                      A                      A
 Frequencies --  3377.5164              3381.9441              3389.6951
 Red. masses --     1.0670                 1.0657                 1.0659
 Frc consts  --     7.1716                 7.1815                 7.2156
 IR Inten    --    45.8028                17.5551                31.7022
 Raman Activ --   142.8479               140.4435               133.5573

                   127                    128                    129
                     A                      A                      A
 Frequencies --  3390.9741              3912.6279              3918.7802
 Red. masses --     1.0671                 1.0675                 1.0678
 Frc consts  --     7.2292                 9.6289                 9.6616
 IR Inten    --    60.8974                54.5490                78.6671
 Raman Activ --   135.5225               100.6370               111.8537

 - Thermochemistry -
 -------------------
 Temperature   298.150 Kelvin.  Pressure   1.00000 Atm.
 Atom     1 has atomic number  8 and mass  15.99491

 Molecular mass:   342.11621 amu.
 Principal axes and moments of inertia in atomic units:
                           1         2         3
     Eigenvalues --  4459.42385********************
           X            0.99998   0.00630  -0.00050
           Y           -0.00629   0.99998   0.00021
           Z            0.00050  -0.00020   1.00000
 This molecule is an asymmetric top.
 Rotational symmetry number  1.
 Warning -- assumption of classical behavior for rotation
           may cause significant error
 Rotational temperatures (Kelvin)      0.01942     0.00714     0.00545
 Rotational constants (GHZ):           0.40470     0.14887     0.11352
    7 imaginary frequencies ignored.
 Zero-point vibrational energy     978605.5 (Joules/Mol)
                                  233.89233 (Kcal/Mol)
 Warning -- explicit consideration of  31 degrees of freedom as
           vibrations may cause significant error
 Vibrational temperatures:     68.09    75.94   105.03   119.21   144.50
          (Kelvin)            191.35   229.98   254.82   281.85   352.63
                              383.67   392.48   423.94   431.36   443.02
                              458.32   469.15   482.46   515.09   566.42
                              590.97   610.07   633.31   647.91   686.89
                              697.76   756.84   787.04   830.59   856.76
                              881.07   911.38   944.73   990.53   997.55
                             1014.01  1042.91  1056.93  1139.24  1210.00
                             1222.25  1255.94  1350.22  1399.26  1414.43
                             1424.41  1444.61  1463.78  1469.72  1483.80
                             1501.81  1519.61  1530.81  1545.35  1548.73
                             1559.52  1585.07  1590.21  1600.09  1611.47
                             1622.82  1632.47  1646.05  1659.01  1670.55
                             1677.43  1697.58  1713.55  1718.59  1745.41
                             1751.22  1763.83  1805.08  1814.67  1816.71
                             1843.30  1854.54  1871.25  1879.83  1884.89
                             1887.87  1909.99  1912.04  1917.26  1934.00
                             1941.16  1958.62  1966.89  1975.81  2006.03
                             2022.68  2024.00  2034.10  2075.49  2091.92
                             2111.13  2112.85  2136.88  2143.47  2198.42
                             4687.17  4699.37  4712.51  4715.43  4728.16
                             4745.15  4746.11  4750.52  4751.35  4762.96
                             4769.00  4770.84  4778.85  4783.19  4791.70
                             4830.74  4859.49  4865.86  4877.01  4878.85
                             5629.39  5638.24

 Zero-point correction=                           0.372731 (Hartree/Particle)
 Thermal correction to Energy=                    0.391107
 Thermal correction to Enthalpy=                  0.392051
 Thermal correction to Gibbs Free Energy=         0.326717
 Sum of electronic and zero-point Energies=          -1297.537167
 Sum of electronic and thermal Energies=             -1297.518792
 Sum of electronic and thermal Enthalpies=           -1297.517847
 Sum of electronic and thermal Free Energies=        -1297.583182

                     E (Thermal)             CV                S
                      KCal/Mol        Cal/Mol-Kelvin    Cal/Mol-Kelvin
 Total                  245.423             75.513            137.508
 Electronic               0.000              0.000              0.000
 Translational            0.889              2.981             43.384
 Rotational               0.889              2.981             35.107
 Vibrational            243.646             69.551             59.016
 Vibration     1          0.595              1.979              4.926
 Vibration     2          0.596              1.976              4.710
 Vibration     3          0.599              1.967              4.071
 Vibration     4          0.600              1.961              3.822
 Vibration     5          0.604              1.949              3.446
 Vibration     6          0.613              1.920              2.902
 Vibration     7          0.622              1.892              2.552
 Vibration     8          0.628              1.871              2.359
 Vibration     9          0.636              1.846              2.171
 Vibration    10          0.660              1.771              1.766
 Vibration    11          0.672              1.734              1.618
 Vibration    12          0.676              1.723              1.579
 Vibration    13          0.689              1.684              1.447
 Vibration    14          0.692              1.674              1.418
 Vibration    15          0.698              1.659              1.374
 Vibration    16          0.705              1.638              1.318
 Vibration    17          0.710              1.623              1.279
 Vibration    18          0.716              1.605              1.234
 Vibration    19          0.733              1.559              1.131
 Vibration    20          0.761              1.484              0.986
 Vibration    21          0.775              1.447              0.924
 Vibration    22          0.786              1.418              0.878
 Vibration    23          0.800              1.383              0.826
 Vibration    24          0.809              1.360              0.795
 Vibration    25          0.834              1.300              0.717
 Vibration    26          0.841              1.283              0.697
 Vibration    27          0.881              1.192              0.596
 Vibration    28          0.902              1.146              0.550
 Vibration    29          0.934              1.080              0.490
 Vibration    30          0.953              1.041              0.457
 Vibration    31          0.972              1.006              0.429

 Normal termination of Gaussian 09 at Thu Jan 21 17:58:50 2016.
