 Gaussian 09, Revision B.01,
 Gaussian 09:  EM64L-G09RevB.01 12-Aug-2010

 -------------------------------------------------
 # freq=raman b3lyp/6-31+g(2d,p) geom=connectivity
 -------------------------------------------------

 -----------------
 423 6000/6000.com
 -----------------
 Symbolic Z-matrix:
 Charge =  0 Multiplicity = 1

                         Standard orientation:
 ---------------------------------------------------------------------
 Center     Atomic      Atomic             Coordinates (Angstroms)
 Number     Number       Type             X           Y           Z
 ---------------------------------------------------------------------
      1          8           0        4.992251   -0.525952   -0.387278
      2          6           0        3.760882   -0.120785    0.226589
      3          6           0        3.214654    1.186452   -0.324132
      4          8           0        4.157495    2.193499    0.073295
      5          1           0        4.982254    2.060833   -0.475093
      6          6           0        1.825582    1.587232    0.145168
      7          8           0        1.293098    2.757983   -0.490452
      8          1           0        0.398618    2.901718   -0.065553
      9          6           0        2.984543   -2.613494    0.264260
     10          8           0        4.147106   -3.060445   -0.448404
     11          1           0        4.152059   -4.060444   -0.458202
     12          6           0        2.662549   -1.149586    0.015643
     13          8           0        1.414651   -0.732910    0.589958
     14          6           0        0.894899    0.411046   -0.102115
     15          8           0       -0.344711    0.690636    0.564416
     16          6           0       -1.524441    0.228123   -0.109652
     17          6           0       -1.992423   -1.155389    0.314818
     18          8           0       -0.959367   -2.122313    0.079410
     19          1           0       -0.064299   -1.703914    0.236496
     20          6           0       -3.329366   -1.601138   -0.253227
     21          8           0       -3.804038   -2.791679    0.392508
     22          1           0       -4.694784   -2.977506   -0.024334
     23          6           0       -2.304992    2.694147   -0.111346
     24          8           0       -1.252750    3.479238    0.469090
     25          1           0       -1.417149    4.440589    0.247360
     26          6           0       -2.594664    1.246305    0.246819
     27          8           0       -3.811997    0.822913   -0.382859
     28          6           0       -4.282954   -0.458811    0.058239
     29          8           0       -5.440505   -0.763192   -0.733945
     30          1           0       -6.148260   -1.069099   -0.162015
     31          1           0       -4.529390   -0.439246    1.099289
     32          1           0       -3.256645   -1.750379   -1.310269
     33          1           0       -2.123279   -1.110757    1.375848
     34          1           0       -1.358960    0.239890   -1.166713
     35          1           0       -2.743119    1.200642    1.305486
     36          1           0       -3.211866    3.232249    0.070113
     37          1           0       -2.140080    2.711429   -1.168419
     38          1           0        5.606432   -0.818451    0.290090
     39          1           0        3.147319   -2.756677    1.312068
     40          1           0        2.146654   -3.206134   -0.038429
     41          1           0        2.483954   -1.110844   -1.038635
     42          1           0        3.925470   -0.006650    1.277676
     43          1           0        3.207717    1.128271   -1.392526
     44          1           0        1.866987    1.767937    1.198985
     45          1           0        0.754889    0.219700   -1.145515
 ---------------------------------------------------------------------

 SCF Done:  E(RB3LYP) =  -1297.98948245     A.U. after   13 cycles

 The electronic state is 1-A.
 Alpha  occ. eigenvalues --  -19.18791 -19.18722 -19.18315 -19.18020 -19.17997
 Alpha  occ. eigenvalues --  -19.16727 -19.16212 -19.16186 -19.14736 -19.13922
 Alpha  occ. eigenvalues --  -19.13536 -10.30617 -10.30437 -10.26262 -10.25430
 Alpha  occ. eigenvalues --  -10.25344 -10.24940 -10.24685 -10.24683 -10.24261
 Alpha  occ. eigenvalues --  -10.24232 -10.24223 -10.24005  -1.10356  -1.09121
 Alpha  occ. eigenvalues --   -1.05410  -1.04862  -1.04090  -1.03861  -1.02851
 Alpha  occ. eigenvalues --   -1.02619  -1.01850  -1.00571  -1.00183  -0.81977
 Alpha  occ. eigenvalues --   -0.80161  -0.79471  -0.78009  -0.72060  -0.70214
 Alpha  occ. eigenvalues --   -0.67174  -0.64664  -0.63105  -0.62387  -0.61526
 Alpha  occ. eigenvalues --   -0.60223  -0.56502  -0.55586  -0.54995  -0.54384
 Alpha  occ. eigenvalues --   -0.54062  -0.53530  -0.52601  -0.51903  -0.51341
 Alpha  occ. eigenvalues --   -0.50659  -0.50194  -0.49274  -0.48193  -0.46797
 Alpha  occ. eigenvalues --   -0.46216  -0.45028  -0.44429  -0.43789  -0.43509
 Alpha  occ. eigenvalues --   -0.42431  -0.42035  -0.41117  -0.40259  -0.39439
 Alpha  occ. eigenvalues --   -0.39139  -0.38030  -0.37243  -0.36588  -0.35994
 Alpha  occ. eigenvalues --   -0.35197  -0.35128  -0.34267  -0.33674  -0.33371
 Alpha  occ. eigenvalues --   -0.32805  -0.31291  -0.30732  -0.30648  -0.29879
 Alpha  occ. eigenvalues --   -0.29309  -0.28752  -0.28345  -0.27570  -0.26394
 Alpha  occ. eigenvalues --   -0.26208
 Alpha virt. eigenvalues --   -0.02118  -0.01931  -0.01514   0.00132   0.00505
 Alpha virt. eigenvalues --    0.01027   0.01917   0.02015   0.03218   0.03511
 Alpha virt. eigenvalues --    0.03610   0.04392   0.04977   0.05288   0.05506

 Mulliken atomic charges:
              1
     1  O   -0.533033
     2  C    0.041686
     3  C    0.195769
     4  O   -0.544939
     5  H    0.340998
     6  C   -0.245481
     7  O   -0.566426
     8  H    0.416973
     9  C   -0.166410
    10  O   -0.503624
    11  H    0.345602
    12  C    0.098296
    13  O   -0.285383
    14  C    0.113676
    15  O   -0.238762
    16  C    0.297620
    17  C    0.169087
    18  O   -0.595763
    19  H    0.397705
    20  C    0.035085
    21  O   -0.528873
    22  H    0.328798
    23  C   -0.302114
    24  O   -0.553732
    25  H    0.356850
    26  C    0.027673
    27  O   -0.279022
    28  C    0.196990
    29  O   -0.548668
    30  H    0.336972
    31  H    0.138832
    32  H    0.137474
    33  H    0.117886
    34  H    0.113346
    35  H    0.122072
    36  H    0.148420
    37  H    0.155267
    38  H    0.340648
    39  H    0.140951
    40  H    0.150466
    41  H    0.108203
    42  H    0.116643
    43  H    0.126073
    44  H    0.134959
    45  H    0.141211
 Sum of Mulliken atomic charges =   0.00000

 Dipole moment (field-independent basis, Debye):
    X=             -2.1397    Y=             -0.4982    Z=              1.0601  Tot=              2.4394
 Quadrupole moment (field-independent basis, Debye-Ang):
   XX=           -116.9208   YY=           -132.7840   ZZ=           -140.7621
   XY=            -14.5955   XZ=             -1.2686   YZ=             -0.3660

  Exact polarizability: 231.773   2.187 198.332  -0.098  -0.408 143.510
 Approx polarizability: 272.085   2.090 257.291  -0.513   0.623 240.670

 ******    6 imaginary frequencies (negative Signs) ******

                     1                      2                      3
                     A                      A                      A
 Frequencies --  -313.9347              -304.6943              -263.1238
 Red. masses --     1.6835                 1.1765                 1.2215
 Frc consts  --     0.0978                 0.0644                 0.0498
 IR Inten    --     4.5027                97.2128               127.0628
 Raman Activ --     0.0315                 0.8081                 1.1792

                     4                      5                      6
                     A                      A                      A
 Frequencies --  -240.2915               -70.3509               -55.6325
 Red. masses --     1.6684                 6.6074                 6.2508
 Frc consts  --     0.0568                 0.0193                 0.0114
 IR Inten    --    12.5169                 0.7526                 0.0753
 Raman Activ --     0.3679                 0.0260                 0.0202

                     7                      8                      9
                     A                      A                      A
 Frequencies --    35.5170                60.9526                78.9513
 Red. masses --     5.9307                 6.7233                 6.5764
 Frc consts  --     0.0044                 0.0147                 0.0242
 IR Inten    --     2.0286                 0.0095                 2.4513
 Raman Activ --     0.0269                 0.1044                 0.1175

                    10                     11                     12
                     A                      A                      A
 Frequencies --    94.9455               107.1296               129.6384
 Red. masses --     6.5608                 6.9916                 5.6258
 Frc consts  --     0.0348                 0.0473                 0.0557
 IR Inten    --     0.6378                 1.6786                 2.2043
 Raman Activ --     0.1481                 0.0476                 0.0944

                    13                     14                     15
                     A                      A                      A
 Frequencies --   158.4237               177.6322               198.6288
 Red. masses --     6.6307                 5.0694                 6.2936
 Frc consts  --     0.0980                 0.0942                 0.1463
 IR Inten    --     4.1183                 3.4732                 0.6290
 Raman Activ --     0.5225                 0.4655                 1.0485

                    16                     17                     18
                     A                      A                      A
 Frequencies --   203.6116               236.7290               268.5587
 Red. masses --     6.8990                 6.0263                 5.1264
 Frc consts  --     0.1685                 0.1990                 0.2178
 IR Inten    --     0.4316                 1.7163                13.0570
 Raman Activ --     0.9004                 0.9994                 0.5242

                    19                     20                     21
                     A                      A                      A
 Frequencies --   284.9601               298.5335               306.6199
 Red. masses --     5.0543                 5.9114                 6.3551
 Frc consts  --     0.2418                 0.3104                 0.3520
 IR Inten    --     2.9330                 4.3953                 5.7212
 Raman Activ --     0.0635                 0.1436                 2.0162

                    22                     23                     24
                     A                      A                      A
 Frequencies --   312.3201               316.5539               329.1122
 Red. masses --     5.0709                 4.9293                 5.9941
 Frc consts  --     0.2914                 0.2910                 0.3825
 IR Inten    --     0.5850                 2.4892                 6.7228
 Raman Activ --     0.4094                 2.8404                 1.7026

                    25                     26                     27
                     A                      A                      A
 Frequencies --   332.0368               355.0036               385.2340
 Red. masses --     6.5870                 4.9353                 7.0463
 Frc consts  --     0.4279                 0.3665                 0.6161
 IR Inten    --    14.0090                 4.8390                 0.6878
 Raman Activ --     4.2978                 0.3732                 0.8905

                    28                     29                     30
                     A                      A                      A
 Frequencies --   408.1152               418.3986               428.2456
 Red. masses --     4.6949                 5.2409                 5.2549
 Frc consts  --     0.4607                 0.5406                 0.5678
 IR Inten    --    19.4831                12.0859                 2.2698
 Raman Activ --     2.1328                 4.7567                 2.7136

                    31                     32                     33
                     A                      A                      A
 Frequencies --   445.5748               484.2124               490.4421
 Red. masses --     4.9261                 4.5228                 4.0182
 Frc consts  --     0.5762                 0.6248                 0.5695
 IR Inten    --     3.5419                 1.3476                11.1253
 Raman Activ --     4.8914                 1.5747                 0.8371

                    34                     35                     36
                     A                      A                      A
 Frequencies --   513.8174               527.2093               563.0524
 Red. masses --     3.9173                 3.3132                 4.1981
 Frc consts  --     0.6093                 0.5426                 0.7842
 IR Inten    --     6.1184                12.0993                18.9457
 Raman Activ --     2.9268                 2.8151                 1.4461

                    37                     38                     39
                     A                      A                      A
 Frequencies --   581.7764               590.9973               613.8878
 Red. masses --     3.4697                 5.4043                 4.0210
 Frc consts  --     0.6919                 1.1122                 0.8928
 IR Inten    --    23.5628                 9.2768                 3.9429
 Raman Activ --     0.9733                 1.0241                 0.0873

                    40                     41                     42
                     A                      A                      A
 Frequencies --   625.7165               688.5099               710.5622
 Red. masses --     4.3239                 4.8009                 1.1468
 Frc consts  --     0.9974                 1.3409                 0.3411
 IR Inten    --    51.3551                 7.5945                92.6867
 Raman Activ --     1.0482                 0.5552                 1.5065

                    43                     44                     45
                     A                      A                      A
 Frequencies --   714.8191               724.5448               768.2927
 Red. masses --     1.0676                 1.0785                 1.0814
 Frc consts  --     0.3214                 0.3336                 0.3761
 IR Inten    --   112.5009               119.9796                92.2368
 Raman Activ --     2.0992                 1.7803                 1.5871

                    46                     47                     48
                     A                      A                      A
 Frequencies --   825.7918               849.5017               864.5151
 Red. masses --     1.0866                 1.5842                 1.7896
 Frc consts  --     0.4366                 0.6736                 0.7881
 IR Inten    --    47.4970                 9.9875                 4.6752
 Raman Activ --     0.3571                 0.3795                 1.7202

                    49                     50                     51
                     A                      A                      A
 Frequencies --   889.3481               934.0494               954.4171
 Red. masses --     1.1629                 4.9160                 4.8008
 Frc consts  --     0.5419                 2.5270                 2.5765
 IR Inten    --    64.9129               158.8724                34.5634
 Raman Activ --     0.3026                 3.2769                 1.1167

                    52                     53                     54
                     A                      A                      A
 Frequencies --   979.6555               982.6968               990.5193
 Red. masses --     6.9200                 4.7968                 5.7067
 Frc consts  --     3.9129                 2.7292                 3.2988
 IR Inten    --     3.2172                64.6240               297.0175
 Raman Activ --     1.6493                 1.2426                 0.4118

                    55                     56                     57
                     A                      A                      A
 Frequencies --  1005.1479              1012.1209              1019.7521
 Red. masses --     7.3355                 5.4530                 5.7234
 Frc consts  --     4.3666                 3.2912                 3.5066
 IR Inten    --   164.9040                89.7380                97.0163
 Raman Activ --     1.1336                 3.3479                 3.0502

                    58                     59                     60
                     A                      A                      A
 Frequencies --  1032.4940              1046.2061              1057.1755
 Red. masses --     7.5711                 7.1023                 3.9391
 Frc consts  --     4.7553                 4.5802                 2.5938
 IR Inten    --   348.1498               162.8344               123.5180
 Raman Activ --     1.7323                 0.9956                 4.6835

                    61                     62                     63
                     A                      A                      A
 Frequencies --  1070.9785              1074.7605              1083.1148
 Red. masses --     4.1305                 3.2156                 5.0072
 Frc consts  --     2.7914                 2.1885                 3.4609
 IR Inten    --    10.6792                 7.9439                16.9850
 Raman Activ --     7.7567                19.1296                 4.4455

                    64                     65                     66
                     A                      A                      A
 Frequencies --  1091.1693              1096.2426              1108.8554
 Red. masses --     2.7147                 2.2468                 2.8359
 Frc consts  --     1.9044                 1.5908                 2.0544
 IR Inten    --    37.7467                40.7382                81.6852
 Raman Activ --    12.4377                 2.7724                 4.2607

                    67                     68                     69
                     A                      A                      A
 Frequencies --  1118.9808              1126.1323              1127.5528
 Red. masses --     2.4984                 3.9637                 2.3570
 Frc consts  --     1.8431                 2.9616                 1.7656
 IR Inten    --     8.5829                31.2559                 4.9886
 Raman Activ --     5.3946                 1.0712                 7.5795

                    70                     71                     72
                     A                      A                      A
 Frequencies --  1139.0578              1148.8369              1163.0982
 Red. masses --     2.3207                 1.7214                 2.1752
 Frc consts  --     1.7740                 1.3386                 1.7338
 IR Inten    --    15.9614                 1.8246                10.3087
 Raman Activ --     3.0122                 7.2743                 1.1679

                    73                     74                     75
                     A                      A                      A
 Frequencies --  1173.7161              1179.8792              1198.8180
 Red. masses --     1.8083                 1.9700                 1.4018
 Frc consts  --     1.4678                 1.6158                 1.1869
 IR Inten    --     5.8144                 6.4150                11.2975
 Raman Activ --     4.8102                 0.4839                 1.6603

                    76                     77                     78
                     A                      A                      A
 Frequencies --  1205.0285              1209.6357              1229.3737
 Red. masses --     1.3898                 1.5132                 1.3871
 Frc consts  --     1.1890                 1.3046                 1.2352
 IR Inten    --     9.9244                 1.5500                 6.3296
 Raman Activ --     2.7826                 1.7836                 2.4265

                    79                     80                     81
                     A                      A                      A
 Frequencies --  1242.2807              1247.2207              1250.3472
 Red. masses --     1.1918                 1.3016                 1.2325
 Frc consts  --     1.0837                 1.1929                 1.1353
 IR Inten    --    16.7094                 9.5306                35.6115
 Raman Activ --     1.2141                 0.8101                 2.0151

                    82                     83                     84
                     A                      A                      A
 Frequencies --  1268.7804              1281.8031              1285.4532
 Red. masses --     1.2152                 1.3280                 1.4065
 Frc consts  --     1.1525                 1.2855                 1.3694
 IR Inten    --    25.2980                 4.0621                15.9883
 Raman Activ --     1.0087                 2.5988                 1.0427

                    85                     86                     87
                     A                      A                      A
 Frequencies --  1293.7274              1299.4366              1306.8466
 Red. masses --     1.2597                 1.2394                 1.2198
 Frc consts  --     1.2422                 1.2330                 1.2274
 IR Inten    --     3.0899                27.3318                22.2721
 Raman Activ --     3.5081                 3.0747                 7.1056

                    88                     89                     90
                     A                      A                      A
 Frequencies --  1313.9586              1323.3113              1332.1482
 Red. masses --     1.3789                 1.4045                 1.3896
 Frc consts  --     1.4026                 1.4491                 1.4530
 IR Inten    --    11.1224                 0.7906                64.1457
 Raman Activ --     1.1007                 7.0002                 3.9314

                    91                     92                     93
                     A                      A                      A
 Frequencies --  1337.7553              1346.4128              1356.6773
 Red. masses --     1.2060                 1.2437                 1.3444
 Frc consts  --     1.2716                 1.3284                 1.4579
 IR Inten    --     8.6318                29.0051                 3.4931
 Raman Activ --     9.0634                 2.6810                 4.1086

                    94                     95                     96
                     A                      A                      A
 Frequencies --  1361.2696              1369.1307              1377.4410
 Red. masses --     1.2465                 1.3084                 1.2782
 Frc consts  --     1.3609                 1.4451                 1.4289
 IR Inten    --    29.3888                11.4240                15.3407
 Raman Activ --     3.6793                 8.7276                 1.5601

                    97                     98                     99
                     A                      A                      A
 Frequencies --  1393.9527              1395.0028              1406.6905
 Red. masses --     1.4074                 1.5886                 1.3766
 Frc consts  --     1.6112                 1.8214                 1.6050
 IR Inten    --     0.3617                 8.2439                 6.2457
 Raman Activ --     6.1230                 3.3505                 5.4088

                   100                    101                    102
                     A                      A                      A
 Frequencies --  1447.4448              1449.7391              1462.8620
 Red. masses --     1.3690                 1.3148                 1.4175
 Frc consts  --     1.6899                 1.6281                 1.7873
 IR Inten    --    45.8648                32.5603                17.0334
 Raman Activ --     0.6645                 2.5890                 2.8197

                   103                    104                    105
                     A                      A                      A
 Frequencies --  1470.5648              1475.1889              1477.7855
 Red. masses --     1.1765                 1.2469                 1.0990
 Frc consts  --     1.4990                 1.5988                 1.4141
 IR Inten    --    14.6705                 4.7048                 4.0550
 Raman Activ --     4.3419                 0.9415                 3.4920

                   106                    107                    108
                     A                      A                      A
 Frequencies --  1507.0443              1517.8842              3246.0925
 Red. masses --     1.2840                 1.2473                 1.0773
 Frc consts  --     1.7182                 1.6931                 6.6883
 IR Inten    --    45.7377                47.3782                16.9962
 Raman Activ --     1.9378                 2.2382                61.4288

                   109                    110                    111
                     A                      A                      A
 Frequencies --  3254.2561              3255.6955              3260.1160
 Red. masses --     1.0633                 1.0598                 1.0721
 Frc consts  --     6.6342                 6.6183                 6.7135
 IR Inten    --    70.7244                74.5086               265.4540
 Raman Activ --    50.9732                62.5426               241.5981

                   112                    113                    114
                     A                      A                      A
 Frequencies --  3267.8821              3270.7901              3275.7889
 Red. masses --     1.0775                 1.0761                 1.0777
 Frc consts  --     6.7798                 6.7827                 6.8135
 IR Inten    --    97.9436                94.3089               307.5156
 Raman Activ --   173.0033                75.8947               137.7802

                   115                    116                    117
                     A                      A                      A
 Frequencies --  3277.6435              3286.0131              3287.5133
 Red. masses --     1.0771                 1.0838                 1.0863
 Frc consts  --     6.8179                 6.8953                 6.9173
 IR Inten    --   470.1931                62.7850                22.1543
 Raman Activ --    30.9841                23.9110                20.6995

                   118                    119                    120
                     A                      A                      A
 Frequencies --  3288.4364              3293.0069              3303.2874
 Red. masses --     1.0855                 1.0853                 1.0868
 Frc consts  --     6.9161                 6.9338                 6.9871
 IR Inten    --    20.1183                33.9434                11.4937
 Raman Activ --   122.4749                48.5983                 8.3420

                   121                    122                    123
                     A                      A                      A
 Frequencies --  3304.9391              3309.9751              3313.3650
 Red. masses --     1.0884                 1.1023                 1.1073
 Frc consts  --     7.0043                 7.1151                 7.1625
 IR Inten    --    71.7815                65.3507                54.2814
 Raman Activ --    23.6361                43.2898                42.3447

                   124                    125                    126
                     A                      A                      A
 Frequencies --  3357.9407              3365.8644              3371.4415
 Red. masses --     1.0651                 1.0674                 1.0671
 Frc consts  --     7.0758                 7.1245                 7.1467
 IR Inten    --    29.8660                36.5392                72.9822
 Raman Activ --   127.9061               181.8391               146.2181

                   127                    128                    129
                     A                      A                      A
 Frequencies --  3381.6314              3890.5903              3891.1870
 Red. masses --     1.0660                 1.0674                 1.0676
 Frc consts  --     7.1821                 9.5193                 9.5239
 IR Inten    --    40.3265                80.7777                74.0061
 Raman Activ --   119.8787                95.2889                98.9754

 - Thermochemistry -
 -------------------
 Temperature   298.150 Kelvin.  Pressure   1.00000 Atm.
 Atom     1 has atomic number  8 and mass  15.99491

 Molecular mass:   342.11621 amu.
 Principal axes and moments of inertia in atomic units:
                           1         2         3
     Eigenvalues --  4483.37996********************
           X            0.99997  -0.00768  -0.00056
           Y            0.00768   0.99997  -0.00177
           Z            0.00058   0.00176   1.00000
 This molecule is an asymmetric top.
 Rotational symmetry number  1.
 Warning -- assumption of classical behavior for rotation
           may cause significant error
 Rotational temperatures (Kelvin)      0.01932     0.00712     0.00535
 Rotational constants (GHZ):           0.40254     0.14834     0.11138
    6 imaginary frequencies ignored.
 Zero-point vibrational energy     976807.8 (Joules/Mol)
                                  233.46266 (Kcal/Mol)
 Warning -- explicit consideration of  33 degrees of freedom as
           vibrations may cause significant error
 Vibrational temperatures:     51.10    87.70   113.59   136.61   154.14
          (Kelvin)            186.52   227.94   255.57   285.78   292.95
                              340.60   386.40   409.99   429.52   441.16
                              449.36   455.45   473.52   477.73   510.77
                              554.27   587.19   601.98   616.15   641.08
                              696.67   705.64   739.27   758.54   810.11
                              837.05   850.31   883.25   900.27   990.61
                             1022.34  1028.46  1042.46  1105.40  1188.13
                             1222.24  1243.84  1279.57  1343.89  1373.19
                             1409.50  1413.88  1425.13  1446.18  1456.21
                             1467.19  1485.53  1505.26  1521.04  1540.90
                             1546.34  1558.36  1569.95  1577.25  1595.39
                             1609.96  1620.25  1622.30  1638.85  1652.92
                             1673.44  1688.71  1697.58  1724.83  1733.77
                             1740.39  1768.79  1787.36  1794.47  1798.97
                             1825.49  1844.23  1849.48  1861.38  1869.60
                             1880.26  1890.49  1903.95  1916.66  1924.73
                             1937.19  1951.95  1958.56  1969.87  1981.83
                             2005.58  2007.10  2023.91  2082.55  2085.85
                             2104.73  2115.81  2122.47  2126.20  2168.30
                             2183.89  4670.40  4682.14  4684.21  4690.57
                             4701.75  4705.93  4713.12  4715.79  4727.83
                             4729.99  4731.32  4737.90  4752.69  4755.06
                             4762.31  4767.19  4831.32  4842.72  4850.75
                             4865.41  5597.68  5598.54

 Zero-point correction=                           0.372046 (Hartree/Particle)
 Thermal correction to Energy=                    0.390992
 Thermal correction to Enthalpy=                  0.391936
 Thermal correction to Gibbs Free Energy=         0.325623
 Sum of electronic and zero-point Energies=          -1297.617436
 Sum of electronic and thermal Energies=             -1297.598491
 Sum of electronic and thermal Enthalpies=           -1297.597546
 Sum of electronic and thermal Free Energies=        -1297.663859

                     E (Thermal)             CV                S
                      KCal/Mol        Cal/Mol-Kelvin    Cal/Mol-Kelvin
 Total                  245.351             77.517            139.567
 Electronic               0.000              0.000              0.000
 Translational            0.889              2.981             43.384
 Rotational               0.889              2.981             35.134
 Vibrational            243.574             71.555             61.048
 Vibration     1          0.594              1.982              5.495
 Vibration     2          0.597              1.973              4.426
 Vibration     3          0.600              1.963              3.917
 Vibration     4          0.603              1.953              3.556
 Vibration     5          0.606              1.944              3.320
 Vibration     6          0.612              1.924              2.951
 Vibration     7          0.621              1.893              2.569
 Vibration     8          0.628              1.870              2.353
 Vibration     9          0.637              1.842              2.146
 Vibration    10          0.639              1.835              2.100
 Vibration    11          0.656              1.784              1.827
 Vibration    12          0.673              1.731              1.605
 Vibration    13          0.683              1.702              1.504
 Vibration    14          0.692              1.676              1.425
 Vibration    15          0.697              1.661              1.381
 Vibration    16          0.701              1.650              1.350
 Vibration    17          0.703              1.642              1.328
 Vibration    18          0.712              1.617              1.264
 Vibration    19          0.714              1.612              1.250
 Vibration    20          0.731              1.565              1.144
 Vibration    21          0.754              1.502              1.019
 Vibration    22          0.773              1.453              0.933
 Vibration    23          0.781              1.430              0.897
 Vibration    24          0.790              1.409              0.864
 Vibration    25          0.805              1.371              0.809
 Vibration    26          0.840              1.285              0.699
 Vibration    27          0.846              1.271              0.682
 Vibration    28          0.869              1.219              0.624
 Vibration    29          0.882              1.190              0.593
 Vibration    30          0.919              1.111              0.518
 Vibration    31          0.939              1.071              0.482
 Vibration    32          0.948              1.051              0.465
 Vibration    33          0.973              1.002              0.426

 Normal termination of Gaussian 09 at Sun Mar 27 05:18:31 2016.
