 Gaussian 09, Revision B.01,
 Gaussian 09:  EM64L-G09RevB.01 12-Aug-2010

 ------------------------------------------------
 # freq=raman b3lyp/6-31+g(d,p) geom=connectivity
 ------------------------------------------------

 ------------
 350 6000.com
 ------------
 Symbolic Z-matrix:
 Charge =  0 Multiplicity = 1

                         Standard orientation:
 ---------------------------------------------------------------------
 Center     Atomic      Atomic             Coordinates (Angstroms)
 Number     Number       Type             X           Y           Z
 ---------------------------------------------------------------------
      1          8           0        5.030671   -0.356420   -0.525313
      2          6           0        3.766987   -0.037430    0.075789
      3          6           0        3.257086    1.311924   -0.401353
      4          8           0        4.193770    2.378999   -0.194546
      5          1           0        5.099388    1.956993   -0.227845
      6          6           0        1.840448    1.592403    0.072584
      7          8           0        1.283689    2.850980   -0.334366
      8          1           0        0.449589    3.033931    0.186955
      9          6           0        3.022522   -2.562386    0.476687
     10          8           0        4.151774   -3.322761    0.022571
     11          1           0        3.884298   -4.249950   -0.239472
     12          6           0        2.807287   -1.194550   -0.149347
     13          8           0        1.488581   -0.845153    0.295515
     14          6           0        0.937964    0.393491   -0.175286
     15          8           0       -0.282116    0.610468    0.547935
     16          6           0       -1.536462    0.214211   -0.026779
     17          6           0       -1.975105   -1.199697    0.314574
     18          8           0       -0.875761   -2.077922    0.034076
     19          1           0        0.000603   -1.617927    0.178665
     20          6           0       -3.313862   -1.600414   -0.283906
     21          8           0       -3.778861   -2.780335    0.388560
     22          1           0       -4.722530   -2.903176    0.083938
     23          6           0       -2.440455    2.641988    0.036060
     24          8           0       -1.519305    3.432657    0.801147
     25          1           0       -1.789506    4.392357    0.718794
     26          6           0       -2.637934    1.175761    0.386559
     27          8           0       -3.707249    0.724205   -0.457242
     28          6           0       -4.356513   -0.508015   -0.111617
     29          8           0       -5.550220   -0.690179   -0.887479
     30          1           0       -6.300790   -0.799470   -0.299006
     31          1           0       -4.631605   -0.465912    0.921559
     32          1           0       -3.188669   -1.811022   -1.325477
     33          1           0       -2.110188   -1.222223    1.375774
     34          1           0       -1.436351    0.273194   -1.090451
     35          1           0       -2.889666    1.054244    1.419402
     36          1           0       -3.397327    3.116473    0.100560
     37          1           0       -2.125316    2.685519   -0.985553
     38          1           0        0.725052    0.315952   -1.221018
     39          1           0        1.917338    1.662778    1.137495
     40          1           0        3.178277    1.218242   -1.464327
     41          1           0        5.679103   -0.523669    0.162556
     42          1           0        3.926935    0.040638    1.130882
     43          1           0        2.754211   -1.344908   -1.207400
     44          1           0        2.142861   -3.145376    0.300001
     45          1           0        3.122722   -2.426726    1.533312
 ---------------------------------------------------------------------

 SCF Done:  E(RB3LYP) =  -1297.94131357     A.U. after   14 cycles

 The electronic state is 1-A.
 Alpha  occ. eigenvalues --  -19.20109 -19.20050 -19.19011 -19.19006 -19.18463
 Alpha  occ. eigenvalues --  -19.18265 -19.17355 -19.17130 -19.16588 -19.15647
 Alpha  occ. eigenvalues --  -19.13976 -10.31752 -10.31552 -10.26767 -10.26530
 Alpha  occ. eigenvalues --  -10.26500 -10.25639 -10.25376 -10.25299 -10.25253
 Alpha  occ. eigenvalues --  -10.25213 -10.25051 -10.24513  -1.10358  -1.09271
 Alpha  occ. eigenvalues --   -1.05981  -1.05096  -1.04339  -1.03968  -1.03323
 Alpha  occ. eigenvalues --   -1.02828  -1.02528  -1.01007  -1.00143  -0.82353
 Alpha  occ. eigenvalues --   -0.80987  -0.79657  -0.78664  -0.72165  -0.70756
 Alpha  occ. eigenvalues --   -0.67988  -0.64984  -0.63793  -0.62993  -0.61548
 Alpha  occ. eigenvalues --   -0.60474  -0.56925  -0.56057  -0.55560  -0.55169
 Alpha  occ. eigenvalues --   -0.54639  -0.53950  -0.52954  -0.52174  -0.51371
 Alpha  occ. eigenvalues --   -0.50700  -0.50224  -0.49901  -0.49008  -0.46720
 Alpha  occ. eigenvalues --   -0.46386  -0.45637  -0.44978  -0.44236  -0.43910
 Alpha  occ. eigenvalues --   -0.42722  -0.42244  -0.41651  -0.40115  -0.39283
 Alpha  occ. eigenvalues --   -0.38923  -0.38124  -0.37096  -0.36448  -0.35830
 Alpha  occ. eigenvalues --   -0.35374  -0.35090  -0.34825  -0.34186  -0.33835
 Alpha  occ. eigenvalues --   -0.32987  -0.31851  -0.31256  -0.30416  -0.30141
 Alpha  occ. eigenvalues --   -0.29858  -0.29247  -0.27778  -0.27697  -0.27598
 Alpha  occ. eigenvalues --   -0.26345
 Alpha virt. eigenvalues --   -0.02632  -0.02063  -0.01966  -0.00520   0.00496
 Alpha virt. eigenvalues --    0.01118   0.01869   0.02324   0.03049   0.03342
 Alpha virt. eigenvalues --    0.03922   0.04325   0.04760   0.05276   0.05521

 Mulliken atomic charges:
              1
     1  O   -0.524652
     2  C   -0.240506
     3  C    0.194043
     4  O   -0.490372
     5  H    0.353159
     6  C   -0.051508
     7  O   -0.515001
     8  H    0.412632
     9  C   -0.170474
    10  O   -0.545006
    11  H    0.358634
    12  C    0.248669
    13  O   -0.403143
    14  C    0.298428
    15  O   -0.347179
    16  C   -0.453352
    17  C    0.050976
    18  O   -0.574322
    19  H    0.441266
    20  C    0.291508
    21  O   -0.494645
    22  H    0.338532
    23  C   -0.071395
    24  O   -0.582665
    25  H    0.372432
    26  C    0.241794
    27  O   -0.324047
    28  C    0.051656
    29  O   -0.531845
    30  H    0.363554
    31  H    0.123544
    32  H    0.152249
    33  H    0.135642
    34  H    0.136039
    35  H    0.139724
    36  H    0.139286
    37  H    0.146725
    38  H    0.126429
    39  H    0.139287
    40  H    0.129037
    41  H    0.373317
    42  H    0.134711
    43  H    0.135215
    44  H    0.148508
    45  H    0.143119
 Sum of Mulliken atomic charges =   0.00000

 Dipole moment (field-independent basis, Debye):
    X=             -2.9592    Y=             -0.1968    Z=              1.9864  Tot=              3.5695
 Quadrupole moment (field-independent basis, Debye-Ang):
   XX=           -112.2828   YY=           -139.4169   ZZ=           -142.4363
   XY=            -15.4137   XZ=             -0.9714   YZ=              4.5171

  Exact polarizability: 229.048   1.366 194.239  -0.116   0.862 142.538
 Approx polarizability: 266.463   0.582 248.792  -0.321   2.225 231.094

 ******    7 imaginary frequencies (negative Signs) ******

                     1                      2                      3
                     A                      A                      A
 Frequencies --  -266.6212              -265.5320              -265.1344
 Red. masses --     1.2982                 1.2566                 1.7169
 Frc consts  --     0.0544                 0.0522                 0.0711
 IR Inten    --    27.0911               164.8207                13.9806
 Raman Activ --     0.8714                 0.5918                 0.1417

                     4                      5                      6
                     A                      A                      A
 Frequencies --  -235.4452               -79.6773               -71.3542
 Red. masses --     1.4887                 6.5187                 6.5610
 Frc consts  --     0.0486                 0.0244                 0.0197
 IR Inten    --    30.3899                 0.8226                 0.1997
 Raman Activ --     0.4513                 0.0222                 0.0182

                     7                      8                      9
                     A                      A                      A
 Frequencies --   -41.4294                21.2632                33.4236
 Red. masses --     6.4330                 6.9314                 6.9694
 Frc consts  --     0.0065                 0.0018                 0.0046
 IR Inten    --     0.7289                 4.6160                 0.2092
 Raman Activ --     0.0506                 0.0398                 0.0462

                    10                     11                     12
                     A                      A                      A
 Frequencies --    65.0082                86.9114               115.6613
 Red. masses --     6.9460                 6.7886                 6.0188
 Frc consts  --     0.0173                 0.0302                 0.0474
 IR Inten    --     0.9522                 0.8359                 1.6469
 Raman Activ --     0.2165                 0.0545                 0.2337

                    13                     14                     15
                     A                      A                      A
 Frequencies --   132.4603               149.2822               169.9027
 Red. masses --     6.0661                 6.1926                 6.0405
 Frc consts  --     0.0627                 0.0813                 0.1027
 IR Inten    --     0.5936                 4.5645                 0.7648
 Raman Activ --     0.1384                 0.2040                 0.2300

                    16                     17                     18
                     A                      A                      A
 Frequencies --   192.2641               230.3670               230.9468
 Red. masses --     6.5925                 5.5428                 4.8567
 Frc consts  --     0.1436                 0.1733                 0.1526
 IR Inten    --     0.8107                 2.7598                19.9827
 Raman Activ --     2.1033                 1.2364                 0.6056

                    19                     20                     21
                     A                      A                      A
 Frequencies --   265.7701               283.6415               292.9677
 Red. masses --     4.6299                 4.4956                 5.9379
 Frc consts  --     0.1927                 0.2131                 0.3003
 IR Inten    --     1.5911                 1.0286                 2.4786
 Raman Activ --     0.2088                 0.1778                 0.5251

                    22                     23                     24
                     A                      A                      A
 Frequencies --   305.7906               317.3360               323.2189
 Red. masses --     4.8530                 5.5800                 5.1811
 Frc consts  --     0.2674                 0.3311                 0.3189
 IR Inten    --     6.2700                 6.9076                 3.2012
 Raman Activ --     0.9901                 2.7067                 1.4809

                    25                     26                     27
                     A                      A                      A
 Frequencies --   333.3866               358.9371               367.8045
 Red. masses --     6.4891                 5.0782                 6.2296
 Frc consts  --     0.4249                 0.3855                 0.4965
 IR Inten    --     5.0493                 4.3823                 2.6856
 Raman Activ --     8.4504                 0.2148                 0.6712

                    28                     29                     30
                     A                      A                      A
 Frequencies --   396.3639               409.4656               424.3171
 Red. masses --     4.9066                 6.1554                 4.8515
 Frc consts  --     0.4542                 0.6081                 0.5146
 IR Inten    --    16.0665                 3.8397                 2.4651
 Raman Activ --     2.3396                 5.0667                 2.1686

                    31                     32                     33
                     A                      A                      A
 Frequencies --   432.3920               459.4295               479.5431
 Red. masses --     5.9042                 4.2448                 3.9732
 Frc consts  --     0.6504                 0.5279                 0.5383
 IR Inten    --     2.6014                10.5100                16.0157
 Raman Activ --     2.7865                 2.2709                 0.8684

                    34                     35                     36
                     A                      A                      A
 Frequencies --   497.1000               521.1808               554.5391
 Red. masses --     3.3806                 3.8495                 3.7651
 Frc consts  --     0.4922                 0.6161                 0.6822
 IR Inten    --     3.1521                24.2823                17.7084
 Raman Activ --     6.1129                 1.1737                 2.2927

                    37                     38                     39
                     A                      A                      A
 Frequencies --   566.0078               587.9062               604.8149
 Red. masses --     3.0199                 5.4133                 5.0685
 Frc consts  --     0.5700                 1.1024                 1.0924
 IR Inten    --    26.2915                14.4752                 4.7481
 Raman Activ --     0.5640                 0.8925                 0.6366

                    40                     41                     42
                     A                      A                      A
 Frequencies --   617.1207               641.6994               681.0924
 Red. masses --     3.3177                 1.2656                 3.5303
 Frc consts  --     0.7444                 0.3070                 0.9649
 IR Inten    --    55.1201                92.1780                 4.7836
 Raman Activ --     2.2137                 1.5782                 0.8646

                    43                     44                     45
                     A                      A                      A
 Frequencies --   695.4228               708.7174               729.5387
 Red. masses --     1.1602                 1.0755                 1.0771
 Frc consts  --     0.3306                 0.3183                 0.3377
 IR Inten    --    83.8135               112.4264               106.2598
 Raman Activ --     1.3250                 1.7875                 2.0034

                    46                     47                     48
                     A                      A                      A
 Frequencies --   778.8198               805.4625               839.2603
 Red. masses --     1.0711                 1.0670                 1.7661
 Frc consts  --     0.3828                 0.4079                 0.7329
 IR Inten    --    60.3366               105.6120                 6.8595
 Raman Activ --     0.7844                 0.9507                 0.7198

                    49                     50                     51
                     A                      A                      A
 Frequencies --   856.8217               933.9966               958.1122
 Red. masses --     1.7280                 5.5672                 5.1416
 Frc consts  --     0.7474                 2.8614                 2.7809
 IR Inten    --     2.3964               160.0543                66.3867
 Raman Activ --     0.6511                 2.6921                 0.5049

                    52                     53                     54
                     A                      A                      A
 Frequencies --   980.5725               984.4044               999.8693
 Red. masses --     5.4712                 5.2684                 4.2687
 Frc consts  --     3.0995                 3.0080                 2.5144
 IR Inten    --     2.9539               120.5082                73.0929
 Raman Activ --     3.8785                 1.0715                 1.7306

                    55                     56                     57
                     A                      A                      A
 Frequencies --  1012.9907              1018.8571              1032.1873
 Red. masses --     7.7598                 5.7641                 5.0885
 Frc consts  --     4.6915                 3.5254                 3.1942
 IR Inten    --   212.6031               101.2902               128.5141
 Raman Activ --     1.1539                 2.5793                 2.7411

                    58                     59                     60
                     A                      A                      A
 Frequencies --  1046.3101              1058.4162              1076.9764
 Red. masses --     3.1700                 4.2220                 6.3617
 Frc consts  --     2.0447                 2.7867                 4.3475
 IR Inten    --   178.1164               329.3505               246.3638
 Raman Activ --     4.1136                 6.9445                 1.9307

                    61                     62                     63
                     A                      A                      A
 Frequencies --  1082.1942              1086.1996              1088.5945
 Red. masses --     5.5892                 5.0875                 5.2444
 Frc consts  --     3.8567                 3.5365                 3.6617
 IR Inten    --    42.0095                31.0063                49.2299
 Raman Activ --     0.9735                 9.7421                 3.3708

                    64                     65                     66
                     A                      A                      A
 Frequencies --  1104.6472              1111.7547              1119.1272
 Red. masses --     2.8879                 2.4626                 2.8802
 Frc consts  --     2.0763                 1.7934                 2.1254
 IR Inten    --    40.0047                73.0079                56.8006
 Raman Activ --    16.0246                10.4618                 3.8164

                    67                     68                     69
                     A                      A                      A
 Frequencies --  1126.6440              1128.2567              1152.9982
 Red. masses --     2.9032                 3.7175                 1.7977
 Frc consts  --     2.1712                 2.7882                 1.4081
 IR Inten    --    66.4628                14.0006                 2.4940
 Raman Activ --     0.7389                 5.4856                 6.5536

                    70                     71                     72
                     A                      A                      A
 Frequencies --  1153.7510              1162.3428              1164.8473
 Red. masses --     2.6487                 2.6366                 1.5098
 Frc consts  --     2.0774                 2.0987                 1.2070
 IR Inten    --    33.5261                46.2298                 1.5102
 Raman Activ --     2.0356                 7.6181                 1.1447

                    73                     74                     75
                     A                      A                      A
 Frequencies --  1170.6710              1182.8295              1198.6804
 Red. masses --     1.6800                 2.3649                 1.6328
 Frc consts  --     1.3565                 1.9495                 1.3823
 IR Inten    --     9.0648                 8.8738                25.8658
 Raman Activ --     2.3955                 3.0914                 3.7601

                    76                     77                     78
                     A                      A                      A
 Frequencies --  1207.7199              1208.9641              1237.3246
 Red. masses --     1.3963                 1.4565                 1.2208
 Frc consts  --     1.1999                 1.2543                 1.1012
 IR Inten    --    15.6193                 3.8263                16.2709
 Raman Activ --     0.9353                 1.9058                 1.6457

                    79                     80                     81
                     A                      A                      A
 Frequencies --  1251.6777              1253.5387              1262.6949
 Red. masses --     1.2433                 1.3554                 1.3075
 Frc consts  --     1.1476                 1.2548                 1.2282
 IR Inten    --     0.1336                 4.7805                24.2045
 Raman Activ --     2.1324                 3.1526                 0.9192

                    82                     83                     84
                     A                      A                      A
 Frequencies --  1279.6075              1284.0998              1294.8817
 Red. masses --     1.2882                 1.3433                 1.3163
 Frc consts  --     1.2428                 1.3050                 1.3003
 IR Inten    --    11.0561                25.4173                 1.6436
 Raman Activ --     3.0436                 5.3942                 1.7802

                    85                     86                     87
                     A                      A                      A
 Frequencies --  1296.3801              1299.5315              1309.7886
 Red. masses --     1.1726                 1.2683                 1.2963
 Frc consts  --     1.1611                 1.2619                 1.3102
 IR Inten    --     1.9206                19.9158                 4.4716
 Raman Activ --     3.8473                 1.8206                 2.4741

                    88                     89                     90
                     A                      A                      A
 Frequencies --  1319.3368              1327.9469              1343.6858
 Red. masses --     1.2842                 1.3364                 1.1645
 Frc consts  --     1.3170                 1.3885                 1.2388
 IR Inten    --    40.8254                29.7239                 7.2144
 Raman Activ --     6.9953                 4.9303                10.4689

                    91                     92                     93
                     A                      A                      A
 Frequencies --  1350.3910              1352.5548              1359.7570
 Red. masses --     1.1424                 1.1803                 1.2122
 Frc consts  --     1.2274                 1.2722                 1.3206
 IR Inten    --    41.7700                60.4934                 5.7442
 Raman Activ --     1.3614                 5.5149                 3.4135

                    94                     95                     96
                     A                      A                      A
 Frequencies --  1367.9152              1372.6386              1382.4469
 Red. masses --     1.1852                 1.6447                 1.3769
 Frc consts  --     1.3067                 1.8258                 1.5504
 IR Inten    --    31.7774                 1.2376                14.4763
 Raman Activ --     8.0187                 7.9087                 7.3466

                    97                     98                     99
                     A                      A                      A
 Frequencies --  1391.5693              1395.9305              1398.3342
 Red. masses --     1.3579                 1.3605                 1.4823
 Frc consts  --     1.5493                 1.5619                 1.7077
 IR Inten    --     7.8232                 8.0356                 4.8078
 Raman Activ --     6.3390                 1.5903                 7.1062

                   100                    101                    102
                     A                      A                      A
 Frequencies --  1429.8058              1436.6979              1441.3661
 Red. masses --     1.3665                 1.4434                 1.4392
 Frc consts  --     1.6460                 1.7554                 1.7616
 IR Inten    --    65.6783                 6.8686                39.8147
 Raman Activ --     0.3558                 1.5799                 0.7358

                   103                    104                    105
                     A                      A                      A
 Frequencies --  1458.4624              1464.6014              1471.2230
 Red. masses --     1.4544                 1.3801                 1.0857
 Frc consts  --     1.8228                 1.7442                 1.3845
 IR Inten    --    22.6245                22.2860                 7.1228
 Raman Activ --     0.6041                 3.4673                 4.1188

                   106                    107                    108
                     A                      A                      A
 Frequencies --  1478.1979              1481.7016              3266.3437
 Red. masses --     1.1082                 1.3112                 1.0794
 Frc consts  --     1.4268                 1.6960                 6.7854
 IR Inten    --     6.6086                69.7302                15.1784
 Raman Activ --     3.6771                 3.3419               124.7394

                   109                    110                    111
                     A                      A                      A
 Frequencies --  3267.6268              3273.3114              3274.0874
 Red. masses --     1.0748                 1.0584                 1.0593
 Frc consts  --     6.7617                 6.6816                 6.6902
 IR Inten    --   504.3241                55.4103                32.5011
 Raman Activ --   103.7071                70.7292               182.6018

                   112                    113                    114
                     A                      A                      A
 Frequencies --  3278.2161              3281.9297              3286.0622
 Red. masses --     1.0818                 1.0803                 1.0848
 Frc consts  --     6.8495                 6.8557                 6.9014
 IR Inten    --     4.6886               170.6761                32.3946
 Raman Activ --     6.6375                66.0470               166.2183

                   115                    116                    117
                     A                      A                      A
 Frequencies --  3288.9431              3294.4080              3297.0644
 Red. masses --     1.0800                 1.0847                 1.0852
 Frc consts  --     6.8831                 6.9361                 6.9502
 IR Inten    --   170.8427                 6.1738                24.5719
 Raman Activ --    49.7114                41.2325                42.3157

                   118                    119                    120
                     A                      A                      A
 Frequencies --  3304.3651              3306.1269              3313.3019
 Red. masses --     1.0864                 1.0853                 1.0865
 Frc consts  --     6.9893                 6.9897                 7.0274
 IR Inten    --    25.7206               113.3529                86.4795
 Raman Activ --    76.6156                17.8465                23.0777

                   121                    122                    123
                     A                      A                      A
 Frequencies --  3330.1343              3335.1198              3343.4943
 Red. masses --     1.1057                 1.1070                 1.0691
 Frc consts  --     7.2247                 7.2546                 7.0413
 IR Inten    --    36.0449                39.3492               434.6044
 Raman Activ --    43.0739                30.8826               152.2943

                   124                    125                    126
                     A                      A                      A
 Frequencies --  3390.2314              3391.3665              3395.5390
 Red. masses --     1.0678                 1.0655                 1.0657
 Frc consts  --     7.2308                 7.2201                 7.2392
 IR Inten    --    53.0550                37.7480                21.1403
 Raman Activ --   147.7662                92.1217               121.6629

                   127                    128                    129
                     A                      A                      A
 Frequencies --  3395.8063              3918.0516              3920.7740
 Red. masses --     1.0702                 1.0678                 1.0678
 Frc consts  --     7.2713                 9.6582                 9.6716
 IR Inten    --    50.9227                79.5211                84.9426
 Raman Activ --   139.8347                84.9533               110.3350

 - Thermochemistry -
 -------------------
 Temperature   298.150 Kelvin.  Pressure   1.00000 Atm.
 Atom     1 has atomic number  8 and mass  15.99491

 Molecular mass:   342.11621 amu.
 Principal axes and moments of inertia in atomic units:
                           1         2         3
     Eigenvalues --  4619.77721********************
           X            0.99997  -0.00771  -0.00042
           Y            0.00771   0.99997  -0.00017
           Z            0.00042   0.00016   1.00000
 This molecule is an asymmetric top.
 Rotational symmetry number  1.
 Warning -- assumption of classical behavior for rotation
           may cause significant error
 Rotational temperatures (Kelvin)      0.01875     0.00696     0.00523
 Rotational constants (GHZ):           0.39066     0.14507     0.10903
    7 imaginary frequencies ignored.
 Zero-point vibrational energy     975331.3 (Joules/Mol)
                                  233.10978 (Kcal/Mol)
 Warning -- explicit consideration of  33 degrees of freedom as
           vibrations may cause significant error
 Vibrational temperatures:     30.59    48.09    93.53   125.05   166.41
          (Kelvin)            190.58   214.78   244.45   276.62   331.45
                              332.28   382.38   408.10   421.51   439.96
                              456.58   465.04   479.67   516.43   529.19
                              570.28   589.13   610.50   622.11   661.02
                              689.95   715.22   749.86   797.86   814.36
                              845.86   870.19   887.90   923.26   979.94
                             1000.56  1019.68  1049.64  1120.55  1158.88
                             1207.51  1232.77  1343.81  1378.51  1410.82
                             1416.34  1438.59  1457.47  1465.91  1485.09
                             1505.40  1522.82  1549.53  1557.03  1562.80
                             1566.24  1589.34  1599.56  1610.17  1620.99
                             1623.31  1658.91  1659.99  1672.35  1675.95
                             1684.33  1701.83  1724.63  1737.64  1739.43
                             1780.23  1800.88  1803.56  1816.73  1841.07
                             1847.53  1863.04  1865.20  1869.73  1884.49
                             1898.23  1910.62  1933.26  1942.91  1946.02
                             1956.38  1968.12  1974.92  1989.03  2002.16
                             2008.43  2011.89  2057.17  2067.09  2073.80
                             2098.40  2107.23  2116.76  2126.79  2131.84
                             4699.53  4701.38  4709.56  4710.68  4716.62
                             4721.96  4727.90  4732.05  4739.91  4743.73
                             4754.24  4756.77  4767.10  4791.31  4798.49
                             4810.54  4877.78  4879.41  4885.42  4885.80
                             5637.20  5641.11

 Zero-point correction=                           0.371484 (Hartree/Particle)
 Thermal correction to Energy=                    0.390353
 Thermal correction to Enthalpy=                  0.391297
 Thermal correction to Gibbs Free Energy=         0.323993
 Sum of electronic and zero-point Energies=          -1297.569829
 Sum of electronic and thermal Energies=             -1297.550961
 Sum of electronic and thermal Enthalpies=           -1297.550017
 Sum of electronic and thermal Free Energies=        -1297.617320

                     E (Thermal)             CV                S
                      KCal/Mol        Cal/Mol-Kelvin    Cal/Mol-Kelvin
 Total                  244.950             76.548            141.652
 Electronic               0.000              0.000              0.000
 Translational            0.889              2.981             43.384
 Rotational               0.889              2.981             35.208
 Vibrational            243.172             70.586             63.060
 Vibration     1          0.593              1.985              6.513
 Vibration     2          0.594              1.983              5.615
 Vibration     3          0.597              1.971              4.299
 Vibration     4          0.601              1.958              3.728
 Vibration     5          0.608              1.936              3.172
 Vibration     6          0.613              1.921              2.910
 Vibration     7          0.618              1.903              2.681
 Vibration     8          0.625              1.880              2.437
 Vibration     9          0.634              1.851              2.206
 Vibration    10          0.652              1.795              1.876
 Vibration    11          0.653              1.794              1.872
 Vibration    12          0.672              1.736              1.624
 Vibration    13          0.682              1.704              1.512
 Vibration    14          0.688              1.687              1.457
 Vibration    15          0.696              1.663              1.385
 Vibration    16          0.704              1.640              1.324
 Vibration    17          0.708              1.629              1.294
 Vibration    18          0.715              1.609              1.244
 Vibration    19          0.734              1.557              1.127
 Vibration    20          0.740              1.538              1.089
 Vibration    21          0.763              1.478              0.976
 Vibration    22          0.774              1.450              0.929
 Vibration    23          0.786              1.417              0.877
 Vibration    24          0.793              1.400              0.851
 Vibration    25          0.817              1.340              0.768
 Vibration    26          0.836              1.295              0.711
 Vibration    27          0.853              1.256              0.665
 Vibration    28          0.876              1.203              0.607
 Vibration    29          0.910              1.130              0.535
 Vibration    30          0.922              1.105              0.512
 Vibration    31          0.945              1.058              0.471
 Vibration    32          0.963              1.022              0.441
 Vibration    33          0.977              0.996              0.421

 Normal termination of Gaussian 09 at Thu Jan 21 17:46:41 2016.
