 Gaussian 09, Revision B.01,
 Gaussian 09:  EM64L-G09RevB.01 12-Aug-2010

 -------------------------------------------------
 # freq=raman b3lyp/6-31+g(2d,p) geom=connectivity
 -------------------------------------------------

 -----------------
 493 5628/5628.com
 -----------------
 Symbolic Z-matrix:
 Charge =  0 Multiplicity = 1

                         Standard orientation:
 ---------------------------------------------------------------------
 Center     Atomic      Atomic             Coordinates (Angstroms)
 Number     Number       Type             X           Y           Z
 ---------------------------------------------------------------------
      1          8           0        5.003943   -0.367601   -0.419575
      2          6           0        3.746382   -0.038671    0.187865
      3          6           0        3.178110    1.268355   -0.341558
      4          8           0        4.062728    2.320813    0.070091
      5          1           0        4.990278    2.109803   -0.237727
      6          6           0        1.800651    1.584680    0.216019
      7          8           0        1.289501    2.827758   -0.288071
      8          1           0        0.404246    2.954353    0.158766
      9          6           0        3.254135   -2.462995    0.370633
     10          8           0        4.467175   -3.053445   -0.118875
     11          1           0        4.256077   -4.001810   -0.358321
     12          6           0        2.792786   -1.144913   -0.229630
     13          8           0        1.451548   -0.913146    0.227593
     14          6           0        0.960630    0.376375   -0.166080
     15          8           0       -0.273350    0.510784    0.554525
     16          6           0       -1.493602    0.209153   -0.136056
     17          6           0       -1.997307   -1.164793    0.275550
     18          8           0       -1.034805   -2.120937   -0.192837
     19          1           0       -0.138005   -1.738220    0.029615
     20          6           0       -3.371734   -1.590357   -0.213972
     21          8           0       -3.847221   -2.759591    0.467112
     22          1           0       -4.707205   -2.987228    0.009554
     23          6           0       -2.516354    2.624495   -0.064399
     24          8           0       -1.366994    3.344405    0.405425
     25          1           0       -1.622784    4.310781    0.416494
     26          6           0       -2.625721    1.143184    0.260048
     27          8           0       -3.859439    0.788914   -0.380757
     28          6           0       -4.347339   -0.469412    0.105643
     29          8           0       -5.536046   -0.738584   -0.652290
     30          1           0       -6.237859   -1.016157   -0.058985
     31          1           0       -4.558870   -0.425148    1.153592
     32          1           0       -3.347513   -1.765014   -1.269343
     33          1           0       -2.006151   -1.202285    1.344857
     34          1           0       -1.338856    0.243896   -1.194237
     35          1           0       -2.765516    1.050682    1.316836
     36          1           0       -3.384266    3.106937    0.334196
     37          1           0        5.627740   -0.633482    0.259972
     38          1           0        2.468481   -3.174945    0.226495
     39          1           0        3.370738   -2.313900    1.423759
     40          1           0        2.792105   -1.224887   -1.296636
     41          1           0        3.839666   -0.005453    1.253274
     42          1           0        3.133819    1.234031   -1.410090
     43          1           0        1.861994    1.642058    1.282717
     44          1           0        0.768261    0.385871   -1.218603
     45          1           0       -2.546522    2.724543   -1.129284
 ---------------------------------------------------------------------

 SCF Done:  E(RB3LYP) =  -1298.00451564     A.U. after   13 cycles

 The electronic state is 1-A.
 Alpha  occ. eigenvalues --  -19.19001 -19.18276 -19.17925 -19.17911 -19.17865
 Alpha  occ. eigenvalues --  -19.16750 -19.16489 -19.16407 -19.14606 -19.14288
 Alpha  occ. eigenvalues --  -19.13236 -10.30444 -10.30164 -10.25814 -10.25432
 Alpha  occ. eigenvalues --  -10.25086 -10.24955 -10.24826 -10.24390 -10.24380
 Alpha  occ. eigenvalues --  -10.24083 -10.24058 -10.23710  -1.10157  -1.09101
 Alpha  occ. eigenvalues --   -1.05355  -1.04952  -1.04035  -1.03772  -1.02877
 Alpha  occ. eigenvalues --   -1.02672  -1.01983  -1.00467  -1.00075  -0.81951
 Alpha  occ. eigenvalues --   -0.80570  -0.78957  -0.78202  -0.71768  -0.69729
 Alpha  occ. eigenvalues --   -0.67062  -0.64728  -0.62810  -0.62635  -0.61260
 Alpha  occ. eigenvalues --   -0.60297  -0.56318  -0.55618  -0.54816  -0.54540
 Alpha  occ. eigenvalues --   -0.54064  -0.53218  -0.52807  -0.51988  -0.51426
 Alpha  occ. eigenvalues --   -0.50558  -0.49866  -0.49104  -0.48325  -0.46539
 Alpha  occ. eigenvalues --   -0.45613  -0.45054  -0.43929  -0.43540  -0.43180
 Alpha  occ. eigenvalues --   -0.42698  -0.41916  -0.41118  -0.40243  -0.39514
 Alpha  occ. eigenvalues --   -0.38829  -0.38153  -0.37668  -0.36241  -0.35973
 Alpha  occ. eigenvalues --   -0.35465  -0.35266  -0.34621  -0.33879  -0.33777
 Alpha  occ. eigenvalues --   -0.32681  -0.31339  -0.30867  -0.30440  -0.29970
 Alpha  occ. eigenvalues --   -0.29610  -0.29045  -0.28290  -0.27880  -0.26430
 Alpha  occ. eigenvalues --   -0.25901
 Alpha virt. eigenvalues --   -0.01890  -0.01816  -0.01622  -0.00034   0.00476
 Alpha virt. eigenvalues --    0.01119   0.01925   0.02253   0.03146   0.03428
 Alpha virt. eigenvalues --    0.03812   0.04388   0.05043   0.05317   0.05504

 Mulliken atomic charges:
              1
     1  O   -0.520797
     2  C   -0.051424
     3  C    0.212102
     4  O   -0.558080
     5  H    0.339481
     6  C   -0.121746
     7  O   -0.542411
     8  H    0.398911
     9  C   -0.313845
    10  O   -0.526390
    11  H    0.336446
    12  C    0.230296
    13  O   -0.272461
    14  C    0.270785
    15  O   -0.229115
    16  C    0.123788
    17  C    0.218127
    18  O   -0.600201
    19  H    0.394772
    20  C    0.118813
    21  O   -0.538139
    22  H    0.332695
    23  C   -0.275273
    24  O   -0.554130
    25  H    0.354664
    26  C   -0.056727
    27  O   -0.245268
    28  C    0.101140
    29  O   -0.554522
    30  H    0.336370
    31  H    0.136448
    32  H    0.139593
    33  H    0.126285
    34  H    0.118930
    35  H    0.116227
    36  H    0.145519
    37  H    0.343352
    38  H    0.139581
    39  H    0.141749
    40  H    0.119646
    41  H    0.125539
    42  H    0.124252
    43  H    0.132110
    44  H    0.126853
    45  H    0.156055
 Sum of Mulliken atomic charges =   0.00000

 Dipole moment (field-independent basis, Debye):
    X=             -2.2806    Y=             -0.2694    Z=              1.5943  Tot=              2.7956
 Quadrupole moment (field-independent basis, Debye-Ang):
   XX=           -118.9895   YY=           -135.9766   ZZ=           -138.6959
   XY=            -14.0634   XZ=             -3.0890   YZ=              3.3402

  Exact polarizability: 233.091   1.326 196.745  -0.318   0.419 143.432
 Approx polarizability: 273.428   1.418 256.100  -0.276   1.642 239.154

 ******    6 imaginary frequencies (negative Signs) ******

                     1                      2                      3
                     A                      A                      A
 Frequencies --  -285.6326              -250.8678              -242.6616
 Red. masses --     1.2663                 1.8165                 1.2159
 Frc consts  --     0.0609                 0.0674                 0.0422
 IR Inten    --    87.3744                 2.7945               123.2876
 Raman Activ --     0.5555                 0.1125                 1.0719

                     4                      5                      6
                     A                      A                      A
 Frequencies --  -234.9428               -70.5391               -54.3098
 Red. masses --     1.4630                 6.6843                 6.0976
 Frc consts  --     0.0476                 0.0196                 0.0106
 IR Inten    --    28.8538                 0.9771                 0.3032
 Raman Activ --     0.3391                 0.0204                 0.0276

                     7                      8                      9
                     A                      A                      A
 Frequencies --    39.9631                57.4895                65.5430
 Red. masses --     6.7147                 6.3538                 6.1949
 Frc consts  --     0.0063                 0.0124                 0.0157
 IR Inten    --     1.0699                 1.3228                 3.2968
 Raman Activ --     0.0404                 0.0383                 0.1818

                    10                     11                     12
                     A                      A                      A
 Frequencies --    82.8817               106.6846               127.6253
 Red. masses --     6.6608                 6.7576                 5.4870
 Frc consts  --     0.0270                 0.0453                 0.0527
 IR Inten    --     0.2095                 0.4849                 0.8271
 Raman Activ --     0.1698                 0.0254                 0.0702

                    13                     14                     15
                     A                      A                      A
 Frequencies --   156.7861               185.2583               197.9650
 Red. masses --     6.3148                 6.6406                 6.0341
 Frc consts  --     0.0915                 0.1343                 0.1393
 IR Inten    --     3.3525                 2.2900                 0.8661
 Raman Activ --     0.6016                 0.6453                 0.4017

                    16                     17                     18
                     A                      A                      A
 Frequencies --   199.4307               231.2449               274.0234
 Red. masses --     6.3694                 6.2883                 4.7224
 Frc consts  --     0.1493                 0.1981                 0.2089
 IR Inten    --     0.1375                 1.0202                18.7988
 Raman Activ --     1.6335                 0.7959                 0.2833

                    19                     20                     21
                     A                      A                      A
 Frequencies --   282.5175               291.7521               306.8718
 Red. masses --     4.9621                 5.5362                 5.2745
 Frc consts  --     0.2333                 0.2776                 0.2927
 IR Inten    --     0.9652                 2.1543                 2.0225
 Raman Activ --     0.0445                 0.0508                 0.2282

                    22                     23                     24
                     A                      A                      A
 Frequencies --   316.7394               317.4159               323.4304
 Red. masses --     5.8698                 5.1910                 6.3462
 Frc consts  --     0.3470                 0.3081                 0.3911
 IR Inten    --     3.5249                 3.0792                 4.3747
 Raman Activ --     2.0321                 2.0642                 2.4803

                    25                     26                     27
                     A                      A                      A
 Frequencies --   344.4764               367.1971               377.0312
 Red. masses --     6.8172                 4.5326                 7.2808
 Frc consts  --     0.4766                 0.3601                 0.6098
 IR Inten    --     6.5068                 4.3928                 2.3947
 Raman Activ --     4.0325                 0.0870                 1.2125

                    28                     29                     30
                     A                      A                      A
 Frequencies --   411.1452               416.4742               437.1816
 Red. masses --     6.5110                 3.8579                 5.0549
 Frc consts  --     0.6485                 0.3943                 0.5692
 IR Inten    --     2.8187                18.1959                 0.3549
 Raman Activ --     4.9764                 2.0070                 1.9648

                    31                     32                     33
                     A                      A                      A
 Frequencies --   444.3678               485.0658               498.5007
 Red. masses --     5.1206                 4.2707                 4.1304
 Frc consts  --     0.5957                 0.5920                 0.6047
 IR Inten    --     3.4448                 2.2494                 9.8646
 Raman Activ --     2.0823                 3.6845                 0.1630

                    34                     35                     36
                     A                      A                      A
 Frequencies --   523.3110               532.5406               564.4518
 Red. masses --     3.8403                 3.2667                 4.7537
 Frc consts  --     0.6196                 0.5458                 0.8924
 IR Inten    --     9.7336                10.2015                 6.3603
 Raman Activ --     3.3491                 3.1307                 1.4895

                    37                     38                     39
                     A                      A                      A
 Frequencies --   592.1315               595.5270               617.0287
 Red. masses --     3.3701                 3.7759                 4.7128
 Frc consts  --     0.6962                 0.7890                 1.0571
 IR Inten    --    34.4573                14.5798                 8.8908
 Raman Activ --     0.5944                 0.3979                 0.5061

                    40                     41                     42
                     A                      A                      A
 Frequencies --   631.1173               684.8014               695.8078
 Red. masses --     4.2270                 2.6280                 1.4061
 Frc consts  --     0.9920                 0.7261                 0.4011
 IR Inten    --    44.3459                37.7511                55.6764
 Raman Activ --     1.7179                 0.8301                 2.1319

                    43                     44                     45
                     A                      A                      A
 Frequencies --   708.3584               756.8207               763.5209
 Red. masses --     1.0773                 1.0681                 1.0890
 Frc consts  --     0.3185                 0.3604                 0.3741
 IR Inten    --   113.4394               102.8143                89.4670
 Raman Activ --     1.6497                 1.9447                 1.4320

                    46                     47                     48
                     A                      A                      A
 Frequencies --   833.9902               853.2623               857.1155
 Red. masses --     1.0988                 1.5684                 1.2128
 Frc consts  --     0.4503                 0.6728                 0.5250
 IR Inten    --    85.1826                 9.9611                57.7824
 Raman Activ --     1.5324                 0.7129                 1.2290

                    49                     50                     51
                     A                      A                      A
 Frequencies --   868.3018               930.9840               960.4814
 Red. masses --     1.5064                 5.7567                 4.9822
 Frc consts  --     0.6692                 2.9397                 2.7080
 IR Inten    --     8.6450               123.7378                47.6397
 Raman Activ --     0.8062                 3.0510                 0.6544

                    52                     53                     54
                     A                      A                      A
 Frequencies --   972.1438               986.6406               994.3310
 Red. masses --     6.9564                 5.6126                 4.6221
 Frc consts  --     3.8734                 3.2191                 2.6925
 IR Inten    --    90.6006               110.3170                32.8233
 Raman Activ --     1.4536                 2.7360                 0.3815

                    55                     56                     57
                     A                      A                      A
 Frequencies --  1006.5608              1016.6618              1024.4713
 Red. masses --     6.7574                 6.5223                 5.6572
 Frc consts  --     4.0337                 3.9720                 3.4982
 IR Inten    --   517.0111                32.7426               156.4067
 Raman Activ --     2.1510                 3.4050                 3.2897

                    58                     59                     60
                     A                      A                      A
 Frequencies --  1035.3390              1054.3092              1059.5755
 Red. masses --     6.4041                 5.3989                 6.6721
 Frc consts  --     4.0446                 3.5358                 4.4134
 IR Inten    --   238.2006                55.1573               196.7136
 Raman Activ --     2.2317                 8.2380                 0.2847

                    61                     62                     63
                     A                      A                      A
 Frequencies --  1063.1843              1075.6509              1080.5961
 Red. masses --     4.2346                 4.0766                 3.9111
 Frc consts  --     2.8202                 2.7790                 2.6908
 IR Inten    --    12.1486                10.7705                15.3577
 Raman Activ --     2.6037                 8.7407                24.8637

                    64                     65                     66
                     A                      A                      A
 Frequencies --  1086.1783              1099.1653              1104.3624
 Red. masses --     2.3125                 2.8763                 2.3869
 Frc consts  --     1.6074                 2.0474                 1.7152
 IR Inten    --    58.6126                18.0636                66.0071
 Raman Activ --    14.1501                 4.7888                 2.6482

                    67                     68                     69
                     A                      A                      A
 Frequencies --  1108.5487              1115.4601              1125.5345
 Red. masses --     2.8390                 3.0096                 2.5148
 Frc consts  --     2.0556                 2.2063                 1.8770
 IR Inten    --    20.4352                27.7900                19.4070
 Raman Activ --     2.7601                 3.8239                 6.8196

                    70                     71                     72
                     A                      A                      A
 Frequencies --  1139.6920              1141.8765              1151.0108
 Red. masses --     2.5220                 1.6408                 1.6586
 Frc consts  --     1.9300                 1.2605                 1.2946
 IR Inten    --     2.6693                 9.6338                 3.1535
 Raman Activ --     3.5793                 3.6268                 1.6057

                    73                     74                     75
                     A                      A                      A
 Frequencies --  1155.6680              1165.1943              1185.0984
 Red. masses --     2.0008                 1.8082                 1.6717
 Frc consts  --     1.5744                 1.4464                 1.3833
 IR Inten    --    13.9742                 2.1277                10.7754
 Raman Activ --     3.7742                 2.7164                 1.9036

                    76                     77                     78
                     A                      A                      A
 Frequencies --  1190.9455              1203.9107              1223.1380
 Red. masses --     1.3770                 1.5355                 1.2627
 Frc consts  --     1.1507                 1.3113                 1.1130
 IR Inten    --    22.4291                 7.2938                 6.5382
 Raman Activ --     0.1900                 2.2766                 0.7845

                    79                     80                     81
                     A                      A                      A
 Frequencies --  1235.3786              1242.2362              1247.4440
 Red. masses --     1.2168                 1.2162                 1.1845
 Frc consts  --     1.0941                 1.1058                 1.0860
 IR Inten    --    19.4578                 6.9274                13.6793
 Raman Activ --     1.6096                 0.5128                 0.7846

                    82                     83                     84
                     A                      A                      A
 Frequencies --  1267.1116              1278.9217              1287.4090
 Red. masses --     1.2059                 1.3766                 1.3149
 Frc consts  --     1.1408                 1.3266                 1.2840
 IR Inten    --     7.7936                12.5866                 6.8335
 Raman Activ --     0.9308                 2.3761                 2.3465

                    85                     86                     87
                     A                      A                      A
 Frequencies --  1289.3888              1291.3757              1302.7413
 Red. masses --     1.2915                 1.3323                 1.2740
 Frc consts  --     1.2650                 1.3091                 1.2739
 IR Inten    --    15.7379                24.0247                41.5221
 Raman Activ --     2.7796                 0.5688                 7.5505

                    88                     89                     90
                     A                      A                      A
 Frequencies --  1306.8302              1316.4723              1320.2454
 Red. masses --     1.2771                 1.3909                 1.3623
 Frc consts  --     1.2850                 1.4202                 1.3990
 IR Inten    --     2.4438                 6.9634                46.3585
 Raman Activ --     7.5320                10.2825                 1.0425

                    91                     92                     93
                     A                      A                      A
 Frequencies --  1331.0155              1333.7345              1351.6054
 Red. masses --     1.2490                 1.2756                 1.2140
 Frc consts  --     1.3037                 1.3369                 1.3067
 IR Inten    --    34.1344                12.3716                31.1232
 Raman Activ --     2.7132                 8.5315                 0.5975

                    94                     95                     96
                     A                      A                      A
 Frequencies --  1357.9356              1364.6530              1368.3227
 Red. masses --     1.4454                 1.3919                 1.4223
 Frc consts  --     1.5704                 1.5272                 1.5690
 IR Inten    --     3.7455                29.3007                12.4354
 Raman Activ --     8.7615                 6.0516                 4.5196

                    97                     98                     99
                     A                      A                      A
 Frequencies --  1373.1270              1388.1662              1399.5646
 Red. masses --     1.5683                 1.3742                 1.5364
 Frc consts  --     1.7422                 1.5602                 1.7731
 IR Inten    --     8.1876                 7.5223                 3.6184
 Raman Activ --     3.8863                 4.0418                 5.1733

                   100                    101                    102
                     A                      A                      A
 Frequencies --  1431.7064              1454.1050              1462.8895
 Red. masses --     1.3990                 1.3567                 1.1222
 Frc consts  --     1.6896                 1.6901                 1.4149
 IR Inten    --    39.9847                33.8863                12.2401
 Raman Activ --     1.6609                 1.4299                 5.3055

                   103                    104                    105
                     A                      A                      A
 Frequencies --  1473.8876              1474.0431              1480.2163
 Red. masses --     1.2061                 1.0884                 1.3689
 Frc consts  --     1.5437                 1.3933                 1.7671
 IR Inten    --    30.1668                10.1732                20.4517
 Raman Activ --     1.0993                 5.4501                 0.3374

                   106                    107                    108
                     A                      A                      A
 Frequencies --  1497.6770              1522.0481              3256.4728
 Red. masses --     1.2933                 1.2585                 1.0577
 Frc consts  --     1.7092                 1.7177                 6.6085
 IR Inten    --    40.6813                50.0258                22.1481
 Raman Activ --     0.8906                 2.2772                73.7806

                   109                    110                    111
                     A                      A                      A
 Frequencies --  3261.7910              3267.9163              3274.1826
 Red. masses --     1.0586                 1.0817                 1.0808
 Frc consts  --     6.6356                 6.8061                 6.8265
 IR Inten    --    49.7576                30.4956                72.7812
 Raman Activ --    80.3742                12.2135               112.5426

                   112                    113                    114
                     A                      A                      A
 Frequencies --  3278.3265              3281.1245              3283.6663
 Red. masses --     1.0831                 1.0842                 1.0822
 Frc consts  --     6.8584                 6.8768                 6.8749
 IR Inten    --    21.5113                 1.3872                53.0585
 Raman Activ --     9.6602                 2.1837               246.0857

                   115                    116                    117
                     A                      A                      A
 Frequencies --  3289.3826              3291.6225              3291.9174
 Red. masses --     1.0857                 1.0829                 1.0808
 Frc consts  --     6.9215                 6.9131                 6.9009
 IR Inten    --    13.4071                21.8168                96.2191
 Raman Activ --   146.5498                45.4481                74.2688

                   118                    119                    120
                     A                      A                      A
 Frequencies --  3297.0750              3304.0805              3306.5760
 Red. masses --     1.0805                 1.0878                 1.0868
 Frc consts  --     6.9202                 6.9967                 7.0008
 IR Inten    --    83.8567                96.6098                76.8455
 Raman Activ --   153.5940                 3.9779                37.9732

                   121                    122                    123
                     A                      A                      A
 Frequencies --  3308.9888              3314.2798              3318.0644
 Red. masses --     1.0705                 1.1004                 1.1060
 Frc consts  --     6.9059                 7.1218                 7.1740
 IR Inten    --   766.8439               103.5363                78.7231
 Raman Activ --    80.2651                26.9751                32.8381

                   124                    125                    126
                     A                      A                      A
 Frequencies --  3364.0937              3364.3912              3368.7898
 Red. masses --     1.0653                 1.0707                 1.0657
 Frc consts  --     7.1033                 7.1405                 7.1260
 IR Inten    --    30.9165                32.6765                30.4484
 Raman Activ --   114.2883               138.9999               134.9317

                   127                    128                    129
                     A                      A                      A
 Frequencies --  3376.2823              3891.7646              3892.1420
 Red. masses --     1.0671                 1.0674                 1.0675
 Frc consts  --     7.1666                 9.5247                 9.5280
 IR Inten    --    56.1451                83.9855                66.2317
 Raman Activ --   148.0370                90.8695               102.7335

 - Thermochemistry -
 -------------------
 Temperature   298.150 Kelvin.  Pressure   1.00000 Atm.
 Atom     1 has atomic number  8 and mass  15.99491

 Molecular mass:   342.11621 amu.
 Principal axes and moments of inertia in atomic units:
                           1         2         3
     Eigenvalues --  4364.59194********************
           X            0.99997  -0.00753  -0.00057
           Y            0.00753   0.99997  -0.00029
           Z            0.00057   0.00029   1.00000
 This molecule is an asymmetric top.
 Rotational symmetry number  1.
 Warning -- assumption of classical behavior for rotation
           may cause significant error
 Rotational temperatures (Kelvin)      0.01984     0.00688     0.00523
 Rotational constants (GHZ):           0.41350     0.14332     0.10891
    6 imaginary frequencies ignored.
 Zero-point vibrational energy     976230.8 (Joules/Mol)
                                  233.32476 (Kcal/Mol)
 Warning -- explicit consideration of  33 degrees of freedom as
           vibrations may cause significant error
 Vibrational temperatures:     57.50    82.71    94.30   119.25   153.50
          (Kelvin)            183.62   225.58   266.54   284.83   286.94
                              332.71   394.26   406.48   419.77   441.52
                              455.72   456.69   465.34   495.62   528.31
                              542.46   591.55   599.21   629.01   639.35
                              697.90   717.23   752.93   766.21   812.12
                              851.94   856.83   887.77   908.04   985.28
                             1001.11  1019.17  1088.89  1098.53  1199.92
                             1227.65  1233.20  1249.29  1339.48  1381.92
                             1398.70  1419.55  1430.62  1448.21  1462.75
                             1473.98  1489.62  1516.91  1524.49  1529.68
                             1547.62  1554.73  1562.77  1581.45  1588.93
                             1594.95  1604.90  1619.39  1639.76  1642.90
                             1656.05  1662.75  1676.45  1705.09  1713.50
                             1732.16  1759.82  1777.43  1787.30  1794.79
                             1823.09  1840.08  1852.29  1855.14  1858.00
                             1874.35  1880.23  1894.11  1899.54  1915.03
                             1918.94  1944.66  1953.76  1963.43  1968.71
                             1975.62  1997.26  2013.66  2059.90  2092.13
                             2104.77  2120.59  2120.82  2129.70  2154.82
                             2189.89  4685.33  4692.98  4701.80  4710.81
                             4716.77  4720.80  4724.46  4732.68  4735.90
                             4736.33  4743.75  4753.83  4757.42  4760.89
                             4768.50  4773.95  4840.17  4840.60  4846.93
                             4857.71  5599.37  5599.92

 Zero-point correction=                           0.371827 (Hartree/Particle)
 Thermal correction to Energy=                    0.390794
 Thermal correction to Enthalpy=                  0.391738
 Thermal correction to Gibbs Free Energy=         0.325206
 Sum of electronic and zero-point Energies=          -1297.632689
 Sum of electronic and thermal Energies=             -1297.613722
 Sum of electronic and thermal Enthalpies=           -1297.612778
 Sum of electronic and thermal Free Energies=        -1297.679310

                     E (Thermal)             CV                S
                      KCal/Mol        Cal/Mol-Kelvin    Cal/Mol-Kelvin
 Total                  245.227             77.545            140.028
 Electronic               0.000              0.000              0.000
 Translational            0.889              2.981             43.384
 Rotational               0.889              2.981             35.164
 Vibrational            243.449             71.584             61.479
 Vibration     1          0.594              1.981              5.261
 Vibration     2          0.596              1.975              4.542
 Vibration     3          0.597              1.971              4.283
 Vibration     4          0.600              1.961              3.821
 Vibration     5          0.606              1.944              3.328
 Vibration     6          0.611              1.926              2.982
 Vibration     7          0.620              1.895              2.588
 Vibration     8          0.631              1.860              2.275
 Vibration     9          0.637              1.843              2.152
 Vibration    10          0.638              1.841              2.138
 Vibration    11          0.653              1.793              1.869
 Vibration    12          0.676              1.721              1.571
 Vibration    13          0.682              1.706              1.518
 Vibration    14          0.687              1.689              1.464
 Vibration    15          0.697              1.661              1.379
 Vibration    16          0.704              1.642              1.327
 Vibration    17          0.704              1.640              1.323
 Vibration    18          0.708              1.629              1.293
 Vibration    19          0.723              1.587              1.191
 Vibration    20          0.740              1.540              1.091
 Vibration    21          0.748              1.519              1.051
 Vibration    22          0.775              1.446              0.923
 Vibration    23          0.780              1.434              0.904
 Vibration    24          0.797              1.389              0.836
 Vibration    25          0.804              1.373              0.813
 Vibration    26          0.841              1.283              0.697
 Vibration    27          0.854              1.253              0.662
 Vibration    28          0.878              1.198              0.602
 Vibration    29          0.888              1.178              0.582
 Vibration    30          0.920              1.108              0.515
 Vibration    31          0.950              1.049              0.463
 Vibration    32          0.953              1.041              0.457
 Vibration    33          0.977              0.996              0.421

 Normal termination of Gaussian 09 at Thu Mar 31 03:06:29 2016.
