 Gaussian 09, Revision B.01,
 Gaussian 09:  EM64L-G09RevB.01 12-Aug-2010

 --------------------------------------------------
 # freq=raman b3lyp/6-31+g(2df,p) geom=connectivity
 --------------------------------------------------

 ------------
 310 7000.com
 ------------
 Symbolic Z-matrix:
 Charge =  0 Multiplicity = 1

                         Standard orientation:
 ---------------------------------------------------------------------
 Center     Atomic      Atomic             Coordinates (Angstroms)
 Number     Number       Type             X           Y           Z
 ---------------------------------------------------------------------
      1          8           0        5.000163   -0.302023   -0.541733
      2          6           0        3.742706   -0.066840    0.109176
      3          6           0        3.189513    1.268072   -0.362630
      4          8           0        4.020040    2.377126    0.010601
      5          1           0        4.945845    2.053846   -0.185001
      6          6           0        1.824513    1.497414    0.266641
      7          8           0        1.249960    2.731636   -0.187546
      8          1           0        0.307221    2.904181    0.097333
      9          6           0        3.182765   -2.572249    0.294529
     10          8           0        4.159863   -3.371276   -0.387796
     11          1           0        4.189384   -4.346072   -0.167574
     12          6           0        2.732052   -1.180299   -0.116934
     13          8           0        1.468068   -0.857289    0.480041
     14          6           0        0.895548    0.341260   -0.063910
     15          8           0       -0.300897    0.566844    0.694254
     16          6           0       -1.484526    0.209124   -0.033022
     17          6           0       -2.045510   -1.137950    0.391738
     18          8           0       -1.032797   -2.071514   -0.011086
     19          1           0       -0.155874   -1.818945    0.398525
     20          6           0       -3.412290   -1.560188   -0.121570
     21          8           0       -3.975514   -2.781226    0.378371
     22          1           0       -4.790272   -2.974739   -0.168706
     23          6           0       -2.158430    2.635164   -0.279556
     24          8           0       -1.189792    3.363652    0.489003
     25          1           0       -1.164132    4.306794    0.159830
     26          6           0       -2.573761    1.247652    0.180983
     27          8           0       -3.807409    0.857781   -0.439853
     28          6           0       -4.348931   -0.375965    0.056405
     29          8           0       -5.494273   -0.627277   -0.771114
     30          1           0       -6.241990   -0.866464   -0.218566
     31          1           0       -4.640528   -0.275254    1.080967
     32          1           0       -3.301761   -1.699501   -1.176689
     33          1           0       -2.089250   -1.145961    1.460814
     34          1           0       -1.247568    0.169202   -1.075690
     35          1           0       -2.753314    1.304538    1.234276
     36          1           0       -3.043623    3.234198   -0.329471
     37          1           0       -1.773137    2.540625   -1.273292
     38          1           0        0.702176    0.260588   -1.113195
     39          1           0        1.942823    1.546953    1.328926
     40          1           0        3.086849    1.248920   -1.427521
     41          1           0        5.669176   -0.501644    0.117184
     42          1           0        3.924312    0.003984    1.161271
     43          1           0        2.564888   -1.221068   -1.173009
     44          1           0        2.294245   -3.167243    0.332132
     45          1           0        3.533324   -2.479567    1.301216
 ---------------------------------------------------------------------

 SCF Done:  E(RB3LYP) =  -1298.01199557     A.U. after   13 cycles

 The electronic state is 1-A.
 Alpha  occ. eigenvalues --  -19.19442 -19.18865 -19.18779 -19.18347 -19.17939
 Alpha  occ. eigenvalues --  -19.17286 -19.16936 -19.16087 -19.15103 -19.13758
 Alpha  occ. eigenvalues --  -19.12199 -10.30677 -10.30355 -10.26076 -10.26039
 Alpha  occ. eigenvalues --  -10.25498 -10.25413 -10.25182 -10.24952 -10.24607
 Alpha  occ. eigenvalues --  -10.24391 -10.23856 -10.23548  -1.10301  -1.09039
 Alpha  occ. eigenvalues --   -1.06209  -1.05461  -1.04440  -1.03786  -1.02756
 Alpha  occ. eigenvalues --   -1.02231  -1.01836  -1.00800  -0.98935  -0.82102
 Alpha  occ. eigenvalues --   -0.80366  -0.79483  -0.78349  -0.72210  -0.70154
 Alpha  occ. eigenvalues --   -0.67141  -0.65065  -0.63440  -0.62805  -0.61476
 Alpha  occ. eigenvalues --   -0.60149  -0.56684  -0.55855  -0.55040  -0.54724
 Alpha  occ. eigenvalues --   -0.54156  -0.53905  -0.52891  -0.52257  -0.51068
 Alpha  occ. eigenvalues --   -0.50687  -0.50558  -0.50017  -0.48164  -0.46632
 Alpha  occ. eigenvalues --   -0.46412  -0.45203  -0.44529  -0.43865  -0.43558
 Alpha  occ. eigenvalues --   -0.42910  -0.42027  -0.40676  -0.40211  -0.39536
 Alpha  occ. eigenvalues --   -0.39067  -0.38229  -0.37414  -0.36529  -0.35803
 Alpha  occ. eigenvalues --   -0.35400  -0.34656  -0.34519  -0.33753  -0.33272
 Alpha  occ. eigenvalues --   -0.32660  -0.31713  -0.31198  -0.30683  -0.29907
 Alpha  occ. eigenvalues --   -0.29514  -0.28616  -0.28399  -0.27390  -0.26576
 Alpha  occ. eigenvalues --   -0.26281
 Alpha virt. eigenvalues --   -0.02072  -0.01911  -0.01761  -0.00321   0.00256
 Alpha virt. eigenvalues --    0.00832   0.01867   0.02357   0.02851   0.03534
 Alpha virt. eigenvalues --    0.03774   0.04453   0.05094   0.05208   0.05522

 Mulliken atomic charges:
              1
     1  O   -0.438162
     2  C   -0.296571
     3  C    0.108023
     4  O   -0.445851
     5  H    0.342261
     6  C   -0.180574
     7  O   -0.543537
     8  H    0.476751
     9  C   -0.324407
    10  O   -0.472428
    11  H    0.358408
    12  C    0.145589
    13  O   -0.086722
    14  C    0.012742
    15  O    0.003549
    16  C    0.212476
    17  C    0.075532
    18  O   -0.475691
    19  H    0.391918
    20  C   -0.125786
    21  O   -0.457448
    22  H    0.346688
    23  C   -0.330438
    24  O   -0.487601
    25  H    0.371491
    26  C   -0.299008
    27  O   -0.060320
    28  C    0.044240
    29  O   -0.483421
    30  H    0.349965
    31  H    0.134678
    32  H    0.142220
    33  H    0.129489
    34  H    0.119213
    35  H    0.130563
    36  H    0.153483
    37  H    0.161189
    38  H    0.139771
    39  H    0.134490
    40  H    0.130668
    41  H    0.350830
    42  H    0.130196
    43  H    0.122049
    44  H    0.150500
    45  H    0.138991
 Sum of Mulliken atomic charges =   0.00000

 Dipole moment (field-independent basis, Debye):
    X=             -1.9444    Y=             -0.5751    Z=              1.7370  Tot=              2.6700
 Quadrupole moment (field-independent basis, Debye-Ang):
   XX=           -115.6076   YY=           -135.5352   ZZ=           -141.6645
   XY=            -14.3286   XZ=              3.9452   YZ=             -3.3729

  Exact polarizability: 233.824   1.347 198.714   0.543  -0.607 143.700
 Approx polarizability: 273.667   1.098 258.070   1.035   0.861 240.343

 ******    6 imaginary frequencies (negative Signs) ******

                     1                      2                      3
                     A                      A                      A
 Frequencies --  -352.4130              -268.1120              -222.2641
 Red. masses --     1.6801                 1.7300                 1.2282
 Frc consts  --     0.1229                 0.0733                 0.0357
 IR Inten    --     7.0858                 6.2108               121.8227
 Raman Activ --     0.0778                 0.0470                 1.0672

                     4                      5                      6
                     A                      A                      A
 Frequencies --  -117.2078               -76.9332               -42.6122
 Red. masses --     1.4089                 6.6741                 5.7776
 Frc consts  --     0.0114                 0.0233                 0.0062
 IR Inten    --    82.1654                 1.1812                 1.5457
 Raman Activ --     0.5414                 0.0420                 0.0342

                     7                      8                      9
                     A                      A                      A
 Frequencies --    13.3259                58.2204                75.9453
 Red. masses --     5.8372                 6.8071                 6.1304
 Frc consts  --     0.0006                 0.0136                 0.0208
 IR Inten    --     5.8180                 1.5191                 4.6131
 Raman Activ --     0.0735                 0.0862                 0.0491

                    10                     11                     12
                     A                      A                      A
 Frequencies --    91.4623               100.9132               120.2165
 Red. masses --     6.4276                 4.4910                 5.4220
 Frc consts  --     0.0317                 0.0269                 0.0462
 IR Inten    --     1.2527                15.7247                 3.9265
 Raman Activ --     0.3107                 0.1098                 0.1067

                    13                     14                     15
                     A                      A                      A
 Frequencies --   159.9560               178.8733               181.5452
 Red. masses --     6.5584                 5.4031                 7.9968
 Frc consts  --     0.0989                 0.1019                 0.1553
 IR Inten    --     1.9596                 6.3949                 0.3072
 Raman Activ --     0.2448                 0.1181                 1.0339

                    16                     17                     18
                     A                      A                      A
 Frequencies --   218.4063               234.7152               256.2848
 Red. masses --     7.3735                 5.7449                 4.7026
 Frc consts  --     0.2072                 0.1865                 0.1820
 IR Inten    --     0.7656                 3.3613                26.0880
 Raman Activ --     3.2295                 0.1194                 0.1652

                    19                     20                     21
                     A                      A                      A
 Frequencies --   276.5732               288.5291               302.7244
 Red. masses --     4.7220                 4.9905                 5.1667
 Frc consts  --     0.2128                 0.2448                 0.2790
 IR Inten    --     3.2693                 7.0113                 3.8483
 Raman Activ --     0.0346                 0.1239                 0.4801

                    22                     23                     24
                     A                      A                      A
 Frequencies --   306.2736               310.8335               316.7139
 Red. masses --     4.3133                 6.6190                 5.5099
 Frc consts  --     0.2384                 0.3768                 0.3256
 IR Inten    --     1.7286                 3.9257                 3.9020
 Raman Activ --     1.7203                 5.5220                 1.7335

                    25                     26                     27
                     A                      A                      A
 Frequencies --   347.9043               365.2903               383.8971
 Red. masses --     6.4484                 5.2176                 6.6930
 Frc consts  --     0.4599                 0.4102                 0.5812
 IR Inten    --     9.5876                 3.7010                 1.4156
 Raman Activ --     2.7658                 0.2666                 0.7193

                    28                     29                     30
                     A                      A                      A
 Frequencies --   405.3583               427.0322               430.3056
 Red. masses --     4.1925                 5.2155                 4.8165
 Frc consts  --     0.4059                 0.5604                 0.5255
 IR Inten    --    25.9448                 2.9452                 1.3090
 Raman Activ --     2.3669                 5.3759                 1.6503

                    31                     32                     33
                     A                      A                      A
 Frequencies --   443.1678               474.0830               486.9297
 Red. masses --     5.7622                 5.0677                 3.8267
 Frc consts  --     0.6668                 0.6711                 0.5346
 IR Inten    --     1.8071                 4.7720                15.4159
 Raman Activ --     4.2817                 2.3074                 0.6038

                    34                     35                     36
                     A                      A                      A
 Frequencies --   517.4626               520.0169               565.3075
 Red. masses --     4.2698                 3.0187                 4.5498
 Frc consts  --     0.6736                 0.4809                 0.8567
 IR Inten    --     6.4212                 9.3793                 6.0538
 Raman Activ --     1.5026                 4.0747                 1.4301

                    37                     38                     39
                     A                      A                      A
 Frequencies --   577.6108               587.1981               591.3769
 Red. masses --     2.7164                 2.3465                 1.7728
 Frc consts  --     0.5340                 0.4767                 0.3653
 IR Inten    --    36.5018                32.0048                48.1793
 Raman Activ --     0.3188                 1.1857                 1.6786

                    40                     41                     42
                     A                      A                      A
 Frequencies --   607.6031               633.9390               676.7346
 Red. masses --     3.7199                 3.5314                 5.3285
 Frc consts  --     0.8091                 0.8362                 1.4378
 IR Inten    --    57.8425                40.3353                10.3582
 Raman Activ --     1.0922                 1.1183                 1.2156

                    43                     44                     45
                     A                      A                      A
 Frequencies --   746.1455               759.9529               772.7163
 Red. masses --     1.0706                 1.0881                 1.0766
 Frc consts  --     0.3512                 0.3703                 0.3788
 IR Inten    --    77.6762               154.5278                84.3890
 Raman Activ --     1.5563                 2.1472                 1.4071

                    46                     47                     48
                     A                      A                      A
 Frequencies --   832.7869               836.1444               847.0983
 Red. masses --     1.4532                 1.3663                 1.3105
 Frc consts  --     0.5938                 0.5628                 0.5541
 IR Inten    --    54.8523                75.3280                24.3610
 Raman Activ --     1.5054                 1.8389                 0.3945

                    49                     50                     51
                     A                      A                      A
 Frequencies --   891.8416               937.4858               960.4239
 Red. masses --     1.2641                 5.2993                 4.9898
 Frc consts  --     0.5924                 2.7441                 2.7118
 IR Inten    --    48.9850               157.3700                46.8827
 Raman Activ --     0.4199                 3.2324                 0.3789

                    52                     53                     54
                     A                      A                      A
 Frequencies --   978.3431               984.7991               986.9533
 Red. masses --     6.0852                 5.7195                 4.9531
 Frc consts  --     3.4317                 3.2681                 2.8427
 IR Inten    --    19.5847                89.3917                26.5981
 Raman Activ --     2.6023                 1.2944                 0.7684

                    55                     56                     57
                     A                      A                      A
 Frequencies --   998.7556              1013.5345              1026.5623
 Red. masses --     6.1562                 6.5185                 5.9511
 Frc consts  --     3.6181                 3.9453                 3.6950
 IR Inten    --   492.7279                30.2185               110.8249
 Raman Activ --     2.4360                 2.1671                 3.0468

                    58                     59                     60
                     A                      A                      A
 Frequencies --  1028.2191              1050.0995              1064.3492
 Red. masses --     6.5249                 6.9323                 3.4546
 Frc consts  --     4.0644                 4.5039                 2.3058
 IR Inten    --   309.0811               194.2505                57.7678
 Raman Activ --     1.8673                 2.5023                 4.3232

                    61                     62                     63
                     A                      A                      A
 Frequencies --  1067.5451              1072.5296              1079.3856
 Red. masses --     3.2367                 5.2007                 4.9711
 Frc consts  --     2.1733                 3.5248                 3.4123
 IR Inten    --    21.7546                67.4900                 9.1269
 Raman Activ --    11.2536                 3.7500                10.4111

                    64                     65                     66
                     A                      A                      A
 Frequencies --  1095.3275              1107.7626              1110.1754
 Red. masses --     2.4407                 3.2231                 3.1537
 Frc consts  --     1.7253                 2.3303                 2.2901
 IR Inten    --    33.9646                14.7509                22.8784
 Raman Activ --    10.7273                 4.9032                 3.0139

                    67                     68                     69
                     A                      A                      A
 Frequencies --  1121.1455              1121.6794              1128.2868
 Red. masses --     2.2211                 2.5459                 2.5475
 Frc consts  --     1.6449                 1.8872                 1.9108
 IR Inten    --    53.4227                39.4871                 6.6169
 Raman Activ --     1.3639                 1.4005                11.2531

                    70                     71                     72
                     A                      A                      A
 Frequencies --  1141.3424              1152.5047              1154.4242
 Red. masses --     3.3812                 1.7751                 1.6857
 Frc consts  --     2.5951                 1.3892                 1.3236
 IR Inten    --    25.6777                11.0986                 9.2392
 Raman Activ --     6.2923                 1.8836                 3.4630

                    73                     74                     75
                     A                      A                      A
 Frequencies --  1161.5815              1166.9932              1185.1321
 Red. masses --     1.7691                 1.7688                 1.9523
 Frc consts  --     1.4064                 1.4193                 1.6156
 IR Inten    --     7.3797                 8.9074                 7.5142
 Raman Activ --     3.4515                 3.0015                 1.5658

                    76                     77                     78
                     A                      A                      A
 Frequencies --  1196.7687              1212.7958              1219.9970
 Red. masses --     1.4221                 1.2545                 1.3486
 Frc consts  --     1.2000                 1.0872                 1.1826
 IR Inten    --    11.6059                15.8593                 4.3546
 Raman Activ --     4.1749                 1.7132                 1.1769

                    79                     80                     81
                     A                      A                      A
 Frequencies --  1234.8430              1244.8978              1256.0817
 Red. masses --     1.2676                 1.1739                 1.1969
 Frc consts  --     1.1388                 1.0719                 1.1126
 IR Inten    --    15.5445                 4.9659                28.6985
 Raman Activ --     0.8962                 1.7834                 1.1445

                    82                     83                     84
                     A                      A                      A
 Frequencies --  1264.1609              1273.7322              1277.3428
 Red. masses --     1.2384                 1.2601                 1.2055
 Frc consts  --     1.1661                 1.2045                 1.1589
 IR Inten    --    14.9817                 9.3128                11.6097
 Raman Activ --     0.7674                 2.6524                 2.8905

                    85                     86                     87
                     A                      A                      A
 Frequencies --  1284.1928              1294.4236              1303.7543
 Red. masses --     1.3198                 1.3095                 1.3064
 Frc consts  --     1.2824                 1.2928                 1.3083
 IR Inten    --     1.0648                53.1835                12.3709
 Raman Activ --     4.4003                 3.9273                 1.8889

                    88                     89                     90
                     A                      A                      A
 Frequencies --  1307.8097              1314.6240              1321.3029
 Red. masses --     1.2907                 1.3427                 1.3970
 Frc consts  --     1.3007                 1.3672                 1.4370
 IR Inten    --    11.1529                 9.4352                18.6581
 Raman Activ --    11.1081                 3.5585                 1.8471

                    91                     92                     93
                     A                      A                      A
 Frequencies --  1326.5866              1334.0783              1337.5913
 Red. masses --     1.2661                 1.2092                 1.2592
 Frc consts  --     1.3128                 1.2680                 1.3273
 IR Inten    --    35.6649                13.3744                56.4406
 Raman Activ --     0.8625                 6.3163                 5.0195

                    94                     95                     96
                     A                      A                      A
 Frequencies --  1346.9504              1359.7802              1363.6402
 Red. masses --     1.3180                 1.3542                 1.6054
 Frc consts  --     1.4089                 1.4753                 1.7588
 IR Inten    --    26.5666                13.0984                 9.9647
 Raman Activ --     3.0144                 3.0462                 8.7981

                    97                     98                     99
                     A                      A                      A
 Frequencies --  1372.6358              1384.9977              1400.1895
 Red. masses --     1.5585                 1.4537                 1.3779
 Frc consts  --     1.7301                 1.6430                 1.5916
 IR Inten    --     6.3030                 1.6316                 1.0715
 Raman Activ --     5.6888                 3.9730                 9.2812

                   100                    101                    102
                     A                      A                      A
 Frequencies --  1425.8743              1435.6957              1440.0104
 Red. masses --     1.2997                 1.3286                 1.3370
 Frc consts  --     1.5569                 1.6136                 1.6335
 IR Inten    --    16.8692                23.2285                21.0009
 Raman Activ --     1.3158                 1.2735                 1.1866

                   103                    104                    105
                     A                      A                      A
 Frequencies --  1457.7405              1458.5623              1469.1400
 Red. masses --     1.3621                 1.1363                 1.0798
 Frc consts  --     1.7054                 1.4242                 1.3732
 IR Inten    --    21.0101                16.8211                 6.1709
 Raman Activ --     2.0709                 1.8371                 5.2712

                   106                    107                    108
                     A                      A                      A
 Frequencies --  1474.1583              1477.1784              3187.2602
 Red. masses --     1.3058                 1.3161                 1.0715
 Frc consts  --     1.6719                 1.6921                 6.4133
 IR Inten    --    20.9015                64.4742              1230.6189
 Raman Activ --     4.8237                 0.1968               176.2676

                   109                    110                    111
                     A                      A                      A
 Frequencies --  3247.3775              3257.5865              3262.2427
 Red. masses --     1.0607                 1.0614                 1.0787
 Frc consts  --     6.5904                 6.6360                 6.7637
 IR Inten    --    24.4845                14.3698                35.1409
 Raman Activ --   113.1111               148.4835                33.4924

                   112                    113                    114
                     A                      A                      A
 Frequencies --  3265.3144              3267.3808              3273.9528
 Red. masses --     1.0792                 1.0801                 1.0824
 Frc consts  --     6.7794                 6.7938                 6.8360
 IR Inten    --    16.0183                19.7471                13.0675
 Raman Activ --    76.0780               108.5833                72.2266

                   115                    116                    117
                     A                      A                      A
 Frequencies --  3275.1702              3280.2985              3283.3421
 Red. masses --     1.0829                 1.0836                 1.0865
 Frc consts  --     6.8440                 6.8696                 6.9009
 IR Inten    --     3.9386                 8.0645                 7.0180
 Raman Activ --    95.1673                53.5722                11.0910

                   118                    119                    120
                     A                      A                      A
 Frequencies --  3288.1682              3291.6018              3294.8527
 Red. masses --     1.0786                 1.0787                 1.0868
 Frc consts  --     6.8713                 6.8858                 6.9516
 IR Inten    --   178.3869               323.8837                38.9628
 Raman Activ --    26.2029               125.3887                17.7582

                   121                    122                    123
                     A                      A                      A
 Frequencies --  3299.0479              3303.1774              3312.4091
 Red. masses --     1.0991                 1.0866                 1.1052
 Frc consts  --     7.0480                 6.9855                 7.1448
 IR Inten    --     6.4497               171.4192                40.3159
 Raman Activ --    29.6026                53.1142                47.1511

                   124                    125                    126
                     A                      A                      A
 Frequencies --  3353.4021              3356.8050              3359.2239
 Red. masses --     1.0649                 1.0659                 1.0690
 Frc consts  --     7.0553                 7.0765                 7.1071
 IR Inten    --    26.6943                47.3147                82.0799
 Raman Activ --   101.5396               123.5094               190.8592

                   127                    128                    129
                     A                      A                      A
 Frequencies --  3373.4571              3873.8605              3877.9964
 Red. masses --     1.0665                 1.0676                 1.0673
 Frc consts  --     7.1511                 9.4394                 9.4569
 IR Inten    --    78.2273                74.3475                72.1126
 Raman Activ --   119.0047                89.2020               114.8396

 - Thermochemistry -
 -------------------
 Temperature   298.150 Kelvin.  Pressure   1.00000 Atm.
 Atom     1 has atomic number  8 and mass  15.99491

 Molecular mass:   342.11621 amu.
 Principal axes and moments of inertia in atomic units:
                           1         2         3
     Eigenvalues --  4523.75343********************
           X            0.99997  -0.00728   0.00071
           Y            0.00728   0.99997  -0.00390
           Z           -0.00069   0.00391   0.99999
 This molecule is an asymmetric top.
 Rotational symmetry number  1.
 Warning -- assumption of classical behavior for rotation
           may cause significant error
 Rotational temperatures (Kelvin)      0.01915     0.00703     0.00529
 Rotational constants (GHZ):           0.39895     0.14655     0.11018
    6 imaginary frequencies ignored.
 Zero-point vibrational energy     972385.9 (Joules/Mol)
                                  232.40580 (Kcal/Mol)
 Warning -- explicit consideration of  34 degrees of freedom as
           vibrations may cause significant error
 Vibrational temperatures:     19.17    83.77   109.27   131.59   145.19
          (Kelvin)            172.96   230.14   257.36   261.20   314.24
                              337.70   368.74   397.93   415.13   435.55
                              440.66   447.22   455.68   500.56   525.57
                              552.34   583.22   614.40   619.11   637.62
                              682.10   700.58   744.51   748.19   813.35
                              831.05   844.85   850.86   874.20   912.10
                              973.67  1073.54  1093.40  1111.77  1198.19
                             1203.02  1218.78  1283.16  1348.83  1381.83
                             1407.62  1416.90  1420.00  1436.98  1458.25
                             1476.99  1479.38  1510.86  1531.36  1535.96
                             1543.13  1552.99  1575.93  1593.82  1597.29
                             1613.08  1613.84  1623.35  1642.14  1658.20
                             1660.96  1671.25  1679.04  1705.14  1721.88
                             1744.94  1755.30  1776.66  1791.13  1807.22
                             1818.84  1832.61  1837.81  1847.66  1862.38
                             1875.81  1881.64  1891.45  1901.06  1908.66
                             1919.44  1924.49  1937.96  1956.42  1961.97
                             1974.91  1992.70  2014.56  2051.51  2065.64
                             2071.85  2097.36  2098.54  2113.76  2120.98
                             2125.33  4585.75  4672.25  4686.93  4693.63
                             4698.05  4701.03  4710.48  4712.23  4719.61
                             4723.99  4730.93  4735.87  4740.55  4746.59
                             4752.53  4765.81  4824.79  4829.69  4833.17
                             4853.65  5573.61  5579.56

 Zero-point correction=                           0.370362 (Hartree/Particle)
 Thermal correction to Energy=                    0.389517
 Thermal correction to Enthalpy=                  0.390461
 Thermal correction to Gibbs Free Energy=         0.322763
 Sum of electronic and zero-point Energies=          -1297.641633
 Sum of electronic and thermal Energies=             -1297.622478
 Sum of electronic and thermal Enthalpies=           -1297.621534
 Sum of electronic and thermal Free Energies=        -1297.689233

                     E (Thermal)             CV                S
                      KCal/Mol        Cal/Mol-Kelvin    Cal/Mol-Kelvin
 Total                  244.426             77.949            142.483
 Electronic               0.000              0.000              0.000
 Translational            0.889              2.981             43.384
 Rotational               0.889              2.981             35.166
 Vibrational            242.648             71.987             63.933
 Vibration     1          0.593              1.987              7.441
 Vibration     2          0.596              1.974              4.517
 Vibration     3          0.599              1.965              3.993
 Vibration     4          0.602              1.955              3.629
 Vibration     5          0.604              1.948              3.437
 Vibration     6          0.609              1.932              3.097
 Vibration     7          0.622              1.891              2.550
 Vibration     8          0.629              1.868              2.340
 Vibration     9          0.630              1.865              2.312
 Vibration    10          0.646              1.813              1.972
 Vibration    11          0.655              1.788              1.843
 Vibration    12          0.666              1.752              1.687
 Vibration    13          0.678              1.717              1.555
 Vibration    14          0.685              1.695              1.483
 Vibration    15          0.694              1.669              1.402
 Vibration    16          0.697              1.662              1.382
 Vibration    17          0.700              1.653              1.358
 Vibration    18          0.704              1.642              1.327
 Vibration    19          0.726              1.580              1.176
 Vibration    20          0.739              1.544              1.100
 Vibration    21          0.753              1.505              1.024
 Vibration    22          0.770              1.459              0.943
 Vibration    23          0.789              1.411              0.868
 Vibration    24          0.791              1.404              0.858
 Vibration    25          0.803              1.376              0.817
 Vibration    26          0.831              1.308              0.726
 Vibration    27          0.843              1.279              0.692
 Vibration    28          0.872              1.211              0.616
 Vibration    29          0.875              1.206              0.610
 Vibration    30          0.921              1.106              0.513
 Vibration    31          0.934              1.080              0.490
 Vibration    32          0.944              1.059              0.472
 Vibration    33          0.949              1.050              0.465
 Vibration    34          0.966              1.016              0.437

 Normal termination of Gaussian 09 at Fri Feb 12 10:58:55 2016.
