 Gaussian 09, Revision B.01,
 Gaussian 09:  EM64L-G09RevB.01 12-Aug-2010

 -------------------------------------------------
 # freq=raman b3lyp/6-31+g(2d,p) geom=connectivity
 -------------------------------------------------

 -----------------
 290 5882/5882.com
 -----------------
 Symbolic Z-matrix:
 Charge =  0 Multiplicity = 1

                         Standard orientation:
 ---------------------------------------------------------------------
 Center     Atomic      Atomic             Coordinates (Angstroms)
 Number     Number       Type             X           Y           Z
 ---------------------------------------------------------------------
      1          8           0       -5.015825   -0.337543    0.289922
      2          6           0       -3.686924   -0.115441   -0.203246
      3          6           0       -3.240310    1.282167    0.195545
      4          8           0       -4.193036    2.302195   -0.134603
      5          1           0       -5.048065    2.008080    0.291715
      6          6           0       -1.805488    1.527141   -0.241959
      7          8           0       -1.396277    2.719304    0.446049
      8          1           0       -0.478379    2.888747    0.087467
      9          6           0       -3.008639   -2.596976   -0.087449
     10          8           0       -4.241256   -3.190665    0.345923
     11          1           0       -4.017757   -4.154114    0.495069
     12          6           0       -2.704984   -1.159734    0.303239
     13          8           0       -1.461157   -0.881618   -0.355280
     14          6           0       -0.932026    0.349649    0.156982
     15          8           0        0.265577    0.524001   -0.614277
     16          6           0        1.516113    0.222074    0.022080
     17          6           0        2.048531   -1.156272   -0.333331
     18          8           0        1.002046   -2.135656   -0.254691
     19          1           0        0.158681   -1.670618   -0.523895
     20          6           0        3.426144   -1.532501    0.187387
     21          8           0        3.935801   -2.779230   -0.308036
     22          1           0        4.806672   -2.888339    0.171333
     23          6           0        2.369984    2.632129    0.023959
     24          8           0        1.104644    3.269996   -0.201243
     25          1           0        1.224663    4.257601   -0.103649
     26          6           0        2.628875    1.184380   -0.359535
     27          8           0        3.820526    0.813154    0.349817
     28          6           0        4.380198   -0.403836   -0.164664
     29          8           0        5.401158   -0.440820    0.843179
     30          1           0        6.250386   -0.617981    0.432051
     31          1           0        4.730868   -0.364726   -1.174813
     32          1           0        3.369695   -1.599384    1.253802
     33          1           0        2.218882   -1.078826   -1.386841
     34          1           0        1.375693    0.268751    1.081798
     35          1           0        2.807623    1.121842   -1.412644
     36          1           0        3.104661    3.220206   -0.485271
     37          1           0        2.571588    2.712449    1.071721
     38          1           0       -5.594656   -0.565142   -0.441346
     39          1           0       -2.211515   -3.205496    0.285641
     40          1           0       -2.985874   -2.650038   -1.155890
     41          1           0       -2.588729   -1.078712    1.363814
     42          1           0       -3.711805   -0.168542   -1.271638
     43          1           0       -3.207018    1.271967    1.264979
     44          1           0       -1.762656    1.678124   -1.300387
     45          1           0       -0.739419    0.312521    1.208849
 ---------------------------------------------------------------------

 SCF Done:  E(RB3LYP) =  -1297.97431468     A.U. after   13 cycles

 The electronic state is 1-A.
 Alpha  occ. eigenvalues --  -19.18891 -19.18577 -19.18218 -19.18182 -19.17855
 Alpha  occ. eigenvalues --  -19.16857 -19.16042 -19.16005 -19.14630 -19.13476
 Alpha  occ. eigenvalues --  -19.12920 -10.31013 -10.30534 -10.26108 -10.25566
 Alpha  occ. eigenvalues --  -10.25312 -10.25305 -10.25152 -10.24225 -10.23963
 Alpha  occ. eigenvalues --  -10.23802 -10.23732 -10.23226  -1.10602  -1.10162
 Alpha  occ. eigenvalues --   -1.05745  -1.04850  -1.03863  -1.03762  -1.02643
 Alpha  occ. eigenvalues --   -1.02460  -1.01437  -1.00408  -0.99684  -0.82191
 Alpha  occ. eigenvalues --   -0.79781  -0.79625  -0.78062  -0.72020  -0.69730
 Alpha  occ. eigenvalues --   -0.67036  -0.64757  -0.63384  -0.62107  -0.61587
 Alpha  occ. eigenvalues --   -0.60275  -0.57046  -0.55649  -0.54999  -0.54179
 Alpha  occ. eigenvalues --   -0.53580  -0.53405  -0.52581  -0.51792  -0.51326
 Alpha  occ. eigenvalues --   -0.50754  -0.49663  -0.48941  -0.47826  -0.46830
 Alpha  occ. eigenvalues --   -0.46276  -0.45119  -0.44220  -0.43501  -0.42819
 Alpha  occ. eigenvalues --   -0.42389  -0.41755  -0.40662  -0.40166  -0.39608
 Alpha  occ. eigenvalues --   -0.39203  -0.38804  -0.37906  -0.36035  -0.35957
 Alpha  occ. eigenvalues --   -0.35505  -0.34672  -0.34337  -0.33797  -0.33409
 Alpha  occ. eigenvalues --   -0.32742  -0.31404  -0.31073  -0.30733  -0.29923
 Alpha  occ. eigenvalues --   -0.28705  -0.28531  -0.28170  -0.27326  -0.26298
 Alpha  occ. eigenvalues --   -0.26059
 Alpha virt. eigenvalues --   -0.02178  -0.02104  -0.01349  -0.00286   0.00359
 Alpha virt. eigenvalues --    0.01020   0.01878   0.02318   0.02817   0.03643
 Alpha virt. eigenvalues --    0.03878   0.04171   0.04791   0.05494   0.05605

 Mulliken atomic charges:
              1
     1  O   -0.558533
     2  C    0.102905
     3  C    0.077000
     4  O   -0.554235
     5  H    0.346363
     6  C   -0.026541
     7  O   -0.580237
     8  H    0.426960
     9  C   -0.316065
    10  O   -0.513539
    11  H    0.335442
    12  C    0.214750
    13  O   -0.240601
    14  C    0.177766
    15  O   -0.232472
    16  C    0.244656
    17  C    0.184032
    18  O   -0.594751
    19  H    0.394793
    20  C    0.050835
    21  O   -0.530425
    22  H    0.330794
    23  C   -0.298196
    24  O   -0.569671
    25  H    0.363914
    26  C   -0.143459
    27  O   -0.182245
    28  C    0.135401
    29  O   -0.519194
    30  H    0.324279
    31  H    0.148143
    32  H    0.135350
    33  H    0.097977
    34  H    0.107657
    35  H    0.117988
    36  H    0.142240
    37  H    0.156454
    38  H    0.339412
    39  H    0.149866
    40  H    0.144887
    41  H    0.110829
    42  H    0.114138
    43  H    0.112549
    44  H    0.133919
    45  H    0.138864
 Sum of Mulliken atomic charges =   0.00000

 Dipole moment (field-independent basis, Debye):
    X=              4.1963    Y=              0.1842    Z=             -1.1802  Tot=              4.3630
 Quadrupole moment (field-independent basis, Debye-Ang):
   XX=           -118.4326   YY=           -136.5368   ZZ=           -138.6313
   XY=             15.3549   XZ=             -1.1157   YZ=             -4.0567

  Exact polarizability: 234.359  -2.576 196.706   0.135   0.435 143.505
 Approx polarizability: 274.745  -3.270 256.390  -0.491   1.786 241.212

 ******    7 imaginary frequencies (negative Signs) ******

                     1                      2                      3
                     A                      A                      A
 Frequencies --  -294.0842              -271.7703              -270.2706
 Red. masses --     1.7750                 1.1875                 1.5756
 Frc consts  --     0.0904                 0.0517                 0.0678
 IR Inten    --     1.4967                93.4537                35.0836
 Raman Activ --     0.0565                 0.9998                 0.1877

                     4                      5                      6
                     A                      A                      A
 Frequencies --  -229.4650               -71.0465               -64.4284
 Red. masses --     1.2114                 6.3193                 6.4664
 Frc consts  --     0.0376                 0.0188                 0.0158
 IR Inten    --    78.7875                 1.8004                 0.1667
 Raman Activ --     0.5735                 0.0764                 0.0285

                     7                      8                      9
                     A                      A                      A
 Frequencies --   -42.2024                55.3048                68.6457
 Red. masses --     6.2631                 6.1207                 6.3244
 Frc consts  --     0.0066                 0.0110                 0.0176
 IR Inten    --     0.5623                 0.9259                 1.3512
 Raman Activ --     0.0342                 0.0817                 0.0959

                    10                     11                     12
                     A                      A                      A
 Frequencies --    86.5388                97.4240               106.5901
 Red. masses --     6.5577                 6.1189                 5.8785
 Frc consts  --     0.0289                 0.0342                 0.0394
 IR Inten    --     1.1756                 2.9040                 0.5099
 Raman Activ --     0.1476                 0.0438                 0.1433

                    13                     14                     15
                     A                      A                      A
 Frequencies --   159.8166               179.2152               188.0079
 Red. masses --     6.5745                 6.3681                 6.4097
 Frc consts  --     0.0989                 0.1205                 0.1335
 IR Inten    --     2.4004                 0.4738                 1.8688
 Raman Activ --     0.3693                 0.4797                 1.0209

                    16                     17                     18
                     A                      A                      A
 Frequencies --   214.9956               234.2975               260.9024
 Red. masses --     7.1343                 5.9793                 4.8191
 Frc consts  --     0.1943                 0.1934                 0.1933
 IR Inten    --     0.4120                 0.8505                 5.8016
 Raman Activ --     2.4698                 0.2029                 0.1322

                    19                     20                     21
                     A                      A                      A
 Frequencies --   280.4796               292.9734               304.3274
 Red. masses --     4.4866                 5.2263                 5.8950
 Frc consts  --     0.2080                 0.2643                 0.3217
 IR Inten    --    10.9706                 3.1172                 2.1888
 Raman Activ --     0.6163                 0.0314                 0.4582

                    22                     23                     24
                     A                      A                      A
 Frequencies --   314.6848               320.8508               329.1562
 Red. masses --     5.6832                 4.7505                 6.5015
 Frc consts  --     0.3316                 0.2881                 0.4150
 IR Inten    --     3.6366                 2.3735                 0.8068
 Raman Activ --     1.7673                 1.4091                 3.0304

                    25                     26                     27
                     A                      A                      A
 Frequencies --   347.7522               370.3922               380.5365
 Red. masses --     6.7215                 4.0727                 7.6444
 Frc consts  --     0.4789                 0.3292                 0.6522
 IR Inten    --    10.8748                 1.1966                 5.0596
 Raman Activ --     3.6036                 0.2499                 2.0932

                    28                     29                     30
                     A                      A                      A
 Frequencies --   403.3582               432.5400               439.1238
 Red. masses --     5.8548                 4.1132                 6.8185
 Frc consts  --     0.5612                 0.4534                 0.7747
 IR Inten    --    11.9421                 8.0802                 1.6097
 Raman Activ --     2.7283                 5.0673                 1.0308

                    31                     32                     33
                     A                      A                      A
 Frequencies --   453.1202               469.9810               504.0330
 Red. masses --     4.5800                 4.3412                 5.6898
 Frc consts  --     0.5540                 0.5650                 0.8517
 IR Inten    --     6.9440                 3.1673                 4.3180
 Raman Activ --     1.0955                 4.0009                 0.3256

                    34                     35                     36
                     A                      A                      A
 Frequencies --   507.9651               533.6269               571.4018
 Red. masses --     3.3414                 3.0502                 3.8809
 Frc consts  --     0.5080                 0.5117                 0.7466
 IR Inten    --    17.5004                14.9382                 6.9066
 Raman Activ --     5.1173                 2.9481                 1.5952

                    37                     38                     39
                     A                      A                      A
 Frequencies --   599.6688               600.6860               631.3680
 Red. masses --     5.5838                 3.1066                 3.9133
 Frc consts  --     1.1831                 0.6604                 0.9191
 IR Inten    --    15.9231                45.1464                10.4902
 Raman Activ --     0.8719                 0.0996                 0.8613

                    40                     41                     42
                     A                      A                      A
 Frequencies --   653.0044               701.6549               707.5977
 Red. masses --     6.3118                 1.0760                 3.8363
 Frc consts  --     1.5858                 0.3121                 1.1317
 IR Inten    --    21.0731                98.2258                29.7778
 Raman Activ --     0.9984                 1.7032                 1.2972

                    43                     44                     45
                     A                      A                      A
 Frequencies --   712.8696               739.2444               755.5916
 Red. masses --     1.1776                 1.0879                 1.0901
 Frc consts  --     0.3526                 0.3503                 0.3667
 IR Inten    --    81.0262               109.2371                94.8449
 Raman Activ --     1.7268                 1.7760                 1.4543

                    46                     47                     48
                     A                      A                      A
 Frequencies --   790.6811               844.9752               860.6947
 Red. masses --     1.0863                 1.7497                 1.5790
 Frc consts  --     0.4001                 0.7360                 0.6892
 IR Inten    --   110.9209                 2.6668                22.9721
 Raman Activ --     2.9863                 1.2587                 1.7212

                    49                     50                     51
                     A                      A                      A
 Frequencies --   881.7413               917.4858               941.1951
 Red. masses --     1.1820                 4.7004                 5.8147
 Frc consts  --     0.5415                 2.3312                 3.0348
 IR Inten    --    43.4070               134.8437                 8.2565
 Raman Activ --     0.6950                 3.7697                 0.5331

                    52                     53                     54
                     A                      A                      A
 Frequencies --   975.0565               987.8490               992.8140
 Red. masses --     5.3816                 5.6105                 4.8622
 Frc consts  --     3.0146                 3.2257                 2.8237
 IR Inten    --   198.7252                55.2888               100.6993
 Raman Activ --     5.2713                 0.7018                 0.9699

                    55                     56                     57
                     A                      A                      A
 Frequencies --   999.9398              1007.9503              1011.4105
 Red. masses --     6.1042                 6.4618                 5.7285
 Frc consts  --     3.5961                 3.8680                 3.4526
 IR Inten    --    96.0977               301.3847                54.8318
 Raman Activ --     2.4932                 1.6289                 4.7189

                    58                     59                     60
                     A                      A                      A
 Frequencies --  1043.3556              1062.6172              1064.5073
 Red. masses --     5.4724                 3.3624                 4.5708
 Frc consts  --     3.5099                 2.2369                 3.0517
 IR Inten    --   223.7084                79.1585                86.9161
 Raman Activ --     2.9031                 6.9432                 4.6024

                    61                     62                     63
                     A                      A                      A
 Frequencies --  1071.4347              1076.1067              1079.5331
 Red. masses --     3.4813                 6.4026                 3.0638
 Frc consts  --     2.3546                 4.3684                 2.1037
 IR Inten    --    34.3827                12.3477                50.6266
 Raman Activ --     6.2546                 2.5989                22.5319

                    64                     65                     66
                     A                      A                      A
 Frequencies --  1092.9326              1099.1215              1100.9795
 Red. masses --     3.4920                 2.5728                 2.4933
 Frc consts  --     2.4576                 1.8313                 1.7807
 IR Inten    --    74.4412                77.2790                35.1063
 Raman Activ --     2.0218                 2.0629                 7.7075

                    67                     68                     69
                     A                      A                      A
 Frequencies --  1119.5949              1127.2193              1134.1378
 Red. masses --     2.4364                 2.7959                 2.5387
 Frc consts  --     1.7994                 2.0931                 1.9239
 IR Inten    --     6.9172                36.4744                60.2277
 Raman Activ --     4.6832                10.5881                 1.4322

                    70                     71                     72
                     A                      A                      A
 Frequencies --  1142.1999              1150.4279              1154.3677
 Red. masses --     1.9719                 2.2804                 1.7895
 Frc consts  --     1.5157                 1.7782                 1.4049
 IR Inten    --    16.4216                70.4390                 6.0854
 Raman Activ --     3.7541                 8.2098                 1.9117

                    73                     74                     75
                     A                      A                      A
 Frequencies --  1166.8352              1172.5885              1186.0483
 Red. masses --     1.8542                 2.1249                 1.9597
 Frc consts  --     1.4874                 1.7214                 1.6242
 IR Inten    --    14.1117                12.5998                14.3956
 Raman Activ --     2.9832                 3.1407                 2.3795

                    76                     77                     78
                     A                      A                      A
 Frequencies --  1189.5341              1210.8615              1218.9798
 Red. masses --     1.6403                 1.2509                 1.5004
 Frc consts  --     1.3675                 1.0806                 1.3136
 IR Inten    --    22.3922                25.7168                 2.0239
 Raman Activ --     6.3167                 2.5343                 1.1548

                    79                     80                     81
                     A                      A                      A
 Frequencies --  1224.4793              1233.4978              1264.2640
 Red. masses --     1.3927                 1.1692                 1.3009
 Frc consts  --     1.2303                 1.0481                 1.2251
 IR Inten    --     3.9529                 4.1079                 4.3792
 Raman Activ --     0.3835                 1.6864                 2.5230

                    82                     83                     84
                     A                      A                      A
 Frequencies --  1271.7631              1290.6121              1292.7024
 Red. masses --     1.3199                 1.2896                 1.3171
 Frc consts  --     1.2578                 1.2656                 1.2968
 IR Inten    --    29.7086                22.2117                 2.8776
 Raman Activ --     2.0541                 1.2110                 1.9895

                    85                     86                     87
                     A                      A                      A
 Frequencies --  1301.1677              1304.4634              1306.8945
 Red. masses --     1.3426                 1.2332                 1.3073
 Frc consts  --     1.3392                 1.2363                 1.3155
 IR Inten    --    18.2199                14.3234                14.4049
 Raman Activ --     2.5839                 3.5313                 1.2688

                    88                     89                     90
                     A                      A                      A
 Frequencies --  1314.7193              1320.0425              1338.9491
 Red. masses --     1.2655                 1.3646                 1.3244
 Frc consts  --     1.2888                 1.4010                 1.3989
 IR Inten    --    12.0640                 5.1287                22.6766
 Raman Activ --    10.6288                 7.4464                 3.2092

                    91                     92                     93
                     A                      A                      A
 Frequencies --  1352.6503              1355.1595              1357.3135
 Red. masses --     1.4678                 1.1809                 1.2727
 Frc consts  --     1.5823                 1.2778                 1.3814
 IR Inten    --    16.1866                13.6497                40.5598
 Raman Activ --     7.7241                 0.4737                 5.0783

                    94                     95                     96
                     A                      A                      A
 Frequencies --  1363.0531              1365.2079              1373.2941
 Red. masses --     1.4070                 1.2629                 1.4217
 Frc consts  --     1.5402                 1.3868                 1.5797
 IR Inten    --     4.0756                14.4930                35.9316
 Raman Activ --    10.7869                 3.3239                 3.4965

                    97                     98                     99
                     A                      A                      A
 Frequencies --  1387.7536              1393.1674              1394.1325
 Red. masses --     1.1001                 1.4091                 1.5444
 Frc consts  --     1.2483                 1.6114                 1.7686
 IR Inten    --    18.8264                12.8907                 5.3520
 Raman Activ --     3.1258                 3.4220                 6.2879

                   100                    101                    102
                     A                      A                      A
 Frequencies --  1458.1931              1461.2723              1468.0615
 Red. masses --     1.3364                 1.3626                 1.0870
 Frc consts  --     1.6742                 1.7143                 1.3803
 IR Inten    --    55.4881                22.5516                 3.7703
 Raman Activ --     0.6617                 2.4994                 5.3356

                   103                    104                    105
                     A                      A                      A
 Frequencies --  1474.1005              1478.9952              1486.9962
 Red. masses --     1.0827                 1.3798                 1.3137
 Frc consts  --     1.3861                 1.7783                 1.7114
 IR Inten    --     8.2561                14.7003                30.5010
 Raman Activ --     5.3416                 0.2958                 0.8309

                   106                    107                    108
                     A                      A                      A
 Frequencies --  1502.3515              1550.8067              3235.7578
 Red. masses --     1.3080                 1.2019                 1.0788
 Frc consts  --     1.7394                 1.7031                 6.6550
 IR Inten    --    52.1303                38.7308                25.7154
 Raman Activ --     3.9389                 0.4541                89.1526

                   109                    110                    111
                     A                      A                      A
 Frequencies --  3253.6526              3258.1012              3260.4256
 Red. masses --     1.0642                 1.0596                 1.0777
 Frc consts  --     6.6379                 6.6272                 6.7500
 IR Inten    --   617.8494                20.8971                24.9908
 Raman Activ --    40.9198                32.5068               159.9603

                   112                    113                    114
                     A                      A                      A
 Frequencies --  3266.0872              3271.0270              3277.4229
 Red. masses --     1.0641                 1.0816                 1.0834
 Frc consts  --     6.6879                 6.8184                 6.8567
 IR Inten    --   197.8435                 8.9598                14.0632
 Raman Activ --   194.9871               123.9385                65.4208

                   115                    116                    117
                     A                      A                      A
 Frequencies --  3282.9783              3288.8715              3289.4546
 Red. masses --     1.0859                 1.0865                 1.0863
 Frc consts  --     6.8960                 6.9245                 6.9256
 IR Inten    --     4.7352                17.8540                32.5384
 Raman Activ --    35.4512                27.7915                28.8546

                   118                    119                    120
                     A                      A                      A
 Frequencies --  3294.9027              3303.4194              3309.2772
 Red. masses --     1.0846                 1.0781                 1.0832
 Frc consts  --     6.9376                 6.9313                 6.9890
 IR Inten    --    23.2870               401.2758               268.9402
 Raman Activ --    56.5590                41.8940                97.9899

                   121                    122                    123
                     A                      A                      A
 Frequencies --  3311.4265              3313.6731              3315.1034
 Red. masses --     1.0918                 1.1019                 1.0980
 Frc consts  --     7.0537                 7.1286                 7.1093
 IR Inten    --     8.9996                38.1750               179.6305
 Raman Activ --    43.3620                56.0994                52.1816

                   124                    125                    126
                     A                      A                      A
 Frequencies --  3366.7643              3368.1175              3373.2257
 Red. masses --     1.0654                 1.0685                 1.0651
 Frc consts  --     7.1154                 7.1418                 7.1404
 IR Inten    --    31.7411                35.0638                47.2330
 Raman Activ --   120.8289               134.4124               105.8111

                   127                    128                    129
                     A                      A                      A
 Frequencies --  3376.7829              3889.0457              3889.5112
 Red. masses --     1.0668                 1.0676                 1.0672
 Frc consts  --     7.1667                 9.5133                 9.5124
 IR Inten    --    69.8656                82.6407                39.2177
 Raman Activ --   141.8331                72.7121               161.3016

 - Thermochemistry -
 -------------------
 Temperature   298.150 Kelvin.  Pressure   1.00000 Atm.
 Atom     1 has atomic number  8 and mass  15.99491

 Molecular mass:   342.11621 amu.
 Principal axes and moments of inertia in atomic units:
                           1         2         3
     Eigenvalues --  4369.17680********************
           X            0.99997   0.00781  -0.00060
           Y           -0.00781   0.99997  -0.00057
           Z            0.00059   0.00058   1.00000
 This molecule is an asymmetric top.
 Rotational symmetry number  1.
 Warning -- assumption of classical behavior for rotation
           may cause significant error
 Rotational temperatures (Kelvin)      0.01982     0.00700     0.00530
 Rotational constants (GHZ):           0.41306     0.14581     0.11052
    7 imaginary frequencies ignored.
 Zero-point vibrational energy     977145.6 (Joules/Mol)
                                  233.54341 (Kcal/Mol)
 Warning -- explicit consideration of  31 degrees of freedom as
           vibrations may cause significant error
 Vibrational temperatures:     79.57    98.77   124.51   140.17   153.36
          (Kelvin)            229.94   257.85   270.50   309.33   337.10
                              375.38   403.55   421.52   437.86   452.76
                              461.63   473.58   500.34   532.91   547.51
                              580.34   622.33   631.80   651.94   676.20
                              725.19   730.85   767.77   822.12   862.79
                              864.25   908.40   939.53  1009.52  1018.07
                             1025.66  1063.61  1087.13  1137.61  1215.73
                             1238.35  1268.63  1320.06  1354.17  1402.89
                             1421.29  1428.44  1438.69  1450.21  1455.19
                             1501.15  1528.87  1531.59  1541.55  1548.28
                             1553.21  1572.48  1581.39  1584.06  1610.85
                             1621.82  1631.77  1643.37  1655.21  1660.88
                             1678.81  1687.09  1706.46  1711.47  1742.16
                             1753.84  1761.75  1774.73  1818.99  1829.78
                             1856.90  1859.91  1872.09  1876.83  1880.33
                             1891.59  1899.24  1926.45  1946.16  1949.77
                             1952.87  1961.13  1964.23  1975.86  1996.67
                             2004.45  2005.84  2098.01  2102.44  2112.21
                             2120.90  2127.94  2139.45  2161.55  2231.26
                             4655.53  4681.27  4687.68  4691.02  4699.17
                             4706.27  4715.47  4723.47  4731.95  4732.79
                             4740.62  4752.88  4761.31  4764.40  4767.63
                             4769.69  4844.02  4845.96  4853.31  4858.43
                             5595.46  5596.13

 Zero-point correction=                           0.372175 (Hartree/Particle)
 Thermal correction to Energy=                    0.390298
 Thermal correction to Enthalpy=                  0.391243
 Thermal correction to Gibbs Free Energy=         0.327073
 Sum of electronic and zero-point Energies=          -1297.602140
 Sum of electronic and thermal Energies=             -1297.584016
 Sum of electronic and thermal Enthalpies=           -1297.583072
 Sum of electronic and thermal Free Energies=        -1297.647242

                     E (Thermal)             CV                S
                      KCal/Mol        Cal/Mol-Kelvin    Cal/Mol-Kelvin
 Total                  244.916             75.401            135.056
 Electronic               0.000              0.000              0.000
 Translational            0.889              2.981             43.384
 Rotational               0.889              2.981             35.134
 Vibrational            243.139             69.440             56.538
 Vibration     1          0.596              1.975              4.618
 Vibration     2          0.598              1.969              4.192
 Vibration     3          0.601              1.959              3.737
 Vibration     4          0.603              1.951              3.505
 Vibration     5          0.605              1.944              3.330
 Vibration     6          0.622              1.892              2.552
 Vibration     7          0.629              1.868              2.337
 Vibration     8          0.633              1.856              2.247
 Vibration     9          0.645              1.818              2.001
 Vibration    10          0.654              1.788              1.846
 Vibration    11          0.669              1.744              1.656
 Vibration    12          0.680              1.710              1.531
 Vibration    13          0.688              1.687              1.457
 Vibration    14          0.695              1.665              1.393
 Vibration    15          0.702              1.646              1.338
 Vibration    16          0.706              1.634              1.306
 Vibration    17          0.712              1.617              1.264
 Vibration    18          0.725              1.580              1.176
 Vibration    19          0.742              1.533              1.078
 Vibration    20          0.750              1.512              1.037
 Vibration    21          0.769              1.463              0.950
 Vibration    22          0.793              1.399              0.850
 Vibration    23          0.799              1.385              0.829
 Vibration    24          0.812              1.354              0.786
 Vibration    25          0.827              1.317              0.738
 Vibration    26          0.859              1.241              0.648
 Vibration    27          0.863              1.232              0.639
 Vibration    28          0.889              1.176              0.579
 Vibration    29          0.928              1.093              0.502
 Vibration    30          0.958              1.032              0.450
 Vibration    31          0.959              1.030              0.448

 Normal termination of Gaussian 09 at Mon Mar 21 22:49:29 2016.
