 Gaussian 09, Revision B.01,
 Gaussian 09:  EM64L-G09RevB.01 12-Aug-2010

 ------------------------------------------------
 # freq=raman b3lyp/6-31+g(d,p) geom=connectivity
 ------------------------------------------------

 -------------
 280 10000.com
 -------------
 Symbolic Z-matrix:
 Charge =  0 Multiplicity = 1

                         Standard orientation:
 ---------------------------------------------------------------------
 Center     Atomic      Atomic             Coordinates (Angstroms)
 Number     Number       Type             X           Y           Z
 ---------------------------------------------------------------------
      1          8           0        4.969036   -0.449943   -0.444139
      2          6           0        3.721838   -0.067836    0.152902
      3          6           0        3.181515    1.240383   -0.400960
      4          8           0        4.085529    2.338984   -0.212063
      5          1           0        5.051288    2.078875   -0.214343
      6          6           0        1.825553    1.564178    0.204800
      7          8           0        1.264712    2.734275   -0.409833
      8          1           0        0.317945    2.754076   -0.088346
      9          6           0        3.078331   -2.489718    0.366537
     10          8           0        4.115805   -3.215825   -0.307916
     11          1           0        3.945276   -4.180525   -0.107259
     12          6           0        2.705190   -1.135376   -0.216364
     13          8           0        1.398843   -0.915756    0.336851
     14          6           0        0.870996    0.389774    0.063214
     15          8           0       -0.342294    0.568490    0.809360
     16          6           0       -1.456428    0.216901   -0.022811
     17          6           0       -2.042161   -1.136138    0.348946
     18          8           0       -1.006078   -2.126637    0.294314
     19          1           0       -0.151591   -1.615618    0.384852
     20          6           0       -3.381424   -1.509175   -0.265954
     21          8           0       -3.693229   -2.857699    0.114060
     22          1           0       -4.591298   -3.084106   -0.262195
     23          6           0       -2.261234    2.614013   -0.051620
     24          8           0       -1.196931    3.409404    0.490824
     25          1           0       -1.411569    4.363517    0.284560
     26          6           0       -2.562900    1.184099    0.366797
     27          8           0       -3.754289    0.858162   -0.362361
     28          6           0       -4.352741   -0.381358    0.044299
     29          8           0       -5.430875   -0.656355   -0.862013
     30          1           0        5.590627   -0.697905    0.244148
     31          1           0       -6.218026   -0.885846   -0.362687
     32          1           0       -3.161196    3.168565    0.114035
     33          1           0       -2.103187    2.587319   -1.109546
     34          1           0       -2.747038    1.135583    1.419717
     35          1           0       -1.219303    0.281129   -1.064226
     36          1           0       -2.261135   -1.046197    1.392431
     37          1           0       -3.247978   -1.514326   -1.327587
     38          1           0       -4.666049   -0.376521    1.067390
     39          1           0        2.199260   -3.099711    0.372938
     40          1           0        3.386320   -2.339167    1.380133
     41          1           0        2.635252   -1.210711   -1.281415
     42          1           0        3.823345   -0.006251    1.216295
     43          1           0        3.043637    1.112729   -1.454332
     44          1           0        1.961585    1.763690    1.247196
     45          1           0        0.582790    0.376113   -0.967150
 ---------------------------------------------------------------------

 SCF Done:  E(RB3LYP) =  -1297.92713703     A.U. after   14 cycles

 The electronic state is 1-A.
 Alpha  occ. eigenvalues --  -19.20378 -19.20059 -19.19661 -19.19602 -19.19303
 Alpha  occ. eigenvalues --  -19.18096 -19.17388 -19.16900 -19.15772 -19.14728
 Alpha  occ. eigenvalues --  -19.13523 -10.31854 -10.31124 -10.26915 -10.26108
 Alpha  occ. eigenvalues --  -10.26048 -10.25996 -10.25505 -10.24926 -10.24891
 Alpha  occ. eigenvalues --  -10.24867 -10.24208 -10.23826  -1.10964  -1.09692
 Alpha  occ. eigenvalues --   -1.06143  -1.05504  -1.04854  -1.04216  -1.02963
 Alpha  occ. eigenvalues --   -1.02644  -1.02124  -1.00434  -0.99906  -0.82484
 Alpha  occ. eigenvalues --   -0.81113  -0.79792  -0.78560  -0.71951  -0.70112
 Alpha  occ. eigenvalues --   -0.67564  -0.65618  -0.63397  -0.63085  -0.61742
 Alpha  occ. eigenvalues --   -0.60683  -0.57067  -0.56403  -0.55333  -0.55197
 Alpha  occ. eigenvalues --   -0.54471  -0.53490  -0.53339  -0.51225  -0.51103
 Alpha  occ. eigenvalues --   -0.50562  -0.50268  -0.49639  -0.48760  -0.46787
 Alpha  occ. eigenvalues --   -0.46576  -0.45413  -0.44406  -0.43608  -0.43238
 Alpha  occ. eigenvalues --   -0.42771  -0.41993  -0.41213  -0.40083  -0.39703
 Alpha  occ. eigenvalues --   -0.39548  -0.38357  -0.37794  -0.36942  -0.36362
 Alpha  occ. eigenvalues --   -0.35847  -0.35709  -0.34853  -0.34166  -0.33939
 Alpha  occ. eigenvalues --   -0.33308  -0.31232  -0.31098  -0.30521  -0.30099
 Alpha  occ. eigenvalues --   -0.29554  -0.28723  -0.27993  -0.27620  -0.27067
 Alpha  occ. eigenvalues --   -0.25805
 Alpha virt. eigenvalues --   -0.02306  -0.02089  -0.01975  -0.00179   0.00128
 Alpha virt. eigenvalues --    0.00875   0.01666   0.02117   0.03053   0.03528
 Alpha virt. eigenvalues --    0.03922   0.04474   0.05017   0.05420   0.05744

 Mulliken atomic charges:
              1
     1  O   -0.511352
     2  C   -0.265615
     3  C    0.075817
     4  O   -0.524984
     5  H    0.356971
     6  C    0.061835
     7  O   -0.509248
     8  H    0.439762
     9  C   -0.086870
    10  O   -0.532045
    11  H    0.353561
    12  C    0.276895
    13  O   -0.391770
    14  C    0.297079
    15  O   -0.321417
    16  C   -0.127261
    17  C    0.072599
    18  O   -0.559096
    19  H    0.437273
    20  C    0.011708
    21  O   -0.500255
    22  H    0.349020
    23  C   -0.139040
    24  O   -0.589056
    25  H    0.382620
    26  C   -0.143818
    27  O   -0.315489
    28  C    0.313041
    29  O   -0.555843
    30  H    0.368247
    31  H    0.361274
    32  H    0.137372
    33  H    0.148757
    34  H    0.145415
    35  H    0.136936
    36  H    0.117343
    37  H    0.147305
    38  H    0.135962
    39  H    0.146520
    40  H    0.125997
    41  H    0.148947
    42  H    0.137937
    43  H    0.133753
    44  H    0.144261
    45  H    0.108952
 Sum of Mulliken atomic charges =   0.00000

 Dipole moment (field-independent basis, Debye):
    X=             -2.9052    Y=              0.0365    Z=              2.4641  Tot=              3.8097
 Quadrupole moment (field-independent basis, Debye-Ang):
   XX=           -110.1072   YY=           -139.6148   ZZ=           -141.8105
   XY=            -12.9786   XZ=              4.7767   YZ=              0.4688

  Exact polarizability: 226.828   2.230 193.035   0.909  -0.083 140.671
 Approx polarizability: 264.075   2.253 249.701   0.738   0.100 230.396

 ******    7 imaginary frequencies (negative Signs) ******

                     1                      2                      3
                     A                      A                      A
 Frequencies --  -331.0908              -325.1128              -294.6203
 Red. masses --     1.1655                 1.1685                 1.7231
 Frc consts  --     0.0753                 0.0728                 0.0881
 IR Inten    --   115.9289               123.3278                 3.4150
 Raman Activ --     1.5473                 0.8785                 0.0587

                     4                      5                      6
                     A                      A                      A
 Frequencies --  -245.5543               -81.0129               -55.2174
 Red. masses --     1.7246                 6.6516                 6.2746
 Frc consts  --     0.0613                 0.0257                 0.0113
 IR Inten    --     7.2015                 1.9647                 0.1540
 Raman Activ --     0.2079                 0.0547                 0.0292

                     7                      8                      9
                     A                      A                      A
 Frequencies --   -27.2355                32.5207                58.2527
 Red. masses --     6.7799                 6.8123                 6.5982
 Frc consts  --     0.0030                 0.0042                 0.0132
 IR Inten    --     0.1230                 0.9103                 0.1575
 Raman Activ --     0.0285                 0.0676                 0.0325

                    10                     11                     12
                     A                      A                      A
 Frequencies --    72.7818                91.6138               126.0176
 Red. masses --     6.3388                 6.6270                 5.6899
 Frc consts  --     0.0198                 0.0328                 0.0532
 IR Inten    --     2.0274                 0.2763                 0.8441
 Raman Activ --     0.1171                 0.1830                 0.0743

                    13                     14                     15
                     A                      A                      A
 Frequencies --   152.7122               187.2901               193.3669
 Red. masses --     6.4463                 7.1716                 5.4399
 Frc consts  --     0.0886                 0.1482                 0.1198
 IR Inten    --     7.2024                 1.2866                 2.1759
 Raman Activ --     0.4860                 0.4881                 0.2628

                    16                     17                     18
                     A                      A                      A
 Frequencies --   215.5431               232.1251               260.0349
 Red. masses --     6.6436                 6.1371                 4.3778
 Frc consts  --     0.1819                 0.1948                 0.1744
 IR Inten    --     0.3344                 3.1693                22.4247
 Raman Activ --     2.1764                 1.0527                 0.2100

                    19                     20                     21
                     A                      A                      A
 Frequencies --   271.3788               279.6169               301.0503
 Red. masses --     4.7587                 5.0473                 5.2787
 Frc consts  --     0.2065                 0.2325                 0.2819
 IR Inten    --     1.6732                 3.3690                 7.6499
 Raman Activ --     0.0943                 0.3212                 0.1274

                    22                     23                     24
                     A                      A                      A
 Frequencies --   309.2148               323.8312               328.7848
 Red. masses --     4.9513                 5.7225                 6.2197
 Frc consts  --     0.2789                 0.3536                 0.3961
 IR Inten    --     2.6895                 2.7677                 5.0636
 Raman Activ --     1.4347                 3.1266                 4.0209

                    25                     26                     27
                     A                      A                      A
 Frequencies --   355.8456               367.5650               385.7725
 Red. masses --     6.6304                 5.4346                 7.0100
 Frc consts  --     0.4947                 0.4326                 0.6147
 IR Inten    --     5.9963                 2.7837                 2.7220
 Raman Activ --     2.2268                 0.1985                 1.0989

                    28                     29                     30
                     A                      A                      A
 Frequencies --   406.4607               415.8791               436.0314
 Red. masses --     4.8844                 5.8674                 4.9104
 Frc consts  --     0.4754                 0.5979                 0.5500
 IR Inten    --    17.3914                 2.2492                 3.3950
 Raman Activ --     1.4805                 7.4036                 1.1617

                    31                     32                     33
                     A                      A                      A
 Frequencies --   445.4832               486.2849               496.9530
 Red. masses --     5.8560                 4.5415                 3.7666
 Frc consts  --     0.6847                 0.6327                 0.5481
 IR Inten    --     5.3505                 7.8426                12.6516
 Raman Activ --     3.0876                 2.9973                 0.5203

                    34                     35                     36
                     A                      A                      A
 Frequencies --   518.2383               541.2547               561.6808
 Red. masses --     3.8011                 3.1900                 4.6129
 Frc consts  --     0.6015                 0.5506                 0.8574
 IR Inten    --     5.4855                 7.4349                14.5371
 Raman Activ --     4.2091                 3.3216                 1.5786

                    37                     38                     39
                     A                      A                      A
 Frequencies --   589.0678               592.3584               621.5782
 Red. masses --     5.7485                 3.6665                 3.8720
 Frc consts  --     1.1753                 0.7580                 0.8814
 IR Inten    --     1.2303                22.4734                46.2635
 Raman Activ --     1.5014                 0.6959                 0.3765

                    40                     41                     42
                     A                      A                      A
 Frequencies --   640.8502               667.8072               683.4314
 Red. masses --     2.4379                 1.3364                 4.2060
 Frc consts  --     0.5899                 0.3512                 1.1575
 IR Inten    --    32.2963                64.9620                16.6598
 Raman Activ --     1.2896                 1.8191                 0.6127

                    43                     44                     45
                     A                      A                      A
 Frequencies --   702.6396               716.9893               721.2591
 Red. masses --     1.0779                 1.0748                 1.0898
 Frc consts  --     0.3135                 0.3255                 0.3340
 IR Inten    --   107.6982                82.2314               121.8905
 Raman Activ --     1.6941                 2.5372                 1.5829

                    46                     47                     48
                     A                      A                      A
 Frequencies --   734.8188               847.6880               861.1948
 Red. masses --     1.1071                 1.2342                 1.7423
 Frc consts  --     0.3522                 0.5225                 0.7613
 IR Inten    --    89.3362                59.6561                 0.6969
 Raman Activ --     0.9012                 0.4265                 0.5106

                    49                     50                     51
                     A                      A                      A
 Frequencies --   870.7280               946.2916               966.8993
 Red. masses --     1.4320                 4.0463                 5.8025
 Frc consts  --     0.6397                 2.1348                 3.1962
 IR Inten    --    39.1560               127.2734                11.9354
 Raman Activ --     0.8565                 3.1068                 0.7983

                    52                     53                     54
                     A                      A                      A
 Frequencies --   990.6486               995.5836              1007.7905
 Red. masses --     5.8969                 4.9522                 4.2924
 Frc consts  --     3.4097                 2.8921                 2.5685
 IR Inten    --    37.7081               232.6727                30.2044
 Raman Activ --     1.5503                 1.6864                 1.8825

                    55                     56                     57
                     A                      A                      A
 Frequencies --  1011.4577              1020.9087              1033.2082
 Red. masses --     7.3826                 5.6084                 5.6189
 Frc consts  --     4.4499                 3.4440                 3.5341
 IR Inten    --   120.3012                86.2319                78.8208
 Raman Activ --     1.5934                 1.2296                 2.5065

                    58                     59                     60
                     A                      A                      A
 Frequencies --  1049.1156              1063.7290              1070.6956
 Red. masses --     3.3217                 2.9021                 5.5244
 Frc consts  --     2.1540                 1.9348                 3.7314
 IR Inten    --   360.6281               160.2931               136.6947
 Raman Activ --     4.0916                10.7733                 3.3789

                    61                     62                     63
                     A                      A                      A
 Frequencies --  1077.4954              1085.1235              1091.6595
 Red. masses --     4.9909                 4.5872                 3.4749
 Frc consts  --     3.4139                 3.1824                 2.4398
 IR Inten    --   213.9318                38.6631                15.7595
 Raman Activ --     3.3648                 3.5434                 2.1679

                    64                     65                     66
                     A                      A                      A
 Frequencies --  1092.6424              1108.3657              1111.9366
 Red. masses --     2.4115                 3.2250                 2.2360
 Frc consts  --     1.6963                 2.3342                 1.6288
 IR Inten    --     6.4584                18.0344                41.9326
 Raman Activ --     4.2115                12.5524                 7.3815

                    67                     68                     69
                     A                      A                      A
 Frequencies --  1125.6790              1132.1823              1137.0983
 Red. masses --     2.3090                 2.8185                 2.3176
 Frc consts  --     1.7239                 2.1286                 1.7656
 IR Inten    --    22.6022                25.9229                10.7675
 Raman Activ --    10.2414                 6.8699                 1.6308

                    70                     71                     72
                     A                      A                      A
 Frequencies --  1140.2038              1149.8584              1162.6638
 Red. masses --     2.5124                 2.1076                 2.2541
 Frc consts  --     1.9244                 1.6418                 1.7953
 IR Inten    --    40.1173                80.0209                 0.8832
 Raman Activ --     3.1833                 4.8181                 2.6387

                    73                     74                     75
                     A                      A                      A
 Frequencies --  1165.5736              1171.1456              1199.0910
 Red. masses --     1.5714                 2.0412                 1.9423
 Frc consts  --     1.2578                 1.6495                 1.6454
 IR Inten    --     7.6329                44.7420                 5.8765
 Raman Activ --     1.3437                 5.2207                 1.7250

                    76                     77                     78
                     A                      A                      A
 Frequencies --  1205.4552              1208.3099              1240.1555
 Red. masses --     1.6514                 1.7070                 1.4167
 Frc consts  --     1.4139                 1.4684                 1.2838
 IR Inten    --    17.4889                16.2939                 9.6666
 Raman Activ --     5.1988                 0.5837                 2.7001

                    79                     80                     81
                     A                      A                      A
 Frequencies --  1242.5308              1252.3289              1268.5027
 Red. masses --     1.3647                 1.3262                 1.3776
 Frc consts  --     1.2414                 1.2255                 1.3060
 IR Inten    --     1.6274                29.8881                10.6468
 Raman Activ --     1.4551                 1.7922                 1.3431

                    82                     83                     84
                     A                      A                      A
 Frequencies --  1276.7143              1285.7449              1288.9955
 Red. masses --     1.2639                 1.1800                 1.2759
 Frc consts  --     1.2138                 1.1493                 1.2490
 IR Inten    --    29.0100                22.5442                 9.0469
 Raman Activ --     1.1829                 4.2566                 4.2125

                    85                     86                     87
                     A                      A                      A
 Frequencies --  1291.4086              1300.9532              1309.7255
 Red. masses --     1.2099                 1.3329                 1.2274
 Frc consts  --     1.1888                 1.3292                 1.2405
 IR Inten    --    31.8864                18.2358                19.9806
 Raman Activ --    11.4267                 2.2552                 5.0524

                    88                     89                     90
                     A                      A                      A
 Frequencies --  1335.5811              1340.5449              1341.2727
 Red. masses --     1.2906                 1.2505                 1.2769
 Frc consts  --     1.3564                 1.3240                 1.3534
 IR Inten    --     3.3429                18.9240                21.6993
 Raman Activ --     2.2444                 9.7053                 6.7464

                    91                     92                     93
                     A                      A                      A
 Frequencies --  1345.6449              1350.1518              1359.0645
 Red. masses --     1.1918                 1.3198                 1.2746
 Frc consts  --     1.2714                 1.4175                 1.3871
 IR Inten    --    32.0562                14.6978                44.0407
 Raman Activ --     4.3831                 1.0176                 6.9534

                    94                     95                     96
                     A                      A                      A
 Frequencies --  1360.1476              1369.3114              1381.1025
 Red. masses --     1.2753                 1.4738                 1.1105
 Frc consts  --     1.3901                 1.6282                 1.2480
 IR Inten    --     2.9210                 3.2187                17.7340
 Raman Activ --     1.8458                 3.2671                 3.1411

                    97                     98                     99
                     A                      A                      A
 Frequencies --  1382.4999              1388.9661              1398.5616
 Red. masses --     1.5152                 1.6418                 1.6789
 Frc consts  --     1.7063                 1.8662                 1.9348
 IR Inten    --    25.6958                12.7181                14.2305
 Raman Activ --     2.5980                 3.8620                 4.7107

                   100                    101                    102
                     A                      A                      A
 Frequencies --  1419.2990              1453.0587              1467.6873
 Red. masses --     1.4725                 1.2086                 1.3371
 Frc consts  --     1.7477                 1.5035                 1.6970
 IR Inten    --    23.1115                 6.4404                19.7576
 Raman Activ --     1.8052                11.6018                 2.4779

                   103                    104                    105
                     A                      A                      A
 Frequencies --  1470.0329              1480.6591              1485.1222
 Red. masses --     1.3287                 1.1100                 1.1167
 Frc consts  --     1.6917                 1.4338                 1.4511
 IR Inten    --     8.1812                 8.3351                 3.3304
 Raman Activ --     2.1497                 3.4538                 3.7805

                   106                    107                    108
                     A                      A                      A
 Frequencies --  1493.7721              1530.1935              3255.7885
 Red. masses --     1.3066                 1.2429                 1.0807
 Frc consts  --     1.7178                 1.7146                 6.7497
 IR Inten    --    60.7298                91.0840                44.4333
 Raman Activ --     1.1363                 3.0338                66.9134

                   109                    110                    111
                     A                      A                      A
 Frequencies --  3265.6590              3268.3495              3272.6085
 Red. masses --     1.0580                 1.0594                 1.0841
 Frc consts  --     6.6478                 6.6675                 6.8408
 IR Inten    --    28.3283                95.3454                 8.5869
 Raman Activ --    76.4371                62.4138                25.5225

                   112                    113                    114
                     A                      A                      A
 Frequencies --  3286.3761              3293.9012              3295.2563
 Red. masses --     1.0815                 1.0841                 1.0832
 Frc consts  --     6.8819                 6.9301                 6.9300
 IR Inten    --    22.6262                11.6033                52.6312
 Raman Activ --   142.9826                59.4715                24.3737

                   115                    116                    117
                     A                      A                      A
 Frequencies --  3299.0248              3300.3404              3306.8290
 Red. masses --     1.0858                 1.0827                 1.0767
 Frc consts  --     6.9623                 6.9481                 6.9367
 IR Inten    --     5.7949               141.4456               162.3071
 Raman Activ --   143.8779               105.9442                98.1484

                   118                    119                    120
                     A                      A                      A
 Frequencies --  3309.3741              3312.7535              3315.0924
 Red. masses --     1.0859                 1.0892                 1.0858
 Frc consts  --     7.0072                 7.0424                 7.0308
 IR Inten    --    10.8598                18.5679               199.0785
 Raman Activ --   107.1114                23.2378                51.4704

                   121                    122                    123
                     A                      A                      A
 Frequencies --  3324.1458              3325.9098              3330.3138
 Red. masses --     1.1013                 1.1004                 1.0728
 Frc consts  --     7.1697                 7.1716                 7.0106
 IR Inten    --   107.7890               106.0792               857.2499
 Raman Activ --    46.5828                12.9293               133.5876

                   124                    125                    126
                     A                      A                      A
 Frequencies --  3388.2030              3390.6926              3394.7743
 Red. masses --     1.0671                 1.0677                 1.0659
 Frc consts  --     7.2175                 7.2325                 7.2375
 IR Inten    --    37.3044                33.5633                25.0081
 Raman Activ --   121.7526               157.7489               159.6857

                   127                    128                    129
                     A                      A                      A
 Frequencies --  3405.2363              3920.9835              3921.2522
 Red. masses --     1.0672                 1.0675                 1.0677
 Frc consts  --     7.2911                 9.6695                 9.6731
 IR Inten    --    72.1474                86.9501                54.7506
 Raman Activ --   142.4019                97.6647               120.2401

 - Thermochemistry -
 -------------------
 Temperature   298.150 Kelvin.  Pressure   1.00000 Atm.
 Atom     1 has atomic number  8 and mass  15.99491

 Molecular mass:   342.11621 amu.
 Principal axes and moments of inertia in atomic units:
                           1         2         3
     Eigenvalues --  4495.96096********************
           X            0.99997  -0.00748   0.00081
           Y            0.00748   0.99997  -0.00207
           Z           -0.00079   0.00207   1.00000
 This molecule is an asymmetric top.
 Rotational symmetry number  1.
 Warning -- assumption of classical behavior for rotation
           may cause significant error
 Rotational temperatures (Kelvin)      0.01926     0.00717     0.00539
 Rotational constants (GHZ):           0.40141     0.14945     0.11221
    7 imaginary frequencies ignored.
 Zero-point vibrational energy     979247.5 (Joules/Mol)
                                  234.04578 (Kcal/Mol)
 Warning -- explicit consideration of  31 degrees of freedom as
           vibrations may cause significant error
 Vibrational temperatures:     46.79    83.81   104.72   131.81   181.31
          (Kelvin)            219.72   269.47   278.21   310.12   333.98
                              374.13   390.45   402.31   433.14   444.89
                              465.92   473.05   511.98   528.84   555.04
                              584.81   598.36   627.35   640.95   699.65
                              715.00   745.63   778.74   808.13   847.54
                              852.27   894.31   922.04   960.82   983.30
                             1010.94  1031.59  1037.73  1057.24  1219.63
                             1239.07  1252.78  1361.50  1391.15  1425.32
                             1432.42  1449.98  1455.26  1468.86  1486.55
                             1509.44  1530.47  1540.49  1550.27  1561.25
                             1570.65  1572.07  1594.69  1599.83  1619.60
                             1628.96  1636.03  1640.50  1654.39  1672.81
                             1677.00  1685.02  1725.22  1734.38  1738.49
                             1784.30  1787.72  1801.82  1825.09  1836.90
                             1849.90  1854.57  1858.05  1871.78  1884.40
                             1921.60  1928.74  1929.79  1936.08  1942.56
                             1955.39  1956.95  1970.13  1987.10  1989.11
                             1998.41  2012.22  2042.05  2090.62  2111.67
                             2115.05  2130.34  2136.76  2149.20  2201.60
                             4684.35  4698.55  4702.42  4708.55  4728.36
                             4739.18  4741.13  4746.55  4748.45  4757.78
                             4761.45  4766.31  4769.67  4782.70  4785.24
                             4791.57  4874.86  4878.44  4884.32  4899.37
                             5641.41  5641.80

 Zero-point correction=                           0.372976 (Hartree/Particle)
 Thermal correction to Energy=                    0.391254
 Thermal correction to Enthalpy=                  0.392198
 Thermal correction to Gibbs Free Energy=         0.327174
 Sum of electronic and zero-point Energies=          -1297.554161
 Sum of electronic and thermal Energies=             -1297.535883
 Sum of electronic and thermal Enthalpies=           -1297.534939
 Sum of electronic and thermal Free Energies=        -1297.599963

                     E (Thermal)             CV                S
                      KCal/Mol        Cal/Mol-Kelvin    Cal/Mol-Kelvin
 Total                  245.516             75.611            136.856
 Electronic               0.000              0.000              0.000
 Translational            0.889              2.981             43.384
 Rotational               0.889              2.981             35.122
 Vibrational            243.738             69.649             58.349
 Vibration     1          0.594              1.983              5.669
 Vibration     2          0.596              1.974              4.516
 Vibration     3          0.599              1.967              4.077
 Vibration     4          0.602              1.955              3.625
 Vibration     5          0.611              1.927              3.006
 Vibration     6          0.619              1.900              2.638
 Vibration     7          0.632              1.857              2.254
 Vibration     8          0.635              1.849              2.195
 Vibration     9          0.645              1.817              1.996
 Vibration    10          0.653              1.792              1.862
 Vibration    11          0.668              1.746              1.662
 Vibration    12          0.675              1.726              1.587
 Vibration    13          0.680              1.711              1.536
 Vibration    14          0.693              1.672              1.411
 Vibration    15          0.699              1.656              1.367
 Vibration    16          0.708              1.628              1.291
 Vibration    17          0.712              1.618              1.266
 Vibration    18          0.731              1.563              1.140
 Vibration    19          0.740              1.539              1.090
 Vibration    20          0.754              1.501              1.016
 Vibration    21          0.771              1.456              0.939
 Vibration    22          0.779              1.436              0.906
 Vibration    23          0.796              1.392              0.839
 Vibration    24          0.805              1.371              0.810
 Vibration    25          0.842              1.280              0.693
 Vibration    26          0.852              1.257              0.666
 Vibration    27          0.873              1.210              0.614
 Vibration    28          0.896              1.159              0.563
 Vibration    29          0.917              1.114              0.520
 Vibration    30          0.946              1.055              0.469
 Vibration    31          0.950              1.048              0.463

 Normal termination of Gaussian 09 at Tue Mar  1 03:31:26 2016.
