 Gaussian 09, Revision B.01,
 Gaussian 09:  EM64L-G09RevB.01 12-Aug-2010

 ------------------------------------------------
 # freq=raman b3lyp/6-31+g(d,p) geom=connectivity
 ------------------------------------------------

 ------------
 300 5000.com
 ------------
 Symbolic Z-matrix:
 Charge =  0 Multiplicity = 1

                         Standard orientation:
 ---------------------------------------------------------------------
 Center     Atomic      Atomic             Coordinates (Angstroms)
 Number     Number       Type             X           Y           Z
 ---------------------------------------------------------------------
      1          8           0        5.059657   -0.351673   -0.277574
      2          6           0        3.707192   -0.106390    0.136899
      3          6           0        3.178484    1.260706   -0.263356
      4          8           0        4.092947    2.319335    0.055518
      5          1           0        4.927217    1.919736   -0.323811
      6          6           0        1.772026    1.545473    0.239405
      7          8           0        1.217412    2.621984   -0.531494
      8          1           0        0.253155    2.810985   -0.344064
      9          6           0        2.958731   -2.542952    0.239721
     10          8           0        4.185692   -3.201658   -0.106396
     11          1           0        4.087776   -4.177092   -0.305305
     12          6           0        2.720573   -1.159036   -0.341150
     13          8           0        1.369131   -0.925166    0.082846
     14          6           0        0.915047    0.392489   -0.259299
     15          8           0       -0.246052    0.471216    0.580054
     16          6           0       -1.514568    0.173708   -0.020267
     17          6           0       -2.076323   -1.156368    0.455437
     18          8           0       -1.101654   -2.182122    0.219983
     19          1           0       -0.253271   -1.773192    0.556148
     20          6           0       -3.366466   -1.504033   -0.269028
     21          8           0       -3.840202   -2.740702    0.281755
     22          1           0       -4.710837   -2.838317   -0.200073
     23          6           0       -2.136962    2.677979   -0.070849
     24          8           0       -1.107824    3.368341    0.653305
     25          1           0       -1.431143    4.310016    0.564348
     26          6           0       -2.547331    1.252660    0.262916
     27          8           0       -3.763239    0.932798   -0.428957
     28          6           0       -4.262545   -0.320899    0.060171
     29          8           0       -5.425511   -0.651561   -0.712699
     30          1           0       -6.143151   -0.894377   -0.123094
     31          1           0        5.609288   -0.500164    0.495379
     32          1           0        0.665498    0.483653   -1.295790
     33          1           0        1.710049    1.697080    1.296795
     34          1           0        3.109213    1.245380   -1.331001
     35          1           0        3.702667   -0.139789    1.206368
     36          1           0        2.751874   -1.213477   -1.409306
     37          1           0        2.150962   -3.171706   -0.071853
     38          1           0        2.921242   -2.460861    1.305908
     39          1           0       -3.020171    3.277181    0.005308
     40          1           0       -1.841783    2.679236   -1.099327
     41          1           0       -2.758312    1.221451    1.311445
     42          1           0       -1.374985    0.116324   -1.079570
     43          1           0       -2.272069   -1.096137    1.505654
     44          1           0       -3.204990   -1.585278   -1.323648
     45          1           0       -4.488243   -0.277017    1.105175
 ---------------------------------------------------------------------

 SCF Done:  E(RB3LYP) =  -1297.92840750     A.U. after   13 cycles

 The electronic state is 1-A.
 Alpha  occ. eigenvalues --  -19.20341 -19.19901 -19.19102 -19.19045 -19.18663
 Alpha  occ. eigenvalues --  -19.18125 -19.17600 -19.16403 -19.15800 -19.14516
 Alpha  occ. eigenvalues --  -19.14318 -10.31456 -10.30683 -10.26844 -10.26228
 Alpha  occ. eigenvalues --  -10.25692 -10.25580 -10.25516 -10.25055 -10.24904
 Alpha  occ. eigenvalues --  -10.24270 -10.24061 -10.24017  -1.10376  -1.09765
 Alpha  occ. eigenvalues --   -1.06519  -1.05391  -1.04714  -1.03963  -1.03145
 Alpha  occ. eigenvalues --   -1.02270  -1.01795  -1.00767  -1.00208  -0.82318
 Alpha  occ. eigenvalues --   -0.80544  -0.79757  -0.78239  -0.72037  -0.70036
 Alpha  occ. eigenvalues --   -0.67251  -0.64731  -0.63251  -0.62644  -0.61854
 Alpha  occ. eigenvalues --   -0.60248  -0.56643  -0.56302  -0.55436  -0.54776
 Alpha  occ. eigenvalues --   -0.54384  -0.53318  -0.52818  -0.52140  -0.51233
 Alpha  occ. eigenvalues --   -0.50919  -0.50050  -0.49108  -0.48516  -0.46909
 Alpha  occ. eigenvalues --   -0.46400  -0.45414  -0.44196  -0.43766  -0.43216
 Alpha  occ. eigenvalues --   -0.42433  -0.42087  -0.41102  -0.40474  -0.40092
 Alpha  occ. eigenvalues --   -0.39553  -0.38653  -0.38205  -0.36041  -0.35751
 Alpha  occ. eigenvalues --   -0.35543  -0.35016  -0.34523  -0.34261  -0.33645
 Alpha  occ. eigenvalues --   -0.32985  -0.31710  -0.31132  -0.30763  -0.29914
 Alpha  occ. eigenvalues --   -0.29301  -0.28759  -0.28496  -0.27953  -0.26623
 Alpha  occ. eigenvalues --   -0.26400
 Alpha virt. eigenvalues --   -0.02549  -0.02166  -0.01478  -0.00104   0.00311
 Alpha virt. eigenvalues --    0.00926   0.01929   0.02172   0.03179   0.03412
 Alpha virt. eigenvalues --    0.03957   0.04318   0.04644   0.05411   0.05679

 Mulliken atomic charges:
              1
     1  O   -0.529163
     2  C   -0.134033
     3  C    0.040369
     4  O   -0.487412
     5  H    0.354020
     6  C    0.049574
     7  O   -0.522817
     8  H    0.409632
     9  C   -0.177411
    10  O   -0.575108
    11  H    0.366701
    12  C    0.325090
    13  O   -0.390766
    14  C    0.079909
    15  O   -0.347824
    16  C   -0.016201
    17  C   -0.101939
    18  O   -0.482330
    19  H    0.399490
    20  C   -0.003178
    21  O   -0.476711
    22  H    0.340913
    23  C   -0.072095
    24  O   -0.543299
    25  H    0.376140
    26  C    0.040087
    27  O   -0.312600
    28  C    0.277060
    29  O   -0.590961
    30  H    0.369551
    31  H    0.377472
    32  H    0.145119
    33  H    0.156922
    34  H    0.133346
    35  H    0.124605
    36  H    0.132651
    37  H    0.141269
    38  H    0.138129
    39  H    0.141529
    40  H    0.145809
    41  H    0.136471
    42  H    0.125047
    43  H    0.139941
    44  H    0.157463
    45  H    0.139540
 Sum of Mulliken atomic charges =   0.00000

 Dipole moment (field-independent basis, Debye):
    X=             -3.3359    Y=              0.2551    Z=              1.3837  Tot=              3.6205
 Quadrupole moment (field-independent basis, Debye-Ang):
   XX=           -122.9387   YY=           -137.5035   ZZ=           -138.6227
   XY=            -16.3620   XZ=             -2.0899   YZ=              3.0695

  Exact polarizability: 224.636   0.827 192.464   0.537   0.163 141.045
 Approx polarizability: 262.276   0.295 249.326   1.053   0.800 231.820

 ******    8 imaginary frequencies (negative Signs) ******

                     1                      2                      3
                     A                      A                      A
 Frequencies --  -320.3495              -300.3056              -297.3538
 Red. masses --     1.1760                 1.6702                 1.1585
 Frc consts  --     0.0711                 0.0887                 0.0604
 IR Inten    --   138.1711                 3.9515               116.6222
 Raman Activ --     1.6295                 0.0353                 0.7457

                     4                      5                      6
                     A                      A                      A
 Frequencies --  -231.1609               -83.2430               -57.4057
 Red. masses --     1.7544                 6.2977                 6.5198
 Frc consts  --     0.0552                 0.0257                 0.0127
 IR Inten    --     5.4233                 0.9376                 0.9610
 Raman Activ --     0.1043                 0.0472                 0.0452

                     7                      8                      9
                     A                      A                      A
 Frequencies --   -46.7369                -2.9067                72.8358
 Red. masses --     6.8062                 6.6301                 6.3701
 Frc consts  --     0.0088                 0.0000                 0.0199
 IR Inten    --     1.2256                 0.1392                 0.5982
 Raman Activ --     0.0482                 0.0922                 0.2891

                    10                     11                     12
                     A                      A                      A
 Frequencies --    82.8270                96.4773               119.2618
 Red. masses --     6.1657                 5.9494                 5.6102
 Frc consts  --     0.0249                 0.0326                 0.0470
 IR Inten    --     2.4072                 3.7350                 1.2092
 Raman Activ --     0.0824                 0.0748                 0.0532

                    13                     14                     15
                     A                      A                      A
 Frequencies --   151.6486               175.1239               181.8146
 Red. masses --     6.2781                 6.9732                 5.6704
 Frc consts  --     0.0851                 0.1260                 0.1104
 IR Inten    --     5.2998                 0.1144                 2.5254
 Raman Activ --     0.3032                 0.4547                 0.5558

                    16                     17                     18
                     A                      A                      A
 Frequencies --   211.4082               224.4799               251.6917
 Red. masses --     6.8262                 6.2365                 4.3975
 Frc consts  --     0.1798                 0.1852                 0.1641
 IR Inten    --     1.2795                 3.4109                15.0576
 Raman Activ --     1.5542                 1.1732                 0.3553

                    19                     20                     21
                     A                      A                      A
 Frequencies --   275.8797               293.2803               303.7995
 Red. masses --     5.0796                 5.2900                 4.8061
 Frc consts  --     0.2278                 0.2681                 0.2613
 IR Inten    --     3.1817                 2.8112                 8.7246
 Raman Activ --     0.1559                 0.0985                 0.5418

                    22                     23                     24
                     A                      A                      A
 Frequencies --   313.0109               315.4678               329.4517
 Red. masses --     5.8186                 5.2495                 6.0919
 Frc consts  --     0.3359                 0.3078                 0.3896
 IR Inten    --     3.2197                 3.2231                 2.6906
 Raman Activ --     1.1355                 1.6981                 2.0567

                    25                     26                     27
                     A                      A                      A
 Frequencies --   335.8531               351.0075               377.4533
 Red. masses --     6.2353                 4.8769                 5.3547
 Frc consts  --     0.4144                 0.3540                 0.4495
 IR Inten    --     8.9381                 4.2070                 0.1016
 Raman Activ --     3.9133                 0.2470                 0.6021

                    28                     29                     30
                     A                      A                      A
 Frequencies --   401.1271               422.6495               427.5516
 Red. masses --     4.3318                 6.4544                 4.5207
 Frc consts  --     0.4107                 0.6793                 0.4869
 IR Inten    --    12.4356                 1.5742                 4.4333
 Raman Activ --     3.3649                 6.7418                 0.9836

                    31                     32                     33
                     A                      A                      A
 Frequencies --   448.2052               475.2705               497.0742
 Red. masses --     6.0856                 4.2505                 4.9307
 Frc consts  --     0.7203                 0.5657                 0.7178
 IR Inten    --     1.1458                 3.6839                11.5317
 Raman Activ --     3.0510                 4.3790                 0.8062

                    34                     35                     36
                     A                      A                      A
 Frequencies --   518.7471               534.9955               564.9290
 Red. masses --     3.6466                 3.0745                 4.8057
 Frc consts  --     0.5782                 0.5185                 0.9036
 IR Inten    --    12.9822                 8.9625                11.0085
 Raman Activ --     1.0614                 4.4063                 1.2708

                    37                     38                     39
                     A                      A                      A
 Frequencies --   581.4437               607.3098               614.5993
 Red. masses --     3.1701                 3.5945                 1.8472
 Frc consts  --     0.6315                 0.7811                 0.4111
 IR Inten    --    26.0995                11.8007                64.2951
 Raman Activ --     0.7829                 0.8583                 1.0025

                    40                     41                     42
                     A                      A                      A
 Frequencies --   634.1457               646.1253               694.7781
 Red. masses --     1.9482                 3.2367                 3.7641
 Frc consts  --     0.4616                 0.7961                 1.0705
 IR Inten    --    65.4669                48.7373                46.0031
 Raman Activ --     1.3966                 0.7950                 2.2674

                    43                     44                     45
                     A                      A                      A
 Frequencies --   711.1186               756.6022               762.9095
 Red. masses --     1.1741                 1.1261                 1.1201
 Frc consts  --     0.3498                 0.3798                 0.3841
 IR Inten    --   122.1077                59.4522                87.4683
 Raman Activ --     2.0403                 0.9741                 1.7175

                    46                     47                     48
                     A                      A                      A
 Frequencies --   772.0898               815.9911               848.1150
 Red. masses --     1.1086                 1.0966                 1.7207
 Frc consts  --     0.3894                 0.4302                 0.7292
 IR Inten    --    99.6647               148.6982                 3.6922
 Raman Activ --     1.7070                 4.1756                 0.3450

                    49                     50                     51
                     A                      A                      A
 Frequencies --   849.0697               938.2861               972.3120
 Red. masses --     1.7650                 5.3985                 3.6629
 Frc consts  --     0.7497                 2.8002                 2.0403
 IR Inten    --     1.5358                63.4410               112.6717
 Raman Activ --     0.7520                 2.1026                 1.1276

                    52                     53                     54
                     A                      A                      A
 Frequencies --   985.7817               996.3151              1006.6988
 Red. masses --     4.0962                 6.4763                 6.1457
 Frc consts  --     2.3453                 3.7876                 3.6696
 IR Inten    --    90.0411                11.3501                57.9634
 Raman Activ --     2.4235                 1.5739                 1.1211

                    55                     56                     57
                     A                      A                      A
 Frequencies --  1020.5193              1023.9222              1035.5199
 Red. masses --     5.4499                 5.1727                 6.1469
 Frc consts  --     3.3441                 3.1952                 3.8835
 IR Inten    --   344.6952                60.1577                69.4270
 Raman Activ --     1.4372                 3.7236                 2.3953

                    58                     59                     60
                     A                      A                      A
 Frequencies --  1051.0083              1058.9172              1059.9144
 Red. masses --     3.4749                 4.3048                 5.0870
 Frc consts  --     2.2616                 2.8440                 3.3671
 IR Inten    --   210.3595               283.4028                46.9840
 Raman Activ --     6.8975                 6.2385                 1.4757

                    61                     62                     63
                     A                      A                      A
 Frequencies --  1072.6963              1075.7434              1084.3893
 Red. masses --     2.0113                 2.5861                 4.6537
 Frc consts  --     1.3636                 1.7633                 3.2242
 IR Inten    --    18.3743               139.3490               145.5822
 Raman Activ --     4.2683                16.9716                 1.9998

                    64                     65                     66
                     A                      A                      A
 Frequencies --  1095.4173              1102.2242              1108.1849
 Red. masses --     2.6470                 2.8597                 2.5191
 Frc consts  --     1.8714                 2.0470                 1.8227
 IR Inten    --    36.0667                41.8136                32.7716
 Raman Activ --     3.0596                 4.4304                10.1086

                    67                     68                     69
                     A                      A                      A
 Frequencies --  1123.5218              1126.0245              1138.5831
 Red. masses --     2.8245                 2.1306                 2.8388
 Frc consts  --     2.1006                 1.5916                 2.1683
 IR Inten    --     1.3077                 7.0521                 9.7040
 Raman Activ --     2.8897                 4.8699                 8.9344

                    70                     71                     72
                     A                      A                      A
 Frequencies --  1141.2102              1152.7764              1156.0854
 Red. masses --     2.9396                 2.9741                 1.7715
 Frc consts  --     2.2556                 2.3286                 1.3950
 IR Inten    --    40.6145                11.3700                20.4778
 Raman Activ --     4.9205                11.8226                 4.5978

                    73                     74                     75
                     A                      A                      A
 Frequencies --  1165.8125              1175.8658              1191.2294
 Red. masses --     1.6409                 2.4212                 2.0500
 Frc consts  --     1.3139                 1.9724                 1.7140
 IR Inten    --     9.0402                19.5781                 1.7772
 Raman Activ --     1.6314                 2.9043                 1.7595

                    76                     77                     78
                     A                      A                      A
 Frequencies --  1196.1002              1202.8447              1209.2688
 Red. masses --     1.4435                 1.2995                 1.5418
 Frc consts  --     1.2167                 1.1077                 1.3283
 IR Inten    --    21.2845                11.1076                17.4539
 Raman Activ --     3.3272                 2.5985                 1.9652

                    79                     80                     81
                     A                      A                      A
 Frequencies --  1230.9431              1238.1686              1246.2328
 Red. masses --     1.1738                 1.4021                 1.2074
 Frc consts  --     1.0479                 1.2665                 1.1048
 IR Inten    --     4.5396                20.3476                20.8755
 Raman Activ --     2.0817                 1.5439                 0.9216

                    82                     83                     84
                     A                      A                      A
 Frequencies --  1261.3838              1283.6306              1285.5060
 Red. masses --     1.3780                 1.4751                 1.3827
 Frc consts  --     1.2918                 1.4321                 1.3462
 IR Inten    --    10.8100                26.8629                11.6751
 Raman Activ --     4.7417                 2.4808                 3.0191

                    85                     86                     87
                     A                      A                      A
 Frequencies --  1293.6565              1302.2939              1312.0702
 Red. masses --     1.2625                 1.2672                 1.4445
 Frc consts  --     1.2448                 1.2662                 1.4652
 IR Inten    --    14.0776                 7.6937                38.7668
 Raman Activ --     2.1322                 3.3180                 7.4650

                    88                     89                     90
                     A                      A                      A
 Frequencies --  1317.1892              1323.2939              1332.2546
 Red. masses --     1.3022                 1.2940                 1.1379
 Frc consts  --     1.3312                 1.3350                 1.1900
 IR Inten    --    11.3964                29.6280                41.0584
 Raman Activ --     2.0623                 6.3761                 4.8976

                    91                     92                     93
                     A                      A                      A
 Frequencies --  1333.0974              1335.5373              1353.6001
 Red. masses --     1.2919                 1.4238                 1.4324
 Frc consts  --     1.3527                 1.4963                 1.5463
 IR Inten    --    33.7076                 7.2037                 3.4170
 Raman Activ --     4.8470                 7.2048                 5.7003

                    94                     95                     96
                     A                      A                      A
 Frequencies --  1361.3663              1371.5945              1377.8495
 Red. masses --     1.2332                 1.4212                 1.3691
 Frc consts  --     1.3466                 1.5753                 1.5313
 IR Inten    --    14.6723                 9.8776                21.4172
 Raman Activ --     2.8417                 7.9942                 7.9786

                    97                     98                     99
                     A                      A                      A
 Frequencies --  1385.7793              1404.3444              1405.7603
 Red. masses --     1.2830                 1.3991                 1.3659
 Frc consts  --     1.4517                 1.6258                 1.5903
 IR Inten    --    30.0010                 6.7597                 7.5407
 Raman Activ --     5.5635                 4.5111                 4.9060

                   100                    101                    102
                     A                      A                      A
 Frequencies --  1416.9331              1425.2169              1453.5548
 Red. masses --     1.3757                 1.4693                 1.3546
 Frc consts  --     1.6274                 1.7584                 1.6862
 IR Inten    --    21.4175                 9.7864                27.6538
 Raman Activ --     0.9450                 0.8342                 1.4957

                   103                    104                    105
                     A                      A                      A
 Frequencies --  1476.6221              1483.9136              1490.0964
 Red. masses --     1.0842                 1.0726                 1.3449
 Frc consts  --     1.3929                 1.3916                 1.7594
 IR Inten    --     1.8979                 8.8914                 9.9294
 Raman Activ --     4.5102                 5.5759                 0.6785

                   106                    107                    108
                     A                      A                      A
 Frequencies --  1498.4453              1504.7530              3265.0663
 Red. masses --     1.3729                 1.3279                 1.0599
 Frc consts  --     1.8162                 1.7715                 6.6574
 IR Inten    --    57.5073                57.9738                36.5575
 Raman Activ --     1.9428                 1.8409                82.5953

                   109                    110                    111
                     A                      A                      A
 Frequencies --  3271.0363              3274.4144              3278.2991
 Red. masses --     1.0609                 1.0786                 1.0820
 Frc consts  --     6.6881                 6.8135                 6.8516
 IR Inten    --    23.3281                11.8668                14.3656
 Raman Activ --    30.3069               157.2677                23.8966

                   112                    113                    114
                     A                      A                      A
 Frequencies --  3285.6971              3286.3851              3299.6769
 Red. masses --     1.0839                 1.0832                 1.0864
 Frc consts  --     6.8942                 6.8931                 6.9695
 IR Inten    --    11.3226                11.5572                14.3250
 Raman Activ --     9.8729                98.8668                 1.6641

                   115                    116                    117
                     A                      A                      A
 Frequencies --  3301.3892              3306.4431              3319.4325
 Red. masses --     1.0865                 1.0866                 1.0964
 Frc consts  --     6.9770                 6.9990                 7.1175
 IR Inten    --    41.7505                23.0946                53.3012
 Raman Activ --    35.3012               142.8169                32.3339

                   118                    119                    120
                     A                      A                      A
 Frequencies --  3320.1766              3323.3763              3326.6605
 Red. masses --     1.0919                 1.0876                 1.0839
 Frc consts  --     7.0917                 7.0774                 7.0674
 IR Inten    --    51.8240                89.2939               131.8183
 Raman Activ --    48.1669                31.2037               128.7291

                   121                    122                    123
                     A                      A                      A
 Frequencies --  3331.0792              3336.3528              3360.6185
 Red. masses --     1.1055                 1.0745                 1.0658
 Frc consts  --     7.2276                 7.0471                 7.0921
 IR Inten    --    43.7065               330.1585               404.6429
 Raman Activ --    29.2808               165.7165               117.3506

                   124                    125                    126
                     A                      A                      A
 Frequencies --  3385.0380              3386.5918              3390.5630
 Red. masses --     1.0646                 1.0701                 1.0643
 Frc consts  --     7.1870                 7.2311                 7.2087
 IR Inten    --    31.0921                48.3638                22.6242
 Raman Activ --    71.6667               181.5190               125.5684

                   127                    128                    129
                     A                      A                      A
 Frequencies --  3405.2617              3919.9212              3921.8231
 Red. masses --     1.0667                 1.0675                 1.0679
 Frc consts  --     7.2875                 9.6644                 9.6770
 IR Inten    --    53.6104                71.4176                87.6161
 Raman Activ --   120.3777               106.7382                86.0911

 - Thermochemistry -
 -------------------
 Temperature   298.150 Kelvin.  Pressure   1.00000 Atm.
 Atom     1 has atomic number  8 and mass  15.99491

 Molecular mass:   342.11621 amu.
 Principal axes and moments of inertia in atomic units:
                           1         2         3
     Eigenvalues --  4421.68781********************
           X            0.99997  -0.00780  -0.00066
           Y            0.00780   0.99997  -0.00112
           Z            0.00067   0.00112   1.00000
 This molecule is an asymmetric top.
 Rotational symmetry number  1.
 Warning -- assumption of classical behavior for rotation
           may cause significant error
 Rotational temperatures (Kelvin)      0.01959     0.00717     0.00539
 Rotational constants (GHZ):           0.40816     0.14946     0.11239
    8 imaginary frequencies ignored.
 Zero-point vibrational energy     978038.0 (Joules/Mol)
                                  233.75669 (Kcal/Mol)
 Warning -- explicit consideration of  31 degrees of freedom as
           vibrations may cause significant error
 Vibrational temperatures:    104.79   119.17   138.81   171.59   218.19
          (Kelvin)            251.96   261.59   304.17   322.98   362.13
                              396.93   421.96   437.10   450.35   453.89
                              474.01   483.22   505.02   543.07   577.13
                              608.10   615.15   644.87   683.81   715.18
                              746.36   769.74   812.81   836.57   873.78
                              884.27   912.39   929.63   999.63  1023.14
                             1088.58  1097.66  1110.86  1174.03  1220.25
                             1221.62  1349.98  1398.94  1418.32  1433.47
                             1448.41  1468.30  1473.19  1489.88  1512.16
                             1523.54  1524.98  1543.37  1547.75  1560.19
                             1576.06  1585.85  1594.43  1616.50  1620.10
                             1638.17  1641.94  1658.59  1663.35  1677.34
                             1691.81  1713.91  1720.92  1730.62  1739.87
                             1771.05  1781.45  1793.05  1814.85  1846.86
                             1849.55  1861.28  1873.71  1887.77  1895.14
                             1903.92  1916.81  1918.03  1921.54  1947.53
                             1958.70  1973.42  1982.42  1993.82  2020.54
                             2022.57  2038.65  2050.57  2091.34  2124.53
                             2135.02  2143.91  2155.93  2165.00  4697.70
                             4706.29  4711.15  4716.74  4727.38  4728.37
                             4747.49  4749.96  4757.23  4775.92  4776.99
                             4781.59  4786.32  4792.67  4800.26  4835.17
                             4870.31  4872.54  4878.26  4899.41  5639.89
                             5642.62

 Zero-point correction=                           0.372515 (Hartree/Particle)
 Thermal correction to Energy=                    0.389980
 Thermal correction to Enthalpy=                  0.390924
 Thermal correction to Gibbs Free Energy=         0.328679
 Sum of electronic and zero-point Energies=          -1297.555892
 Sum of electronic and thermal Energies=             -1297.538428
 Sum of electronic and thermal Enthalpies=           -1297.537484
 Sum of electronic and thermal Free Energies=        -1297.599729

                     E (Thermal)             CV                S
                      KCal/Mol        Cal/Mol-Kelvin    Cal/Mol-Kelvin
 Total                  244.716             73.833            131.006
 Electronic               0.000              0.000              0.000
 Translational            0.889              2.981             43.384
 Rotational               0.889              2.981             35.104
 Vibrational            242.938             67.872             52.517
 Vibration     1          0.599              1.967              4.075
 Vibration     2          0.600              1.961              3.823
 Vibration     3          0.603              1.952              3.524
 Vibration     4          0.609              1.933              3.112
 Vibration     5          0.619              1.901              2.651
 Vibration     6          0.627              1.873              2.380
 Vibration     7          0.630              1.864              2.310
 Vibration     8          0.643              1.823              2.031
 Vibration     9          0.649              1.804              1.923
 Vibration    10          0.664              1.760              1.719
 Vibration    11          0.678              1.718              1.559
 Vibration    12          0.688              1.686              1.455
 Vibration    13          0.695              1.667              1.396
 Vibration    14          0.701              1.649              1.346
 Vibration    15          0.703              1.644              1.333
 Vibration    16          0.712              1.617              1.263
 Vibration    17          0.717              1.604              1.232
 Vibration    18          0.728              1.573              1.162
 Vibration    19          0.748              1.518              1.049
 Vibration    20          0.767              1.468              0.959
 Vibration    21          0.785              1.421              0.883
 Vibration    22          0.789              1.410              0.867
 Vibration    23          0.807              1.365              0.801
 Vibration    24          0.832              1.305              0.723
 Vibration    25          0.853              1.257              0.665
 Vibration    26          0.874              1.208              0.613
 Vibration    27          0.890              1.173              0.576
 Vibration    28          0.921              1.107              0.514
 Vibration    29          0.938              1.071              0.483
 Vibration    30          0.966              1.016              0.437
 Vibration    31          0.974              1.001              0.425

 Normal termination of Gaussian 09 at Thu Jan 21 05:14:39 2016.
