 Gaussian 09, Revision B.01,
 Gaussian 09:  EM64L-G09RevB.01 12-Aug-2010

 -------------------------------------------------
 # freq=raman b3lyp/6-31+g(2d,p) geom=connectivity
 -------------------------------------------------

 -----------------
 473 5014/5014.com
 -----------------
 Symbolic Z-matrix:
 Charge =  0 Multiplicity = 1

                         Standard orientation:
 ---------------------------------------------------------------------
 Center     Atomic      Atomic             Coordinates (Angstroms)
 Number     Number       Type             X           Y           Z
 ---------------------------------------------------------------------
      1          8           0        4.979953   -0.336707   -0.650438
      2          6           0        3.759650   -0.176153    0.086708
      3          6           0        3.244885    1.147541   -0.455056
      4          8           0        4.154363    2.245996   -0.292739
      5          1           0        5.109390    1.981272   -0.422416
      6          6           0        1.887004    1.512221    0.122820
      7          8           0        1.399620    2.774097   -0.355748
      8          1           0        0.536887    3.050497    0.066822
      9          6           0        3.009377   -2.444524    0.504287
     10          8           0        4.228555   -3.188393    0.359851
     11          1           0        3.988227   -4.117045    0.640333
     12          6           0        2.681227   -1.183568   -0.278790
     13          8           0        1.356377   -0.842845    0.153549
     14          6           0        0.857097    0.448852   -0.223047
     15          8           0       -0.273392    0.566975    0.651968
     16          6           0       -1.568877    0.280413    0.105628
     17          6           0       -1.990936   -1.161773    0.336596
     18          8           0       -1.042541   -2.182713   -0.005462
     19          1           0       -0.179047   -1.679495    0.034276
     20          6           0       -3.275747   -1.471140   -0.413555
     21          8           0       -3.747927   -2.778411   -0.055655
     22          1           0       -4.630734   -2.977729   -0.480219
     23          6           0       -2.374752    2.665697    0.279282
     24          8           0       -1.100530    3.266279    0.551484
     25          1           0       -1.244727    4.253472    0.492130
     26          6           0       -2.704608    1.201715    0.521311
     27          8           0       -3.887136    0.845878   -0.209555
     28          6           0       -4.352205   -0.491380    0.026447
     29          8           0       -5.504501   -0.578256   -0.824237
     30          1           0       -6.283536   -0.752430   -0.290976
     31          1           0       -4.615512   -0.634796    1.053580
     32          1           0       -3.118730   -1.405562   -1.469938
     33          1           0       -2.199966   -1.263545    1.381033
     34          1           0       -1.470331    0.395049   -0.953640
     35          1           0       -2.892862    1.062216    1.565342
     36          1           0       -3.093687    3.228405    0.837307
     37          1           0       -2.573941    2.847871   -0.756110
     38          1           0        5.698670   -0.524879   -0.042461
     39          1           0        2.214492   -3.133275    0.307612
     40          1           0        2.942402   -2.179297    1.538728
     41          1           0        2.693710   -1.383086   -1.329950
     42          1           0        3.930151   -0.132650    1.142140
     43          1           0        3.107204    1.015050   -1.507857
     44          1           0        1.975691    1.565080    1.187828
     45          1           0        0.570832    0.482281   -1.253501
 ---------------------------------------------------------------------

 SCF Done:  E(RB3LYP) =  -1297.97834102     A.U. after   14 cycles

 The electronic state is 1-A.
 Alpha  occ. eigenvalues --  -19.19056 -19.18764 -19.18100 -19.17922 -19.17831
 Alpha  occ. eigenvalues --  -19.17177 -19.16497 -19.15588 -19.14343 -19.13616
 Alpha  occ. eigenvalues --  -19.12808 -10.30523 -10.30483 -10.26725 -10.25756
 Alpha  occ. eigenvalues --  -10.25559 -10.25523 -10.25278 -10.24337 -10.23936
 Alpha  occ. eigenvalues --  -10.23790 -10.23686 -10.23663  -1.10234  -1.09198
 Alpha  occ. eigenvalues --   -1.05850  -1.05419  -1.03954  -1.03293  -1.02899
 Alpha  occ. eigenvalues --   -1.02483  -1.01178  -1.00308  -0.99254  -0.82446
 Alpha  occ. eigenvalues --   -0.80719  -0.79364  -0.78393  -0.71827  -0.69681
 Alpha  occ. eigenvalues --   -0.67264  -0.64826  -0.63007  -0.62591  -0.61477
 Alpha  occ. eigenvalues --   -0.60309  -0.56373  -0.55764  -0.55297  -0.54643
 Alpha  occ. eigenvalues --   -0.54391  -0.53560  -0.52763  -0.51714  -0.51143
 Alpha  occ. eigenvalues --   -0.50207  -0.49911  -0.49245  -0.48460  -0.46813
 Alpha  occ. eigenvalues --   -0.46409  -0.45479  -0.44154  -0.43360  -0.43018
 Alpha  occ. eigenvalues --   -0.42499  -0.41568  -0.41186  -0.39911  -0.39237
 Alpha  occ. eigenvalues --   -0.38864  -0.38008  -0.37446  -0.36844  -0.35959
 Alpha  occ. eigenvalues --   -0.35464  -0.34588  -0.33991  -0.33604  -0.33131
 Alpha  occ. eigenvalues --   -0.32808  -0.31112  -0.30611  -0.30372  -0.29613
 Alpha  occ. eigenvalues --   -0.28984  -0.28799  -0.27943  -0.26864  -0.26690
 Alpha  occ. eigenvalues --   -0.26229
 Alpha virt. eigenvalues --   -0.02340  -0.01835  -0.01779  -0.00167   0.00233
 Alpha virt. eigenvalues --    0.01211   0.02001   0.02351   0.03117   0.03255
 Alpha virt. eigenvalues --    0.03923   0.04243   0.04668   0.05509   0.05883

 Mulliken atomic charges:
              1
     1  O   -0.541169
     2  C   -0.200120
     3  C    0.274338
     4  O   -0.572644
     5  H    0.344147
     6  C    0.036455
     7  O   -0.587588
     8  H    0.410588
     9  C   -0.312503
    10  O   -0.542793
    11  H    0.338220
    12  C    0.275085
    13  O   -0.233116
    14  C    0.263922
    15  O   -0.203591
    16  C    0.016280
    17  C    0.208227
    18  O   -0.575699
    19  H    0.406737
    20  C    0.130406
    21  O   -0.546795
    22  H    0.337041
    23  C   -0.346253
    24  O   -0.554461
    25  H    0.363127
    26  C   -0.000991
    27  O   -0.237925
    28  C    0.109600
    29  O   -0.536319
    30  H    0.332483
    31  H    0.134088
    32  H    0.129663
    33  H    0.111932
    34  H    0.105249
    35  H    0.119228
    36  H    0.144220
    37  H    0.158892
    38  H    0.339608
    39  H    0.139263
    40  H    0.141125
    41  H    0.123353
    42  H    0.128062
    43  H    0.112500
    44  H    0.124711
    45  H    0.133417
 Sum of Mulliken atomic charges =   0.00000

 Dipole moment (field-independent basis, Debye):
    X=             -2.6643    Y=              0.3577    Z=              2.5343  Tot=              3.6945
 Quadrupole moment (field-independent basis, Debye-Ang):
   XX=           -115.1249   YY=           -137.4429   ZZ=           -138.6717
   XY=            -13.4222   XZ=              0.1519   YZ=              2.0377

  Exact polarizability: 235.456   1.842 196.735   0.008  -0.426 144.006
 Approx polarizability: 276.957   2.311 257.462   0.268  -1.265 238.345

 ******    7 imaginary frequencies (negative Signs) ******

                     1                      2                      3
                     A                      A                      A
 Frequencies --  -325.6000              -289.0143              -200.7667
 Red. masses --     1.7283                 1.7787                 1.1440
 Frc consts  --     0.1080                 0.0875                 0.0272
 IR Inten    --     1.6025                 4.1358                81.1961
 Raman Activ --     0.0375                 0.0329                 0.6507

                     4                      5                      6
                     A                      A                      A
 Frequencies --  -197.1559               -63.6840               -43.1907
 Red. masses --     1.1921                 7.0257                 6.4683
 Frc consts  --     0.0273                 0.0168                 0.0071
 IR Inten    --   122.1776                 1.7603                 0.2897
 Raman Activ --     0.6922                 0.0553                 0.0528

                     7                      8                      9
                     A                      A                      A
 Frequencies --   -28.4771                36.2995                73.6828
 Red. masses --     6.2392                 6.6763                 6.3661
 Frc consts  --     0.0030                 0.0052                 0.0204
 IR Inten    --     0.7256                 0.2650                 0.9114
 Raman Activ --     0.0446                 0.0357                 0.1476

                    10                     11                     12
                     A                      A                      A
 Frequencies --    81.5813                89.2109               127.0821
 Red. masses --     7.1954                 6.9869                 5.7642
 Frc consts  --     0.0282                 0.0328                 0.0548
 IR Inten    --     1.3527                 0.8150                 0.9327
 Raman Activ --     0.1321                 0.1797                 0.0639

                    13                     14                     15
                     A                      A                      A
 Frequencies --   153.2151               179.0575               182.6366
 Red. masses --     6.1694                 6.2075                 7.5049
 Frc consts  --     0.0853                 0.1173                 0.1475
 IR Inten    --     4.6987                 2.1683                 0.8606
 Raman Activ --     0.2068                 0.2683                 1.0490

                    16                     17                     18
                     A                      A                      A
 Frequencies --   205.7886               231.4594               279.0779
 Red. masses --     6.8998                 5.9823                 4.5802
 Frc consts  --     0.1722                 0.1888                 0.2102
 IR Inten    --     0.5356                 0.7566                12.0716
 Raman Activ --     2.4314                 0.2060                 0.0594

                    19                     20                     21
                     A                      A                      A
 Frequencies --   285.3312               300.5882               305.4299
 Red. masses --     4.3380                 5.0850                 5.1296
 Frc consts  --     0.2081                 0.2707                 0.2819
 IR Inten    --     6.1477                 1.6090                 1.3867
 Raman Activ --     0.5230                 0.3459                 0.3909

                    22                     23                     24
                     A                      A                      A
 Frequencies --   313.1789               317.2717               319.7975
 Red. masses --     6.2423                 5.4825                 6.0335
 Frc consts  --     0.3607                 0.3252                 0.3636
 IR Inten    --    11.0934                 3.0164                 4.5817
 Raman Activ --     2.1163                 1.5371                 3.9797

                    25                     26                     27
                     A                      A                      A
 Frequencies --   339.6467               366.7431               380.3206
 Red. masses --     6.2972                 4.4682                 7.5319
 Frc consts  --     0.4280                 0.3541                 0.6419
 IR Inten    --     7.6293                 4.7648                 3.6955
 Raman Activ --     1.3353                 1.1515                 3.9237

                    28                     29                     30
                     A                      A                      A
 Frequencies --   413.8458               424.0325               432.4097
 Red. masses --     6.1242                 4.2197                 4.6483
 Frc consts  --     0.6180                 0.4470                 0.5121
 IR Inten    --     5.3819                 7.4642                10.1007
 Raman Activ --     2.8525                 2.9899                 1.5818

                    31                     32                     33
                     A                      A                      A
 Frequencies --   437.9047               482.4207               486.2015
 Red. masses --     6.0827                 4.6816                 4.9442
 Frc consts  --     0.6872                 0.6419                 0.6886
 IR Inten    --     2.4590                 8.4306                 3.7818
 Raman Activ --     2.6799                 4.7736                 0.7504

                    34                     35                     36
                     A                      A                      A
 Frequencies --   509.6247               530.0451               577.4553
 Red. masses --     3.3753                 3.1182                 3.4493
 Frc consts  --     0.5165                 0.5162                 0.6777
 IR Inten    --    14.2851                 4.2826                 9.9301
 Raman Activ --     4.2719                 3.3852                 0.6351

                    37                     38                     39
                     A                      A                      A
 Frequencies --   594.9173               602.5848               613.2028
 Red. masses --     2.9915                 5.7772                 6.1232
 Frc consts  --     0.6238                 1.2360                 1.3566
 IR Inten    --    38.9416                12.1228                14.3535
 Raman Activ --     0.6151                 0.5866                 0.6973

                    40                     41                     42
                     A                      A                      A
 Frequencies --   639.4796               684.9921               702.1375
 Red. masses --     3.8517                 5.9153                 1.0773
 Frc consts  --     0.9280                 1.6353                 0.3129
 IR Inten    --    21.4500                13.4979                86.2362
 Raman Activ --     1.3203                 1.4460                 1.5777

                    43                     44                     45
                     A                      A                      A
 Frequencies --   717.7609               719.6444               725.6773
 Red. masses --     1.0716                 1.0743                 1.0604
 Frc consts  --     0.3253                 0.3278                 0.3290
 IR Inten    --     9.5412               171.1025               114.5702
 Raman Activ --     1.0081                 2.4388                 1.8311

                    46                     47                     48
                     A                      A                      A
 Frequencies --   775.7413               789.6445               855.0151
 Red. masses --     1.0658                 1.0872                 1.7196
 Frc consts  --     0.3779                 0.3994                 0.7407
 IR Inten    --   109.2845                54.8352                 0.7451
 Raman Activ --     1.4895                 0.1340                 0.6791

                    49                     50                     51
                     A                      A                      A
 Frequencies --   864.3174               908.5352               941.6752
 Red. masses --     1.8082                 6.4035                 5.7128
 Frc consts  --     0.7959                 3.1142                 2.9847
 IR Inten    --     8.1312               111.5001                64.4901
 Raman Activ --     0.8663                 2.7699                 1.1052

                    52                     53                     54
                     A                      A                      A
 Frequencies --   971.8926               975.4353               988.0790
 Red. masses --     5.7985                 5.6772                 5.7741
 Frc consts  --     3.2270                 3.1826                 3.3214
 IR Inten    --    41.8080               286.9412               273.3369
 Raman Activ --     3.8449                 3.3471                 2.0569

                    55                     56                     57
                     A                      A                      A
 Frequencies --   992.5331              1007.3320              1015.6505
 Red. masses --     6.2774                 6.6783                 5.5613
 Frc consts  --     3.6435                 3.9927                 3.3800
 IR Inten    --   117.5015                 2.3653               160.2369
 Raman Activ --     0.5437                 2.0956                 2.4838

                    58                     59                     60
                     A                      A                      A
 Frequencies --  1030.4278              1044.7198              1060.9936
 Red. masses --     5.3358                 4.9386                 3.1681
 Frc consts  --     3.3380                 3.1758                 2.1013
 IR Inten    --   286.2658                22.0647                18.3396
 Raman Activ --     3.7045                 2.6262                10.3979

                    61                     62                     63
                     A                      A                      A
 Frequencies --  1066.6469              1072.4947              1078.4101
 Red. masses --     3.8096                 4.1278                 3.5140
 Frc consts  --     2.5537                 2.7974                 2.4078
 IR Inten    --     4.6215                67.8367               157.3812
 Raman Activ --     4.1739                 1.1034                19.0425

                    64                     65                     66
                     A                      A                      A
 Frequencies --  1094.9980              1100.1194              1104.6111
 Red. masses --     2.5141                 3.0329                 2.4534
 Frc consts  --     1.7760                 2.1627                 1.7638
 IR Inten    --    55.2286                30.6791                42.1498
 Raman Activ --     8.4661                 7.1920                 7.7081

                    67                     68                     69
                     A                      A                      A
 Frequencies --  1107.3664              1127.5458              1132.4131
 Red. masses --     2.4840                 2.1913                 2.1495
 Frc consts  --     1.7947                 1.6414                 1.6240
 IR Inten    --    11.8212                 7.6823                45.4595
 Raman Activ --     4.1483                 5.8255                 3.1628

                    70                     71                     72
                     A                      A                      A
 Frequencies --  1134.7243              1145.6410              1147.8587
 Red. masses --     2.8569                 2.2097                 2.1535
 Frc consts  --     2.1673                 1.7087                 1.6718
 IR Inten    --    48.8199                14.9306                15.0521
 Raman Activ --     4.4793                 1.4581                 3.1028

                    73                     74                     75
                     A                      A                      A
 Frequencies --  1159.6250              1170.1006              1188.1588
 Red. masses --     2.5297                 2.1825                 2.1172
 Frc consts  --     2.0043                 1.7606                 1.7610
 IR Inten    --    42.5577                 1.8876                14.4988
 Raman Activ --     6.2741                 1.6559                 2.1219

                    76                     77                     78
                     A                      A                      A
 Frequencies --  1207.7093              1212.0224              1224.6942
 Red. masses --     1.2907                 1.3831                 1.4085
 Frc consts  --     1.1092                 1.1971                 1.2447
 IR Inten    --    16.2006                 6.2299                 0.8967
 Raman Activ --     0.1452                 1.7842                 0.5042

                    79                     80                     81
                     A                      A                      A
 Frequencies --  1231.6048              1236.7673              1254.4551
 Red. masses --     1.1815                 1.2210                 1.2798
 Frc consts  --     1.0559                 1.1004                 1.1866
 IR Inten    --    14.1095                10.1150                22.4820
 Raman Activ --     2.5307                 1.5632                 2.0369

                    82                     83                     84
                     A                      A                      A
 Frequencies --  1262.9224              1282.0575              1289.0168
 Red. masses --     1.2148                 1.3963                 1.3859
 Frc consts  --     1.1416                 1.3522                 1.3568
 IR Inten    --     1.6589                54.3034                13.5258
 Raman Activ --     0.6122                 3.5451                 1.2204

                    85                     86                     87
                     A                      A                      A
 Frequencies --  1301.0281              1301.2912              1306.5933
 Red. masses --     1.1986                 1.2741                 1.3074
 Frc consts  --     1.1954                 1.2711                 1.3151
 IR Inten    --    61.4228                 7.7940                 2.4259
 Raman Activ --     3.8095                 6.5490                 4.7261

                    88                     89                     90
                     A                      A                      A
 Frequencies --  1315.6163              1319.3096              1329.9732
 Red. masses --     1.2780                 1.2597                 1.3212
 Frc consts  --     1.3033                 1.2919                 1.3769
 IR Inten    --    10.3961                 9.7833                 5.8705
 Raman Activ --     2.8977                 5.8524                 6.1695

                    91                     92                     93
                     A                      A                      A
 Frequencies --  1341.3220              1348.4434              1350.8383
 Red. masses --     1.2674                 1.3191                 1.2182
 Frc consts  --     1.3435                 1.4132                 1.3097
 IR Inten    --    15.5687                 7.7911                20.0801
 Raman Activ --     6.7100                 7.4290                 2.1389

                    94                     95                     96
                     A                      A                      A
 Frequencies --  1359.6429              1363.4208              1373.2287
 Red. masses --     1.2306                 1.1937                 1.3853
 Frc consts  --     1.3403                 1.3073                 1.5391
 IR Inten    --    37.6865                23.4968                10.3727
 Raman Activ --     3.6881                 4.0501                 5.3026

                    97                     98                     99
                     A                      A                      A
 Frequencies --  1380.1086              1391.7697              1403.7706
 Red. masses --     1.4380                 1.4136                 1.3669
 Frc consts  --     1.6137                 1.6133                 1.5870
 IR Inten    --    16.4828                31.1083                 1.5590
 Raman Activ --     6.4895                 0.8182                 5.7534

                   100                    101                    102
                     A                      A                      A
 Frequencies --  1409.2195              1413.7127              1452.4643
 Red. masses --     1.4851                 1.5643                 1.3949
 Frc consts  --     1.7377                 1.8420                 1.7339
 IR Inten    --     7.1077                31.2259                27.3066
 Raman Activ --     2.2186                 1.1707                 1.2096

                   103                    104                    105
                     A                      A                      A
 Frequencies --  1474.6881              1476.4326              1492.0198
 Red. masses --     1.0913                 1.0810                 1.3084
 Frc consts  --     1.3983                 1.3884                 1.7161
 IR Inten    --     8.9403                 2.3249                19.8514
 Raman Activ --     5.5129                 4.6136                 0.4250

                   106                    107                    108
                     A                      A                      A
 Frequencies --  1513.4852              1550.3326              3252.9394
 Red. masses --     1.2714                 1.1957                 1.0583
 Frc consts  --     1.7159                 1.6933                 6.5981
 IR Inten    --    34.7351                57.4100                24.3735
 Raman Activ --     1.3442                 0.8715                65.4173

                   109                    110                    111
                     A                      A                      A
 Frequencies --  3256.4570              3259.6550              3262.5717
 Red. masses --     1.0622                 1.0765                 1.0813
 Frc consts  --     6.6367                 6.7392                 6.7814
 IR Inten    --    76.1786               150.1565                 6.2631
 Raman Activ --    18.9415               168.2182                35.5529

                   112                    113                    114
                     A                      A                      A
 Frequencies --  3266.8736              3276.7533              3280.9488
 Red. masses --     1.0813                 1.0802                 1.0778
 Frc consts  --     6.7991                 6.8336                 6.8358
 IR Inten    --    23.0500                72.3760               154.6823
 Raman Activ --   113.9283                93.7376               135.1095

                   115                    116                    117
                     A                      A                      A
 Frequencies --  3283.0993              3286.9835              3289.9498
 Red. masses --     1.0806                 1.0835                 1.0857
 Frc consts  --     6.8624                 6.8969                 6.9237
 IR Inten    --   224.7378                54.8176                16.0322
 Raman Activ --   126.1168               107.9530               131.5088

                   118                    119                    120
                     A                      A                      A
 Frequencies --  3293.6229              3298.2127              3301.2930
 Red. masses --     1.0778                 1.0861                 1.0914
 Frc consts  --     6.8885                 6.9613                 7.0079
 IR Inten    --   692.1005               200.3488                14.2438
 Raman Activ --    26.4639                81.5670                18.7634

                   121                    122                    123
                     A                      A                      A
 Frequencies --  3304.4765              3309.1457              3311.0980
 Red. masses --     1.0888                 1.1018                 1.0939
 Frc consts  --     7.0047                 7.1088                 7.0662
 IR Inten    --    39.4587                50.2059               124.1845
 Raman Activ --    13.7796                50.0156                17.4668

                   124                    125                    126
                     A                      A                      A
 Frequencies --  3372.5651              3375.4901              3376.6629
 Red. masses --     1.0663                 1.0657                 1.0662
 Frc consts  --     7.1456                 7.1542                 7.1625
 IR Inten    --    38.8541                37.1509                61.6418
 Raman Activ --   144.4827               128.8969               135.5664

                   127                    128                    129
                     A                      A                      A
 Frequencies --  3377.7817              3890.4745              3891.0082
 Red. masses --     1.0675                 1.0675                 1.0675
 Frc consts  --     7.1759                 9.5193                 9.5221
 IR Inten    --    52.3892                83.6956                63.8151
 Raman Activ --   131.7912                82.9291               137.1293

 - Thermochemistry -
 -------------------
 Temperature   298.150 Kelvin.  Pressure   1.00000 Atm.
 Atom     1 has atomic number  8 and mass  15.99491

 Molecular mass:   342.11621 amu.
 Principal axes and moments of inertia in atomic units:
                           1         2         3
     Eigenvalues --  4404.48114********************
           X            0.99997  -0.00714  -0.00011
           Y            0.00714   0.99997  -0.00089
           Z            0.00012   0.00089   1.00000
 This molecule is an asymmetric top.
 Rotational symmetry number  1.
 Warning -- assumption of classical behavior for rotation
           may cause significant error
 Rotational temperatures (Kelvin)      0.01966     0.00700     0.00533
 Rotational constants (GHZ):           0.40975     0.14587     0.11102
    7 imaginary frequencies ignored.
 Zero-point vibrational energy     974373.1 (Joules/Mol)
                                  232.88077 (Kcal/Mol)
 Warning -- explicit consideration of  32 degrees of freedom as
           vibrations may cause significant error
 Vibrational temperatures:     52.23   106.01   117.38   128.35   182.84
          (Kelvin)            220.44   257.62   262.77   296.08   333.02
                              401.53   410.53   432.48   439.44   450.59
                              456.48   460.12   488.68   527.66   547.20
                              595.43   610.09   622.14   630.05   694.09
                              699.53   733.24   762.62   830.83   855.95
                              866.98   882.26   920.07   985.55  1010.22
                             1032.70  1035.41  1044.09  1116.12  1136.12
                             1230.17  1243.56  1307.18  1354.86  1398.33
                             1403.43  1421.62  1428.03  1449.32  1461.29
                             1482.55  1503.12  1526.53  1534.67  1543.08
                             1551.59  1575.46  1582.82  1589.29  1593.25
                             1622.28  1629.29  1632.61  1648.32  1651.51
                             1668.44  1683.51  1709.49  1737.62  1743.83
                             1762.06  1772.00  1779.43  1804.88  1817.06
                             1844.59  1854.61  1871.89  1872.27  1879.89
                             1892.88  1898.19  1913.53  1929.86  1940.11
                             1943.55  1956.22  1961.66  1975.77  1985.67
                             2002.44  2019.71  2027.55  2034.01  2089.77
                             2121.74  2124.25  2146.68  2177.56  2230.58
                             4680.25  4685.31  4689.91  4694.11  4700.30
                             4714.51  4720.55  4723.64  4729.23  4733.50
                             4738.78  4745.39  4749.82  4754.40  4761.12
                             4763.93  4852.36  4856.57  4858.26  4859.87
                             5597.52  5598.29

 Zero-point correction=                           0.371119 (Hartree/Particle)
 Thermal correction to Energy=                    0.389389
 Thermal correction to Enthalpy=                  0.390333
 Thermal correction to Gibbs Free Energy=         0.325634
 Sum of electronic and zero-point Energies=          -1297.607222
 Sum of electronic and thermal Energies=             -1297.588952
 Sum of electronic and thermal Enthalpies=           -1297.588008
 Sum of electronic and thermal Free Energies=        -1297.652707

                     E (Thermal)             CV                S
                      KCal/Mol        Cal/Mol-Kelvin    Cal/Mol-Kelvin
 Total                  244.345             75.965            136.172
 Electronic               0.000              0.000              0.000
 Translational            0.889              2.981             43.384
 Rotational               0.889              2.981             35.137
 Vibrational            242.568             70.004             57.650
 Vibration     1          0.594              1.982              5.451
 Vibration     2          0.599              1.966              4.052
 Vibration     3          0.600              1.962              3.852
 Vibration     4          0.602              1.957              3.677
 Vibration     5          0.611              1.926              2.990
 Vibration     6          0.619              1.899              2.632
 Vibration     7          0.629              1.868              2.338
 Vibration     8          0.630              1.863              2.301
 Vibration     9          0.640              1.832              2.081
 Vibration    10          0.653              1.793              1.868
 Vibration    11          0.679              1.712              1.539
 Vibration    12          0.683              1.701              1.502
 Vibration    13          0.693              1.673              1.414
 Vibration    14          0.696              1.663              1.387
 Vibration    15          0.701              1.649              1.345
 Vibration    16          0.704              1.641              1.324
 Vibration    17          0.706              1.636              1.311
 Vibration    18          0.720              1.596              1.214
 Vibration    19          0.740              1.541              1.093
 Vibration    20          0.750              1.512              1.038
 Vibration    21          0.777              1.440              0.913
 Vibration    22          0.786              1.418              0.878
 Vibration    23          0.793              1.400              0.851
 Vibration    24          0.798              1.388              0.833
 Vibration    25          0.839              1.289              0.704
 Vibration    26          0.842              1.281              0.694
 Vibration    27          0.865              1.229              0.634
 Vibration    28          0.885              1.184              0.587
 Vibration    29          0.934              1.080              0.490
 Vibration    30          0.953              1.043              0.458
 Vibration    31          0.961              1.026              0.445
 Vibration    32          0.973              1.004              0.428

 Normal termination of Gaussian 09 at Mon Mar 28 14:35:36 2016.
