 Gaussian 09, Revision B.01,
 Gaussian 09:  EM64L-G09RevB.01 12-Aug-2010

 ------------------------------------------------
 # freq=raman b3lyp/6-31+g(d,p) geom=connectivity
 ------------------------------------------------

 ------------
 400 9000.com
 ------------
 Symbolic Z-matrix:
 Charge =  0 Multiplicity = 1

                         Standard orientation:
 ---------------------------------------------------------------------
 Center     Atomic      Atomic             Coordinates (Angstroms)
 Number     Number       Type             X           Y           Z
 ---------------------------------------------------------------------
      1          8           0        4.919773   -0.423176   -0.589372
      2          6           0        3.704973   -0.242048    0.153249
      3          6           0        3.315180    1.163321   -0.272802
      4          8           0        4.189681    2.170037    0.259371
      5          1           0        5.105423    1.832770    0.038729
      6          6           0        1.906005    1.569605    0.125251
      7          8           0        1.405665    2.646664   -0.678998
      8          1           0        0.506584    2.949422   -0.362354
      9          6           0        2.856701   -2.554199    0.442545
     10          8           0        3.998850   -3.249238   -0.080242
     11          1           0        3.787468   -4.199174    0.151596
     12          6           0        2.569667   -1.197321   -0.178684
     13          8           0        1.365072   -0.759462    0.464645
     14          6           0        0.900621    0.458989   -0.132803
     15          8           0       -0.297071    0.676001    0.626987
     16          6           0       -1.489144    0.326099   -0.092228
     17          6           0       -1.920975   -1.106216    0.181685
     18          8           0       -0.862605   -2.014065   -0.157431
     19          1           0        0.050551   -1.646527    0.019859
     20          6           0       -3.279076   -1.551237   -0.334810
     21          8           0       -3.711860   -2.874201    0.016482
     22          1           0       -4.680953   -3.072428   -0.131415
     23          6           0       -2.410813    2.728781    0.119790
     24          8           0       -1.202189    3.498223    0.193923
     25          1           0       -1.383629    4.448823   -0.057053
     26          6           0       -2.594094    1.246860    0.399755
     27          8           0       -3.848386    0.836726   -0.163381
     28          6           0       -4.260917   -0.499519    0.155300
     29          8           0       -5.509047   -0.769365   -0.499473
     30          1           0        5.672646   -0.283113   -0.010438
     31          1           0        1.995960   -3.174122    0.302115
     32          1           0        3.002780   -2.415706    1.493440
     33          1           0        2.432000   -1.280522   -1.236524
     34          1           0        3.909394   -0.263243    1.203327
     35          1           0        3.377929    1.207167   -1.340060
     36          1           0        1.884638    1.846770    1.158509
     37          1           0        0.693974    0.336852   -1.175530
     38          1           0       -6.227264   -0.679241    0.131115
     39          1           0       -3.093116    3.221413    0.780604
     40          1           0       -2.765744    2.867184   -0.880094
     41          1           0       -2.661415    1.127177    1.460907
     42          1           0       -1.337060    0.467341   -1.141905
     43          1           0       -2.005561   -1.165550    1.246685
     44          1           0       -3.251143   -1.496779   -1.403058
     45          1           0       -4.385284   -0.592363    1.213984
 ---------------------------------------------------------------------

 SCF Done:  E(RB3LYP) =  -1297.93134404     A.U. after   13 cycles

 The electronic state is 1-A.
 Alpha  occ. eigenvalues --  -19.20225 -19.19518 -19.19229 -19.19194 -19.19006
 Alpha  occ. eigenvalues --  -19.17899 -19.17145 -19.16639 -19.16506 -19.14396
 Alpha  occ. eigenvalues --  -19.13399 -10.31290 -10.30851 -10.26962 -10.26443
 Alpha  occ. eigenvalues --  -10.26009 -10.25803 -10.25692 -10.25251 -10.24486
 Alpha  occ. eigenvalues --  -10.24402 -10.24361 -10.24272  -1.11180  -1.09188
 Alpha  occ. eigenvalues --   -1.05958  -1.05280  -1.04550  -1.03741  -1.03001
 Alpha  occ. eigenvalues --   -1.02415  -1.02017  -1.00553  -0.99678  -0.82345
 Alpha  occ. eigenvalues --   -0.80458  -0.79827  -0.78272  -0.72177  -0.69997
 Alpha  occ. eigenvalues --   -0.67580  -0.65279  -0.63326  -0.62845  -0.61798
 Alpha  occ. eigenvalues --   -0.60421  -0.56569  -0.55929  -0.55707  -0.54672
 Alpha  occ. eigenvalues --   -0.54420  -0.53658  -0.52738  -0.52114  -0.52067
 Alpha  occ. eigenvalues --   -0.50431  -0.50201  -0.49673  -0.49221  -0.46986
 Alpha  occ. eigenvalues --   -0.46386  -0.45232  -0.44282  -0.44035  -0.43236
 Alpha  occ. eigenvalues --   -0.42223  -0.41744  -0.41220  -0.40693  -0.39662
 Alpha  occ. eigenvalues --   -0.38936  -0.37829  -0.36857  -0.36842  -0.36374
 Alpha  occ. eigenvalues --   -0.35802  -0.35166  -0.34307  -0.34019  -0.33424
 Alpha  occ. eigenvalues --   -0.33147  -0.31010  -0.30750  -0.30449  -0.29863
 Alpha  occ. eigenvalues --   -0.29620  -0.28944  -0.28064  -0.27743  -0.26778
 Alpha  occ. eigenvalues --   -0.25918
 Alpha virt. eigenvalues --   -0.02419  -0.02103  -0.01908  -0.00550   0.00309
 Alpha virt. eigenvalues --    0.01210   0.02149   0.02300   0.03263   0.03463
 Alpha virt. eigenvalues --    0.03935   0.04364   0.04942   0.05441   0.05957

 Mulliken atomic charges:
              1
     1  O   -0.525574
     2  C   -0.147867
     3  C    0.176972
     4  O   -0.492328
     5  H    0.323230
     6  C   -0.017045
     7  O   -0.542915
     8  H    0.425285
     9  C   -0.035922
    10  O   -0.498157
    11  H    0.348497
    12  C    0.161027
    13  O   -0.444632
    14  C    0.026353
    15  O   -0.310478
    16  C   -0.081587
    17  C    0.159588
    18  O   -0.578713
    19  H    0.462415
    20  C   -0.040658
    21  O   -0.522704
    22  H    0.365525
    23  C   -0.131214
    24  O   -0.610669
    25  H    0.386413
    26  C    0.056094
    27  O   -0.327381
    28  C    0.281157
    29  O   -0.552808
    30  H    0.361191
    31  H    0.140291
    32  H    0.136042
    33  H    0.148639
    34  H    0.141141
    35  H    0.155876
    36  H    0.154063
    37  H    0.146391
    38  H    0.357954
    39  H    0.137645
    40  H    0.147863
    41  H    0.135617
    42  H    0.132519
    43  H    0.123853
    44  H    0.143607
    45  H    0.125406
 Sum of Mulliken atomic charges =   0.00000

 Dipole moment (field-independent basis, Debye):
    X=             -2.4025    Y=              0.9531    Z=              2.6515  Tot=              3.7028
 Quadrupole moment (field-independent basis, Debye-Ang):
   XX=           -114.3995   YY=           -136.7576   ZZ=           -140.5669
   XY=            -13.4134   XZ=             -1.1755   YZ=             -3.6550

  Exact polarizability: 227.805   3.659 193.031  -1.133  -0.311 140.628
 Approx polarizability: 265.347   4.519 247.583  -1.909   0.287 230.342

 ******    7 imaginary frequencies (negative Signs) ******

                     1                      2                      3
                     A                      A                      A
 Frequencies --  -358.8281              -354.0273              -238.6218
 Red. masses --     1.7104                 1.2046                 1.9066
 Frc consts  --     0.1298                 0.0890                 0.0640
 IR Inten    --     3.7346               130.6701                 1.4411
 Raman Activ --     0.0543                 1.2043                 0.1131

                     4                      5                      6
                     A                      A                      A
 Frequencies --  -106.8162               -80.7461               -67.7944
 Red. masses --     1.4274                 3.6916                 4.9832
 Frc consts  --     0.0096                 0.0142                 0.0135
 IR Inten    --    79.1560                16.1854                 4.9723
 Raman Activ --     0.5560                 0.1898                 0.0994

                     7                      8                      9
                     A                      A                      A
 Frequencies --   -32.5366                53.0338                62.7613
 Red. masses --     6.1438                 6.4938                 6.6756
 Frc consts  --     0.0038                 0.0108                 0.0155
 IR Inten    --     1.9026                 6.5702                 0.9656
 Raman Activ --     0.0128                 0.0780                 0.0844

                    10                     11                     12
                     A                      A                      A
 Frequencies --    70.7032                85.4961               126.0889
 Red. masses --     6.8186                 6.5448                 5.9932
 Frc consts  --     0.0201                 0.0282                 0.0561
 IR Inten    --     3.9797                 0.6762                 2.8673
 Raman Activ --     0.0849                 0.1407                 0.0925

                    13                     14                     15
                     A                      A                      A
 Frequencies --   146.2489               173.7113               181.6140
 Red. masses --     5.9749                 7.1162                 5.2292
 Frc consts  --     0.0753                 0.1265                 0.1016
 IR Inten    --     4.4194                 0.6586                 3.1887
 Raman Activ --     0.3835                 0.2915                 0.1214

                    16                     17                     18
                     A                      A                      A
 Frequencies --   197.1890               226.9128               272.0286
 Red. masses --     6.4263                 6.6228                 4.8953
 Frc consts  --     0.1472                 0.2009                 0.2134
 IR Inten    --     0.0191                 0.9547                14.4422
 Raman Activ --     2.0457                 1.1207                 0.9902

                    19                     20                     21
                     A                      A                      A
 Frequencies --   282.4972               298.0268               302.6790
 Red. masses --     5.0285                 5.0985                 5.2492
 Frc consts  --     0.2364                 0.2668                 0.2833
 IR Inten    --     4.8947                 5.4452                 1.8486
 Raman Activ --     0.1569                 1.0083                 1.0716

                    22                     23                     24
                     A                      A                      A
 Frequencies --   314.8753               317.8583               330.1062
 Red. masses --     4.5659                 5.9841                 7.3698
 Frc consts  --     0.2667                 0.3562                 0.4732
 IR Inten    --    11.7148                11.7466                 6.0585
 Raman Activ --     1.0354                 2.3652                 4.1258

                    25                     26                     27
                     A                      A                      A
 Frequencies --   342.3839               369.1624               389.3005
 Red. masses --     5.7879                 4.6341                 7.4949
 Frc consts  --     0.3998                 0.3721                 0.6692
 IR Inten    --     3.3303                 7.3825                 1.7760
 Raman Activ --     1.0481                 0.3216                 2.2316

                    28                     29                     30
                     A                      A                      A
 Frequencies --   410.3153               425.9787               432.9098
 Red. masses --     5.4492                 4.9414                 4.9057
 Frc consts  --     0.5405                 0.5283                 0.5417
 IR Inten    --     2.1484                13.1842                 4.7399
 Raman Activ --     1.7953                 6.2198                 1.0899

                    31                     32                     33
                     A                      A                      A
 Frequencies --   458.8354               479.0951               491.3475
 Red. masses --     4.7504                 4.1798                 3.6884
 Frc consts  --     0.5892                 0.5653                 0.5247
 IR Inten    --    14.9953                12.2393                 9.9651
 Raman Activ --     2.0712                 1.5813                 4.0677

                    34                     35                     36
                     A                      A                      A
 Frequencies --   504.9578               547.1575               570.6561
 Red. masses --     4.8251                 3.3021                 4.1752
 Frc consts  --     0.7249                 0.5825                 0.8011
 IR Inten    --     3.9693                 7.1022                 9.5758
 Raman Activ --     3.6050                 2.5598                 0.6577

                    37                     38                     39
                     A                      A                      A
 Frequencies --   581.2817               602.6358               627.4663
 Red. masses --     2.9390                 4.3990                 5.0928
 Frc consts  --     0.5851                 0.9413                 1.1814
 IR Inten    --    21.4729                20.0098                38.7734
 Raman Activ --     0.7556                 1.2992                 0.3463

                    40                     41                     42
                     A                      A                      A
 Frequencies --   641.6675               652.1961               681.1672
 Red. masses --     3.5607                 1.1300                 1.0808
 Frc consts  --     0.8638                 0.2832                 0.2955
 IR Inten    --    17.6979               107.4220               116.0885
 Raman Activ --     1.1341                 2.5350                 1.7193

                    43                     44                     45
                     A                      A                      A
 Frequencies --   698.5454               716.8682               745.8047
 Red. masses --     6.0242                 1.0876                 1.0881
 Frc consts  --     1.7320                 0.3293                 0.3566
 IR Inten    --    16.9235               104.7291                85.3520
 Raman Activ --     0.9381                 1.5870                 1.6846

                    46                     47                     48
                     A                      A                      A
 Frequencies --   825.4774               837.7789               856.3628
 Red. masses --     1.0842                 1.0974                 1.6570
 Frc consts  --     0.4353                 0.4538                 0.7159
 IR Inten    --    51.1165                96.8396                 5.8891
 Raman Activ --     0.7153                 0.6546                 1.1349

                    49                     50                     51
                     A                      A                      A
 Frequencies --   873.2767               949.1277               962.9931
 Red. masses --     1.6829                 5.5842                 6.4095
 Frc consts  --     0.7562                 2.9639                 3.5021
 IR Inten    --     4.4209                85.2024                17.8896
 Raman Activ --     0.8958                 2.2144                 1.1795

                    52                     53                     54
                     A                      A                      A
 Frequencies --   976.6632               998.6894              1008.9943
 Red. masses --     5.5716                 4.9050                 4.8561
 Frc consts  --     3.1313                 2.8824                 2.9128
 IR Inten    --   102.6782                96.1330               276.3258
 Raman Activ --     1.5060                 0.2424                 4.4469

                    55                     56                     57
                     A                      A                      A
 Frequencies --  1019.8947              1023.7290              1032.4681
 Red. masses --     6.4582                 5.1601                 3.3537
 Frc consts  --     3.9580                 3.1863                 2.1064
 IR Inten    --    51.7226                73.5917               179.5883
 Raman Activ --     2.6055                 2.8076                 1.4179

                    58                     59                     60
                     A                      A                      A
 Frequencies --  1047.9084              1052.5270              1064.3647
 Red. masses --     4.8210                 2.1538                 4.3776
 Frc consts  --     3.1192                 1.4058                 2.9219
 IR Inten    --   265.6823                41.2786                12.0106
 Raman Activ --     1.4557                 9.1510                 1.4255

                    61                     62                     63
                     A                      A                      A
 Frequencies --  1070.7624              1080.0256              1089.3067
 Red. masses --     4.1366                 5.2493                 4.3816
 Frc consts  --     2.7943                 3.6076                 3.0632
 IR Inten    --    96.5444               128.2036               208.8405
 Raman Activ --     3.2224                 1.0063                 3.0022

                    64                     65                     66
                     A                      A                      A
 Frequencies --  1099.3830              1106.4064              1113.2962
 Red. masses --     2.8154                 4.0982                 2.6267
 Frc consts  --     2.0049                 2.9558                 1.9182
 IR Inten    --    36.0840                12.9104                13.1783
 Raman Activ --    10.6315                24.3215                 2.0741

                    67                     68                     69
                     A                      A                      A
 Frequencies --  1123.8044              1128.4315              1130.2751
 Red. masses --     2.5619                 2.6417                 2.2947
 Frc consts  --     1.9063                 1.9819                 1.7272
 IR Inten    --    82.3348                 9.2646                 1.3497
 Raman Activ --     5.1236                 5.0626                 4.8575

                    70                     71                     72
                     A                      A                      A
 Frequencies --  1134.5893              1147.0096              1158.8825
 Red. masses --     2.0698                 2.4758                 1.7369
 Frc consts  --     1.5698                 1.9191                 1.3744
 IR Inten    --    34.0919                16.7975                 7.3505
 Raman Activ --     4.7010                 3.2907                 2.3313

                    73                     74                     75
                     A                      A                      A
 Frequencies --  1171.2197              1180.3277              1192.3709
 Red. masses --     1.7470                 2.3067                 2.1605
 Frc consts  --     1.4120                 1.8934                 1.8098
 IR Inten    --    22.9360                 7.5590                43.1743
 Raman Activ --     2.8064                 2.3604                 3.0099

                    76                     77                     78
                     A                      A                      A
 Frequencies --  1203.5095              1219.7970              1222.6680
 Red. masses --     1.2498                 1.4018                 1.4001
 Frc consts  --     1.0665                 1.2289                 1.2332
 IR Inten    --    13.4475                 5.8129                 3.7363
 Raman Activ --     3.1690                 0.1821                 3.0219

                    79                     80                     81
                     A                      A                      A
 Frequencies --  1241.4179              1246.3521              1251.9263
 Red. masses --     1.1962                 1.2696                 1.2672
 Frc consts  --     1.0861                 1.1620                 1.1702
 IR Inten    --    11.6976                10.9297                58.4482
 Raman Activ --     1.0774                 2.3442                 3.5896

                    82                     83                     84
                     A                      A                      A
 Frequencies --  1265.7048              1286.4332              1288.1384
 Red. masses --     1.1802                 1.3521                 1.3028
 Frc consts  --     1.1140                 1.3184                 1.2736
 IR Inten    --    18.1973                 4.8077                 6.2933
 Raman Activ --     2.9330                 2.8974                 1.2324

                    85                     86                     87
                     A                      A                      A
 Frequencies --  1302.1794              1304.1281              1309.6023
 Red. masses --     1.2532                 1.2982                 1.2365
 Frc consts  --     1.2520                 1.3008                 1.2495
 IR Inten    --    15.1628                27.6921                16.7789
 Raman Activ --     4.0287                 5.7038                 3.0389

                    88                     89                     90
                     A                      A                      A
 Frequencies --  1324.4719              1329.1680              1329.4550
 Red. masses --     1.2728                 1.2748                 1.3269
 Frc consts  --     1.3155                 1.3269                 1.3817
 IR Inten    --     3.1061                 4.9570                16.8943
 Raman Activ --     6.1197                 3.1501                11.6627

                    91                     92                     93
                     A                      A                      A
 Frequencies --  1330.8852              1339.1807              1345.4121
 Red. masses --     1.2898                 1.3424                 1.4151
 Frc consts  --     1.3461                 1.4184                 1.5092
 IR Inten    --    29.9728                13.6355                47.8164
 Raman Activ --     3.7344                 3.2127                 7.2930

                    94                     95                     96
                     A                      A                      A
 Frequencies --  1352.9383              1361.6084              1374.8555
 Red. masses --     1.2220                 1.1932                 1.2634
 Frc consts  --     1.3179                 1.3033                 1.4070
 IR Inten    --    47.9258                25.1696                 1.9631
 Raman Activ --     2.3555                 3.2574                 2.4275

                    97                     98                     99
                     A                      A                      A
 Frequencies --  1381.4492              1389.3549              1404.8284
 Red. masses --     1.4534                 1.6669                 1.6298
 Frc consts  --     1.6342                 1.8958                 1.8951
 IR Inten    --    14.8932                15.5674                 9.4872
 Raman Activ --    12.3048                 2.0971                 5.6167

                   100                    101                    102
                     A                      A                      A
 Frequencies --  1409.4234              1437.2541              1463.3090
 Red. masses --     1.6928                 1.3334                 1.4385
 Frc consts  --     1.9813                 1.6228                 1.8148
 IR Inten    --     3.8962                33.5922                29.2230
 Raman Activ --     4.1694                 1.6555                 0.8131

                   103                    104                    105
                     A                      A                      A
 Frequencies --  1476.5909              1480.7590              1481.3710
 Red. masses --     1.1840                 1.2254                 1.1520
 Frc consts  --     1.5210                 1.5830                 1.4894
 IR Inten    --    10.9853                 6.2046                10.6776
 Raman Activ --     4.3898                 1.8012                 5.7504

                   106                    107                    108
                     A                      A                      A
 Frequencies --  1488.7809              1502.2777              3242.9421
 Red. masses --     1.2885                 1.2436                 1.0713
 Frc consts  --     1.6827                 1.6536                 6.6382
 IR Inten    --    40.8308                15.6675               855.7560
 Raman Activ --     0.6537                 2.2717               213.2976

                   109                    110                    111
                     A                      A                      A
 Frequencies --  3263.1886              3267.4751              3268.9006
 Red. masses --     1.0589                 1.0571                 1.0802
 Frc consts  --     6.6433                 6.6497                 6.8008
 IR Inten    --    78.3698                26.6725               137.9870
 Raman Activ --    86.4231                78.0918                29.0706

                   112                    113                    114
                     A                      A                      A
 Frequencies --  3280.2006              3290.2640              3296.8408
 Red. masses --     1.0837                 1.0836                 1.0841
 Frc consts  --     6.8703                 6.9119                 6.9424
 IR Inten    --    12.4474                 7.0393                 8.2380
 Raman Activ --    79.2978               141.9870               117.3958

                   115                    116                    117
                     A                      A                      A
 Frequencies --  3300.1974              3302.9532              3307.6498
 Red. masses --     1.0864                 1.0859                 1.0874
 Frc consts  --     6.9713                 6.9795                 7.0096
 IR Inten    --     4.7762                 0.8912                58.6444
 Raman Activ --     9.9831                53.4634                 8.7331

                   118                    119                    120
                     A                      A                      A
 Frequencies --  3309.8568              3314.1105              3318.1457
 Red. masses --     1.0855                 1.0879                 1.0757
 Frc consts  --     7.0064                 7.0400                 6.9783
 IR Inten    --    69.9129                17.2512               564.0072
 Raman Activ --   103.7795                61.7804                74.8923

                   121                    122                    123
                     A                      A                      A
 Frequencies --  3321.5073              3323.1813              3328.3925
 Red. masses --     1.0999                 1.0903                 1.1012
 Frc consts  --     7.1493                 7.0941                 7.1873
 IR Inten    --    42.2699                82.4453                79.9457
 Raman Activ --    89.4811                27.2131                23.1494

                   124                    125                    126
                     A                      A                      A
 Frequencies --  3377.7590              3387.6151              3392.9746
 Red. masses --     1.0645                 1.0670                 1.0671
 Frc consts  --     7.1555                 7.2146                 7.2378
 IR Inten    --    13.1832                33.1410                65.8102
 Raman Activ --   119.9492               135.4411               147.2615

                   127                    128                    129
                     A                      A                      A
 Frequencies --  3396.7735              3914.1305              3916.8643
 Red. masses --     1.0672                 1.0678                 1.0675
 Frc consts  --     7.2551                 9.6382                 9.6492
 IR Inten    --    71.5785                61.1747                64.5791
 Raman Activ --   154.8013                96.2935               133.3137

 - Thermochemistry -
 -------------------
 Temperature   298.150 Kelvin.  Pressure   1.00000 Atm.
 Atom     1 has atomic number  8 and mass  15.99491

 Molecular mass:   342.11621 amu.
 Principal axes and moments of inertia in atomic units:
                           1         2         3
     Eigenvalues --  4487.91560********************
           X            0.99997  -0.00749  -0.00046
           Y            0.00749   0.99997  -0.00325
           Z            0.00049   0.00324   0.99999
 This molecule is an asymmetric top.
 Rotational symmetry number  1.
 Warning -- assumption of classical behavior for rotation
           may cause significant error
 Rotational temperatures (Kelvin)      0.01930     0.00721     0.00538
 Rotational constants (GHZ):           0.40213     0.15021     0.11217
    7 imaginary frequencies ignored.
 Zero-point vibrational energy     978156.9 (Joules/Mol)
                                  233.78511 (Kcal/Mol)
 Warning -- explicit consideration of  31 degrees of freedom as
           vibrations may cause significant error
 Vibrational temperatures:     76.30    90.30   101.73   123.01   181.41
          (Kelvin)            210.42   249.93   261.30   283.71   326.48
                              391.39   406.45   428.79   435.49   453.03
                              457.33   474.95   492.61   531.14   560.12
                              590.35   612.89   622.86   660.16   689.31
                              706.94   726.52   787.24   821.05   836.33
                              867.06   902.78   923.22   938.36   980.05
                             1005.05  1031.41  1073.05  1187.68  1205.38
                             1232.11  1256.45  1365.58  1385.53  1405.20
                             1436.89  1451.72  1467.40  1472.92  1485.49
                             1507.70  1514.35  1531.38  1540.59  1553.91
                             1567.27  1581.76  1591.87  1601.78  1616.90
                             1623.56  1626.21  1632.42  1650.29  1667.37
                             1685.12  1698.23  1715.55  1731.58  1755.01
                             1759.14  1786.12  1793.22  1801.24  1821.06
                             1850.89  1853.34  1873.54  1876.35  1884.22
                             1905.62  1912.37  1912.79  1914.84  1926.78
                             1935.75  1946.57  1959.05  1978.11  1987.59
                             1998.97  2021.23  2027.84  2067.89  2105.37
                             2124.48  2130.48  2131.36  2142.02  2161.44
                             4665.86  4694.99  4701.16  4703.21  4719.47
                             4733.95  4743.41  4748.24  4752.21  4758.96
                             4762.14  4768.26  4774.07  4778.90  4781.31
                             4788.81  4859.84  4874.02  4881.73  4887.19
                             5631.55  5635.49

 Zero-point correction=                           0.372560 (Hartree/Particle)
 Thermal correction to Energy=                    0.390813
 Thermal correction to Enthalpy=                  0.391757
 Thermal correction to Gibbs Free Energy=         0.327072
 Sum of electronic and zero-point Energies=          -1297.558784
 Sum of electronic and thermal Energies=             -1297.540531
 Sum of electronic and thermal Enthalpies=           -1297.539587
 Sum of electronic and thermal Free Energies=        -1297.604272

                     E (Thermal)             CV                S
                      KCal/Mol        Cal/Mol-Kelvin    Cal/Mol-Kelvin
 Total                  245.239             75.547            136.142
 Electronic               0.000              0.000              0.000
 Translational            0.889              2.981             43.384
 Rotational               0.889              2.981             35.116
 Vibrational            243.462             69.586             57.642
 Vibration     1          0.596              1.976              4.701
 Vibration     2          0.597              1.972              4.368
 Vibration     3          0.598              1.968              4.134
 Vibration     4          0.601              1.959              3.761
 Vibration     5          0.611              1.927              3.005
 Vibration     6          0.617              1.907              2.720
 Vibration     7          0.627              1.875              2.395
 Vibration     8          0.630              1.865              2.312
 Vibration     9          0.637              1.844              2.159
 Vibration    10          0.651              1.800              1.903
 Vibration    11          0.675              1.725              1.583
 Vibration    12          0.682              1.706              1.519
 Vibration    13          0.691              1.677              1.428
 Vibration    14          0.694              1.669              1.402
 Vibration    15          0.702              1.645              1.337
 Vibration    16          0.704              1.639              1.321
 Vibration    17          0.713              1.615              1.260
 Vibration    18          0.722              1.591              1.201
 Vibration    19          0.741              1.536              1.083
 Vibration    20          0.757              1.493              1.003
 Vibration    21          0.774              1.448              0.926
 Vibration    22          0.788              1.414              0.872
 Vibration    23          0.794              1.399              0.849
 Vibration    24          0.817              1.341              0.770
 Vibration    25          0.836              1.296              0.713
 Vibration    26          0.847              1.269              0.680
 Vibration    27          0.860              1.239              0.646
 Vibration    28          0.902              1.146              0.550
 Vibration    29          0.927              1.095              0.503
 Vibration    30          0.938              1.072              0.483
 Vibration    31          0.961              1.026              0.445

 Normal termination of Gaussian 09 at Tue Mar  1 16:25:44 2016.
