 Gaussian 09, Revision B.01,
 Gaussian 09:  EM64L-G09RevB.01 12-Aug-2010

 -------------------------------------------------
 # freq=raman b3lyp/6-31+g(2d,p) geom=connectivity
 -------------------------------------------------

 -----------------
 280 7737/7737.com
 -----------------
 Symbolic Z-matrix:
 Charge =  0 Multiplicity = 1

                         Standard orientation:
 ---------------------------------------------------------------------
 Center     Atomic      Atomic             Coordinates (Angstroms)
 Number     Number       Type             X           Y           Z
 ---------------------------------------------------------------------
      1          8           0        5.027441   -0.369991   -0.517714
      2          6           0        3.759456   -0.069167    0.083054
      3          6           0        3.228506    1.297204   -0.319708
      4          8           0        4.305360    2.227208   -0.133099
      5          1           0        5.145970    1.811484   -0.480929
      6          6           0        1.848916    1.592984    0.245846
      7          8           0        1.361687    2.808277   -0.340158
      8          1           0        0.450674    2.983117    0.033214
      9          6           0        3.132024   -2.615594    0.222390
     10          8           0        4.228819   -3.350321   -0.338469
     11          1           0        3.943438   -4.304403   -0.252869
     12          6           0        2.784515   -1.198851   -0.207095
     13          8           0        1.534675   -0.825193    0.389457
     14          6           0        0.941335    0.407733   -0.044057
     15          8           0       -0.294268    0.507430    0.678270
     16          6           0       -1.522106    0.194999    0.005290
     17          6           0       -2.174279   -1.069489    0.541557
     18          8           0       -1.298958   -2.201189    0.644286
     19          1           0       -0.412355   -1.901019    0.995916
     20          6           0       -3.426366   -1.507476   -0.201834
     21          8           0       -3.982719   -2.772872    0.184650
     22          1           0       -4.858728   -2.929232   -0.271193
     23          6           0       -2.188458    2.661429   -0.079584
     24          8           0       -1.224550    3.343179    0.735789
     25          1           0       -1.464972    4.312439    0.691638
     26          6           0       -2.634308    1.223986    0.129954
     27          8           0       -3.760118    0.856377   -0.680035
     28          6           0       -4.362087   -0.314258   -0.109416
     29          8           0       -5.512282   -0.597831   -0.918850
     30          1           0       -6.246462   -0.850508   -0.354285
     31          1           0        5.651942   -0.626875    0.164642
     32          1           0        2.255000   -3.206638    0.059924
     33          1           0        3.297210   -2.581432    1.279010
     34          1           0        2.637835   -1.221217   -1.266757
     35          1           0        3.909806   -0.047140    1.142209
     36          1           0        3.084635    1.246824   -1.378794
     37          1           0        1.926015    1.722691    1.305153
     38          1           0        0.739832    0.358843   -1.093774
     39          1           0       -3.077847    3.255374   -0.046185
     40          1           0       -1.818383    2.713708   -1.082186
     41          1           0       -2.971644    1.168938    1.143894
     42          1           0       -1.308888    0.052014   -1.033456
     43          1           0       -2.484354   -0.840104    1.539624
     44          1           0       -3.152861   -1.602824   -1.231885
     45          1           0       -4.649450   -0.135643    0.905679
 ---------------------------------------------------------------------

 SCF Done:  E(RB3LYP) =  -1297.97474827     A.U. after   13 cycles

 The electronic state is 1-A.
 Alpha  occ. eigenvalues --  -19.19420 -19.19364 -19.18824 -19.18303 -19.17669
 Alpha  occ. eigenvalues --  -19.16876 -19.16736 -19.16604 -19.14608 -19.14504
 Alpha  occ. eigenvalues --  -19.14353 -10.31152 -10.31025 -10.26769 -10.26186
 Alpha  occ. eigenvalues --  -10.25735 -10.25358 -10.25020 -10.24835 -10.24681
 Alpha  occ. eigenvalues --  -10.24610 -10.24304 -10.24232  -1.10141  -1.09416
 Alpha  occ. eigenvalues --   -1.05937  -1.05348  -1.04347  -1.03961  -1.03133
 Alpha  occ. eigenvalues --   -1.02880  -1.01899  -1.00826  -1.00394  -0.82961
 Alpha  occ. eigenvalues --   -0.79961  -0.79894  -0.78886  -0.72458  -0.70370
 Alpha  occ. eigenvalues --   -0.67353  -0.64983  -0.63334  -0.62487  -0.62124
 Alpha  occ. eigenvalues --   -0.60201  -0.56625  -0.55825  -0.55507  -0.55033
 Alpha  occ. eigenvalues --   -0.54087  -0.53645  -0.53320  -0.51762  -0.51480
 Alpha  occ. eigenvalues --   -0.50952  -0.50266  -0.49516  -0.48929  -0.46765
 Alpha  occ. eigenvalues --   -0.46480  -0.45667  -0.45095  -0.44058  -0.43576
 Alpha  occ. eigenvalues --   -0.42769  -0.42259  -0.41410  -0.40389  -0.39719
 Alpha  occ. eigenvalues --   -0.38521  -0.38168  -0.37838  -0.36318  -0.35758
 Alpha  occ. eigenvalues --   -0.35437  -0.34924  -0.34605  -0.34295  -0.33490
 Alpha  occ. eigenvalues --   -0.33118  -0.31421  -0.31258  -0.30778  -0.30343
 Alpha  occ. eigenvalues --   -0.29248  -0.28652  -0.28463  -0.27629  -0.27037
 Alpha  occ. eigenvalues --   -0.26701
 Alpha virt. eigenvalues --   -0.02529  -0.02304  -0.01773  -0.00276   0.00139
 Alpha virt. eigenvalues --    0.00723   0.01641   0.02069   0.03163   0.03334
 Alpha virt. eigenvalues --    0.03747   0.04177   0.04466   0.05111   0.05449

 Mulliken atomic charges:
              1
     1  O   -0.551843
     2  C   -0.054553
     3  C    0.256939
     4  O   -0.563018
     5  H    0.356233
     6  C   -0.086561
     7  O   -0.569318
     8  H    0.405069
     9  C   -0.346803
    10  O   -0.505664
    11  H    0.335047
    12  C    0.174225
    13  O   -0.280511
    14  C    0.423842
    15  O   -0.235359
    16  C    0.209755
    17  C    0.228224
    18  O   -0.552856
    19  H    0.358293
    20  C   -0.029055
    21  O   -0.547092
    22  H    0.338895
    23  C   -0.489232
    24  O   -0.542990
    25  H    0.359374
    26  C    0.060453
    27  O   -0.265861
    28  C    0.235202
    29  O   -0.559711
    30  H    0.338240
    31  H    0.344510
    32  H    0.147814
    33  H    0.140764
    34  H    0.106934
    35  H    0.113509
    36  H    0.111843
    37  H    0.130519
    38  H    0.117262
    39  H    0.143835
    40  H    0.159258
    41  H    0.115428
    42  H    0.108503
    43  H    0.105009
    44  H    0.124267
    45  H    0.131184
 Sum of Mulliken atomic charges =   0.00000

 Dipole moment (field-independent basis, Debye):
    X=             -3.4069    Y=             -0.1401    Z=              1.8177  Tot=              3.8640
 Quadrupole moment (field-independent basis, Debye-Ang):
   XX=           -121.0614   YY=           -135.6637   ZZ=           -142.1503
   XY=            -16.6114   XZ=              0.5723   YZ=              2.9459

  Exact polarizability: 231.897   1.339 199.384   1.109  -0.075 145.210
 Approx polarizability: 273.626   1.165 259.421   0.749   0.589 240.895

 ******    6 imaginary frequencies (negative Signs) ******

                     1                      2                      3
                     A                      A                      A
 Frequencies --  -326.0084              -317.2095              -271.2569
 Red. masses --     1.6205                 1.6672                 1.1988
 Frc consts  --     0.1015                 0.0988                 0.0520
 IR Inten    --     3.9187                 3.6678               125.5030
 Raman Activ --     0.0237                 0.0860                 1.1488

                     4                      5                      6
                     A                      A                      A
 Frequencies --  -152.9467               -75.7347               -51.6786
 Red. masses --     1.3059                 6.5160                 5.7891
 Frc consts  --     0.0180                 0.0220                 0.0091
 IR Inten    --    89.6681                 0.8751                 2.4735
 Raman Activ --     0.6319                 0.0835                 0.0330

                     7                      8                      9
                     A                      A                      A
 Frequencies --    41.2838                45.1449                70.1083
 Red. masses --     6.0882                 6.5789                 4.6333
 Frc consts  --     0.0061                 0.0079                 0.0134
 IR Inten    --     2.5150                 3.4512                11.8261
 Raman Activ --     0.0397                 0.1068                 0.4229

                    10                     11                     12
                     A                      A                      A
 Frequencies --    91.0918                95.3726               134.2715
 Red. masses --     7.0103                 6.5138                 6.0834
 Frc consts  --     0.0343                 0.0349                 0.0646
 IR Inten    --     1.1694                 2.7269                 0.4788
 Raman Activ --     0.0417                 0.0981                 0.2543

                    13                     14                     15
                     A                      A                      A
 Frequencies --   137.3760               164.7356               178.1659
 Red. masses --     6.3836                 6.8941                 6.9155
 Frc consts  --     0.0710                 0.1102                 0.1293
 IR Inten    --     3.2329                 0.6184                 2.6399
 Raman Activ --     0.1567                 0.3581                 1.6963

                    16                     17                     18
                     A                      A                      A
 Frequencies --   199.3050               230.8648               232.8740
 Red. masses --     5.4050                 6.5062                 4.1375
 Frc consts  --     0.1265                 0.2043                 0.1322
 IR Inten    --     0.3834                 3.9221                20.0398
 Raman Activ --     0.1019                 1.9307                 0.1344

                    19                     20                     21
                     A                      A                      A
 Frequencies --   286.2537               292.4818               298.2823
 Red. masses --     6.2825                 4.3518                 5.7963
 Frc consts  --     0.3033                 0.2193                 0.3039
 IR Inten    --     1.0623                 2.5043                 2.8483
 Raman Activ --     0.9245                 0.5538                 2.2187

                    22                     23                     24
                     A                      A                      A
 Frequencies --   304.6899               307.8377               326.9393
 Red. masses --     5.5141                 5.6612                 5.9589
 Frc consts  --     0.3016                 0.3161                 0.3753
 IR Inten    --     2.9859                 3.1557                10.1619
 Raman Activ --     0.1707                 1.3631                 2.2626

                    25                     26                     27
                     A                      A                      A
 Frequencies --   327.2429               345.5202               362.5914
 Red. masses --     5.9354                 4.9413                 6.5693
 Frc consts  --     0.3745                 0.3476                 0.5089
 IR Inten    --     1.5260                 9.8228                 1.2978
 Raman Activ --     5.6775                 1.0208                 1.0549

                    28                     29                     30
                     A                      A                      A
 Frequencies --   392.4066               407.3171               417.2925
 Red. masses --     4.0602                 6.8123                 4.9290
 Frc consts  --     0.3684                 0.6659                 0.5057
 IR Inten    --    15.4812                 2.5304                 2.8141
 Raman Activ --     2.1056                 1.9756                 2.5413

                    31                     32                     33
                     A                      A                      A
 Frequencies --   430.8386               465.6613               489.4274
 Red. masses --     5.2343                 4.1442                 5.2952
 Frc consts  --     0.5724                 0.5295                 0.7473
 IR Inten    --     0.8498                 2.6887                12.9517
 Raman Activ --     4.0217                 3.2739                 0.5525

                    34                     35                     36
                     A                      A                      A
 Frequencies --   505.8747               518.0896               552.5775
 Red. masses --     3.7933                 3.3764                 4.1468
 Frc consts  --     0.5719                 0.5340                 0.7460
 IR Inten    --    22.7542                 5.0878                20.0447
 Raman Activ --     1.9046                 5.5052                 1.1753

                    37                     38                     39
                     A                      A                      A
 Frequencies --   568.2001               578.5818               602.8275
 Red. masses --     4.9791                 4.0396                 4.3375
 Frc consts  --     0.9471                 0.7967                 0.9287
 IR Inten    --     8.9748                11.1313                27.3842
 Raman Activ --     0.7626                 0.3531                 1.0321

                    40                     41                     42
                     A                      A                      A
 Frequencies --   609.5274               670.5664               704.8940
 Red. masses --     4.0800                 5.6304                 1.0759
 Frc consts  --     0.8931                 1.4917                 0.3150
 IR Inten    --    22.0952                18.0640                83.9613
 Raman Activ --     0.6525                 0.8200                 1.2701

                    43                     44                     45
                     A                      A                      A
 Frequencies --   711.2295               733.0475               745.4860
 Red. masses --     1.0515                 1.0864                 1.0553
 Frc consts  --     0.3134                 0.3440                 0.3456
 IR Inten    --    88.4707                90.8224               108.2471
 Raman Activ --     1.8676                 1.4017                 1.6892

                    46                     47                     48
                     A                      A                      A
 Frequencies --   752.5089               833.3160               844.7095
 Red. masses --     1.0761                 1.8434                 1.6574
 Frc consts  --     0.3590                 0.7542                 0.6968
 IR Inten    --   140.5510                 3.0946                 9.8444
 Raman Activ --     3.7445                 0.9520                 0.2724

                    49                     50                     51
                     A                      A                      A
 Frequencies --   881.7365               914.4142               959.0954
 Red. masses --     1.1711                 5.3834                 4.1573
 Frc consts  --     0.5364                 2.6521                 2.2531
 IR Inten    --    56.4834               139.6519                65.2411
 Raman Activ --     0.4366                 1.9286                 1.1381

                    52                     53                     54
                     A                      A                      A
 Frequencies --   971.9372               980.0553               981.9002
 Red. masses --     6.9452                 6.4318                 5.6982
 Frc consts  --     3.8655                 3.6399                 3.2368
 IR Inten    --    69.5937                71.9853               285.2593
 Raman Activ --     1.5830                 0.7748                 0.9565

                    55                     56                     57
                     A                      A                      A
 Frequencies --   993.0433              1007.6301              1018.7419
 Red. masses --     4.2870                 6.3858                 6.1340
 Frc consts  --     2.4908                 3.8201                 3.7508
 IR Inten    --   197.7481                96.2857               145.8867
 Raman Activ --     0.9651                 6.6039                 1.8782

                    58                     59                     60
                     A                      A                      A
 Frequencies --  1023.3355              1045.9192              1062.8299
 Red. masses --     8.8755                 6.4376                 6.2491
 Frc consts  --     5.4762                 4.1493                 4.1590
 IR Inten    --   362.1870               114.9186                37.2229
 Raman Activ --     1.4684                 1.4100                 3.4097

                    61                     62                     63
                     A                      A                      A
 Frequencies --  1067.6717              1079.0722              1085.1759
 Red. masses --     3.1320                 5.4998                 3.0343
 Frc consts  --     2.1035                 3.7731                 2.1053
 IR Inten    --    23.1162                78.2577                25.1975
 Raman Activ --     7.3693                 4.4608                 7.8226

                    64                     65                     66
                     A                      A                      A
 Frequencies --  1096.9586              1103.3103              1109.8118
 Red. masses --     2.8962                 2.6218                 3.3742
 Frc consts  --     2.0533                 1.8804                 2.4486
 IR Inten    --    79.2227                 3.0555                40.8355
 Raman Activ --     5.9470                14.0274                 8.0588

                    67                     68                     69
                     A                      A                      A
 Frequencies --  1128.4862              1136.0549              1141.9970
 Red. masses --     2.3620                 2.6118                 3.3490
 Frc consts  --     1.7723                 1.9860                 2.5733
 IR Inten    --    28.9318                14.1563                27.6567
 Raman Activ --     5.7171                 2.4895                 4.4989

                    70                     71                     72
                     A                      A                      A
 Frequencies --  1145.2218              1149.6055              1168.5096
 Red. masses --     2.9003                 2.1567                 1.9621
 Frc consts  --     2.2411                 1.6793                 1.5785
 IR Inten    --    49.7273                28.8088                 8.9361
 Raman Activ --     3.9904                 6.4554                 1.7004

                    73                     74                     75
                     A                      A                      A
 Frequencies --  1175.6803              1184.5721              1203.3723
 Red. masses --     1.9901                 1.8334                 2.0881
 Frc consts  --     1.6207                 1.5157                 1.7816
 IR Inten    --    13.8290                 4.3645                 8.9964
 Raman Activ --     2.5029                 2.3957                 2.9843

                    76                     77                     78
                     A                      A                      A
 Frequencies --  1215.2527              1216.5558              1236.2172
 Red. masses --     1.3405                 1.5265                 1.2991
 Frc consts  --     1.1664                 1.3311                 1.1697
 IR Inten    --     9.3441                11.5388                 2.7409
 Raman Activ --     0.8363                 3.5085                 0.3173

                    79                     80                     81
                     A                      A                      A
 Frequencies --  1248.0217              1251.0841              1273.5902
 Red. masses --     1.2220                 1.3192                 1.2850
 Frc consts  --     1.1214                 1.2165                 1.2280
 IR Inten    --     1.5608                24.8900                24.1006
 Raman Activ --     1.4498                 0.9376                 2.4381

                    82                     83                     84
                     A                      A                      A
 Frequencies --  1277.4863              1300.4934              1302.3947
 Red. masses --     1.2551                 1.2970                 1.2583
 Frc consts  --     1.2068                 1.2924                 1.2575
 IR Inten    --     2.9092                17.6283                41.6393
 Raman Activ --     2.7788                 3.8300                 2.4513

                    85                     86                     87
                     A                      A                      A
 Frequencies --  1310.6381              1314.7528              1317.4965
 Red. masses --     1.3180                 1.2375                 1.2131
 Frc consts  --     1.3340                 1.2604                 1.2406
 IR Inten    --    27.5871                 9.6279                 7.9489
 Raman Activ --     0.6920                 3.2475                 7.9446

                    88                     89                     90
                     A                      A                      A
 Frequencies --  1324.3978              1332.2318              1352.5131
 Red. masses --     1.2498                 1.1969                 1.2564
 Frc consts  --     1.2916                 1.2516                 1.3541
 IR Inten    --    14.6269                 7.0290                15.3632
 Raman Activ --     7.3470                 7.5468                 4.0243

                    91                     92                     93
                     A                      A                      A
 Frequencies --  1356.6391              1361.0724              1364.7777
 Red. masses --     1.1806                 1.2266                 1.3003
 Frc consts  --     1.2802                 1.3388                 1.4270
 IR Inten    --    35.9708                17.7475                 2.9601
 Raman Activ --     5.6624                 2.7159                 2.9856

                    94                     95                     96
                     A                      A                      A
 Frequencies --  1367.6927              1376.2070              1387.1935
 Red. masses --     1.1487                 1.2667                 1.4953
 Frc consts  --     1.2660                 1.4135                 1.6953
 IR Inten    --    35.1881                11.1355                 5.5791
 Raman Activ --     1.9997                 7.3494                 4.7781

                    97                     98                     99
                     A                      A                      A
 Frequencies --  1393.5741              1395.9286              1407.4777
 Red. masses --     1.3827                 1.1724                 1.3716
 Frc consts  --     1.5821                 1.3460                 1.6008
 IR Inten    --    14.0283                15.5494                 4.7292
 Raman Activ --     2.6830                 7.4420                 2.7223

                   100                    101                    102
                     A                      A                      A
 Frequencies --  1409.9959              1441.0592              1458.8524
 Red. masses --     1.4208                 1.4189                 1.3952
 Frc consts  --     1.6643                 1.7361                 1.7494
 IR Inten    --    18.7382                39.8958                50.4377
 Raman Activ --     0.4772                 1.3551                 2.2319

                   103                    104                    105
                     A                      A                      A
 Frequencies --  1467.5064              1468.4260              1475.1363
 Red. masses --     1.0854                 1.0898                 1.3469
 Frc consts  --     1.3772                 1.3845                 1.7268
 IR Inten    --     8.4915                 8.2623                11.5650
 Raman Activ --     4.0194                 5.3166                 0.2283

                   106                    107                    108
                     A                      A                      A
 Frequencies --  1490.9278              1499.6815              3247.4435
 Red. masses --     1.3189                 1.2669                 1.0789
 Frc consts  --     1.7274                 1.6788                 6.7036
 IR Inten    --    22.3371                32.9212                 1.8279
 Raman Activ --     0.7043                 0.9920                 2.6996

                   109                    110                    111
                     A                      A                      A
 Frequencies --  3252.8809              3254.8427              3257.8909
 Red. masses --     1.0603                 1.0636                 1.0792
 Frc consts  --     6.6102                 6.6391                 6.7489
 IR Inten    --    23.4681                91.0427                 7.4810
 Raman Activ --    75.4681                77.7771               156.2465

                   112                    113                    114
                     A                      A                      A
 Frequencies --  3260.9285              3264.5181              3275.3322
 Red. masses --     1.0787                 1.0804                 1.0826
 Frc consts  --     6.7584                 6.7835                 6.8426
 IR Inten    --    15.9303                 7.6576                 4.4579
 Raman Activ --    49.8117                53.3742               140.4623

                   115                    116                    117
                     A                      A                      A
 Frequencies --  3277.4682              3281.0921              3285.0523
 Red. masses --     1.0821                 1.0849                 1.0835
 Frc consts  --     6.8486                 6.8813                 6.8893
 IR Inten    --    58.1377                70.5187                35.1958
 Raman Activ --    64.1078                30.9238               142.8236

                   118                    119                    120
                     A                      A                      A
 Frequencies --  3285.4863              3294.2751              3297.7870
 Red. masses --     1.0743                 1.0875                 1.0859
 Frc consts  --     6.8324                 6.9532                 6.9577
 IR Inten    --   390.8861                37.9545               125.9794
 Raman Activ --    95.9162                 5.9288                24.2517

                   121                    122                    123
                     A                      A                      A
 Frequencies --  3306.1013              3306.6595              3357.0338
 Red. masses --     1.1036                 1.1031                 1.0653
 Frc consts  --     7.1074                 7.1062                 7.0736
 IR Inten    --    41.4452                95.8211                71.7835
 Raman Activ --    32.9826                32.7909                95.7477

                   124                    125                    126
                     A                      A                      A
 Frequencies --  3360.7686              3373.4502              3376.7238
 Red. masses --     1.0663                 1.0661                 1.0676
 Frc consts  --     7.0960                 7.1482                 7.1720
 IR Inten    --   143.7400                44.7439                47.2334
 Raman Activ --   117.4377               136.1675               124.5004

                   127                    128                    129
                     A                      A                      A
 Frequencies --  3379.6649              3889.5121              3892.5646
 Red. masses --     1.0675                 1.0676                 1.0673
 Frc consts  --     7.1838                 9.5156                 9.5281
 IR Inten    --    65.8432                82.2515                74.9361
 Raman Activ --   134.8587                78.2614               105.5468

 - Thermochemistry -
 -------------------
 Temperature   298.150 Kelvin.  Pressure   1.00000 Atm.
 Atom     1 has atomic number  8 and mass  15.99491

 Molecular mass:   342.11621 amu.
 Principal axes and moments of inertia in atomic units:
                           1         2         3
     Eigenvalues --  4598.60210********************
           X            0.99997  -0.00797  -0.00046
           Y            0.00797   0.99997  -0.00062
           Z            0.00046   0.00062   1.00000
 This molecule is an asymmetric top.
 Rotational symmetry number  1.
 Warning -- assumption of classical behavior for rotation
           may cause significant error
 Rotational temperatures (Kelvin)      0.01883     0.00681     0.00518
 Rotational constants (GHZ):           0.39245     0.14195     0.10790
    6 imaginary frequencies ignored.
 Zero-point vibrational energy     974930.8 (Joules/Mol)
                                  233.01405 (Kcal/Mol)
 Warning -- explicit consideration of  34 degrees of freedom as
           vibrations may cause significant error
 Vibrational temperatures:     59.40    64.95   100.87   131.06   137.22
          (Kelvin)            193.19   197.65   237.02   256.34   286.76
                              332.16   335.05   411.85   420.82   429.16
                              438.38   442.91   470.39   470.83   497.13
                              521.69   564.58   586.04   600.39   619.88
                              669.98   704.18   727.84   745.41   795.03
                              817.51   832.45   867.33   876.97   964.79
                             1014.18  1023.30  1054.69  1072.59  1082.69
                             1198.95  1215.35  1268.62  1315.64  1379.92
                             1398.40  1410.08  1412.73  1428.77  1449.75
                             1465.74  1472.35  1504.84  1529.17  1536.14
                             1552.54  1561.32  1578.28  1587.42  1596.77
                             1623.64  1634.53  1643.08  1647.72  1654.02
                             1681.22  1691.54  1704.33  1731.38  1748.48
                             1750.35  1778.64  1795.62  1800.03  1832.41
                             1838.02  1871.12  1873.85  1885.71  1891.63
                             1895.58  1905.51  1916.78  1945.96  1951.90
                             1958.28  1963.61  1967.80  1980.05  1995.86
                             2005.04  2008.43  2025.04  2028.67  2073.36
                             2098.96  2111.41  2112.73  2122.39  2145.11
                             2157.70  4672.34  4680.16  4682.99  4687.37
                             4691.74  4696.91  4712.47  4715.54  4720.75
                             4726.45  4727.08  4739.72  4744.77  4756.74
                             4757.54  4830.02  4835.39  4853.64  4858.35
                             4862.58  5596.13  5600.53

 Zero-point correction=                           0.371332 (Hartree/Particle)
 Thermal correction to Energy=                    0.390726
 Thermal correction to Enthalpy=                  0.391670
 Thermal correction to Gibbs Free Energy=         0.324094
 Sum of electronic and zero-point Energies=          -1297.603417
 Sum of electronic and thermal Energies=             -1297.584023
 Sum of electronic and thermal Enthalpies=           -1297.583078
 Sum of electronic and thermal Free Energies=        -1297.650654

                     E (Thermal)             CV                S
                      KCal/Mol        Cal/Mol-Kelvin    Cal/Mol-Kelvin
 Total                  245.184             78.324            142.225
 Electronic               0.000              0.000              0.000
 Translational            0.889              2.981             43.384
 Rotational               0.889              2.981             35.235
 Vibrational            243.407             72.362             63.605
 Vibration     1          0.594              1.981              5.197
 Vibration     2          0.595              1.979              5.019
 Vibration     3          0.598              1.968              4.150
 Vibration     4          0.602              1.956              3.636
 Vibration     5          0.603              1.952              3.547
 Vibration     6          0.613              1.919              2.884
 Vibration     7          0.614              1.916              2.840
 Vibration     8          0.623              1.886              2.495
 Vibration     9          0.629              1.869              2.348
 Vibration    10          0.637              1.841              2.140
 Vibration    11          0.653              1.794              1.872
 Vibration    12          0.654              1.791              1.857
 Vibration    13          0.684              1.699              1.496
 Vibration    14          0.688              1.688              1.460
 Vibration    15          0.691              1.677              1.427
 Vibration    16          0.696              1.665              1.391
 Vibration    17          0.698              1.659              1.374
 Vibration    18          0.711              1.622              1.275
 Vibration    19          0.711              1.621              1.274
 Vibration    20          0.724              1.584              1.187
 Vibration    21          0.736              1.549              1.111
 Vibration    22          0.760              1.486              0.991
 Vibration    23          0.772              1.454              0.936
 Vibration    24          0.780              1.433              0.901
 Vibration    25          0.792              1.403              0.856
 Vibration    26          0.823              1.326              0.750
 Vibration    27          0.845              1.273              0.685
 Vibration    28          0.861              1.237              0.644
 Vibration    29          0.873              1.210              0.614
 Vibration    30          0.908              1.134              0.539
 Vibration    31          0.924              1.100              0.508
 Vibration    32          0.935              1.078              0.488
 Vibration    33          0.961              1.026              0.445
 Vibration    34          0.968              1.012              0.434

 Normal termination of Gaussian 09 at Mon Mar 21 22:34:43 2016.
