 Gaussian 09, Revision B.01,
 Gaussian 09:  EM64L-G09RevB.01 12-Aug-2010

 ------------------------------------------------
 # freq=raman b3lyp/6-31+g(d,p) geom=connectivity
 ------------------------------------------------

 -------------
 320 10000.com
 -------------
 Symbolic Z-matrix:
 Charge =  0 Multiplicity = 1

                         Standard orientation:
 ---------------------------------------------------------------------
 Center     Atomic      Atomic             Coordinates (Angstroms)
 Number     Number       Type             X           Y           Z
 ---------------------------------------------------------------------
      1          8           0        5.031969   -0.403046   -0.016787
      2          6           0        3.652474   -0.176179    0.306533
      3          6           0        3.226566    1.226543   -0.095184
      4          8           0        4.224385    2.133117    0.397513
      5          1           0        5.109301    1.668338    0.435799
      6          6           0        1.782458    1.628616    0.157893
      7          8           0        1.393931    2.957055   -0.222715
      8          1           0        0.475511    2.979541    0.171722
      9          6           0        2.875757   -2.588726   -0.010926
     10          8           0        4.207379   -3.113580   -0.109366
     11          1           0        4.176747   -4.067161    0.188551
     12          6           0        2.753680   -1.138768   -0.451293
     13          8           0        1.380098   -0.807292   -0.202598
     14          6           0        0.919180    0.530843   -0.441024
     15          8           0       -0.295790    0.558275    0.320876
     16          6           0       -1.553754    0.189558   -0.265077
     17          6           0       -1.902410   -1.191475    0.266088
     18          8           0       -1.040718   -2.158813   -0.350019
     19          1           0       -0.117591   -1.774583   -0.342199
     20          6           0       -3.306130   -1.648590   -0.094886
     21          8           0       -3.809857   -2.643040    0.809028
     22          1           0       -4.738045   -2.840806    0.492544
     23          6           0       -2.400398    2.619932   -0.158095
     24          8           0       -1.192317    3.297891    0.216919
     25          1           0       -1.432832    4.261505    0.096466
     26          6           0       -2.606478    1.165458    0.233645
     27          8           0       -3.894494    0.770648   -0.259071
     28          6           0       -4.247643   -0.513443    0.274941
     29          8           0       -5.435183   -0.540202   -0.528963
     30          1           0       -6.206671   -0.578899    0.041045
     31          1           0        5.536503   -0.512596    0.792561
     32          1           0        2.228423   -3.185319   -0.619150
     33          1           0        2.554061   -2.664089    1.006783
     34          1           0        2.954829   -1.065483   -1.499658
     35          1           0        3.506826   -0.305546    1.358650
     36          1           0        3.329605    1.251832   -1.159911
     37          1           0        1.641115    1.575694    1.217196
     38          1           0        0.729075    0.701646   -1.480056
     39          1           0       -3.216509    3.177012    0.252422
     40          1           0       -2.476165    2.674459   -1.224015
     41          1           0       -2.627723    1.110561    1.302024
     42          1           0       -1.498671    0.191140   -1.333657
     43          1           0       -1.774299   -1.215633    1.328116
     44          1           0       -3.400277   -1.938081   -1.120669
     45          1           0       -4.468241   -0.474239    1.321220
 ---------------------------------------------------------------------

 SCF Done:  E(RB3LYP) =  -1297.92506034     A.U. after   13 cycles

 The electronic state is 1-A.
 Alpha  occ. eigenvalues --  -19.19800 -19.19656 -19.18482 -19.18210 -19.17885
 Alpha  occ. eigenvalues --  -19.17772 -19.17479 -19.17096 -19.15050 -19.14715
 Alpha  occ. eigenvalues --  -19.14359 -10.31330 -10.30327 -10.26183 -10.25870
 Alpha  occ. eigenvalues --  -10.25841 -10.25645 -10.25448 -10.25246 -10.24722
 Alpha  occ. eigenvalues --  -10.24606 -10.24488 -10.24275  -1.10308  -1.09647
 Alpha  occ. eigenvalues --   -1.05871  -1.05646  -1.04148  -1.03973  -1.02782
 Alpha  occ. eigenvalues --   -1.01874  -1.01447  -1.00734  -1.00164  -0.82380
 Alpha  occ. eigenvalues --   -0.80556  -0.78855  -0.78394  -0.72084  -0.69951
 Alpha  occ. eigenvalues --   -0.67389  -0.64830  -0.63054  -0.62813  -0.61452
 Alpha  occ. eigenvalues --   -0.60251  -0.56734  -0.56004  -0.54780  -0.54614
 Alpha  occ. eigenvalues --   -0.54074  -0.53170  -0.52552  -0.52322  -0.51028
 Alpha  occ. eigenvalues --   -0.50793  -0.50104  -0.49438  -0.49078  -0.46733
 Alpha  occ. eigenvalues --   -0.45926  -0.45321  -0.44064  -0.43638  -0.43464
 Alpha  occ. eigenvalues --   -0.42458  -0.41915  -0.41675  -0.40312  -0.39449
 Alpha  occ. eigenvalues --   -0.38820  -0.38065  -0.37564  -0.36723  -0.35959
 Alpha  occ. eigenvalues --   -0.35403  -0.35183  -0.34150  -0.33820  -0.33431
 Alpha  occ. eigenvalues --   -0.31958  -0.31254  -0.30963  -0.30623  -0.29876
 Alpha  occ. eigenvalues --   -0.29389  -0.28877  -0.28586  -0.27161  -0.26599
 Alpha  occ. eigenvalues --   -0.26196
 Alpha virt. eigenvalues --   -0.02006  -0.01966  -0.01935  -0.00344   0.00285
 Alpha virt. eigenvalues --    0.01014   0.01783   0.02370   0.02833   0.03486
 Alpha virt. eigenvalues --    0.04123   0.04229   0.04559   0.05275   0.05811

 Mulliken atomic charges:
              1
     1  O   -0.532464
     2  C   -0.166943
     3  C    0.200688
     4  O   -0.519823
     5  H    0.352272
     6  C   -0.034586
     7  O   -0.505553
     8  H    0.436625
     9  C    0.031102
    10  O   -0.542471
    11  H    0.355690
    12  C   -0.042780
    13  O   -0.422152
    14  C    0.183071
    15  O   -0.293094
    16  C   -0.221160
    17  C    0.094775
    18  O   -0.567429
    19  H    0.429820
    20  C    0.269366
    21  O   -0.483588
    22  H    0.342429
    23  C   -0.036681
    24  O   -0.601460
    25  H    0.385137
    26  C   -0.020005
    27  O   -0.284526
    28  C    0.032913
    29  O   -0.549102
    30  H    0.352798
    31  H    0.370670
    32  H    0.143119
    33  H    0.139299
    34  H    0.140978
    35  H    0.135411
    36  H    0.119158
    37  H    0.142300
    38  H    0.134830
    39  H    0.137768
    40  H    0.148960
    41  H    0.129480
    42  H    0.143484
    43  H    0.153430
    44  H    0.169155
    45  H    0.149091
 Sum of Mulliken atomic charges =   0.00000

 Dipole moment (field-independent basis, Debye):
    X=             -2.9711    Y=             -0.8391    Z=              2.3027  Tot=              3.8515
 Quadrupole moment (field-independent basis, Debye-Ang):
   XX=           -123.2119   YY=           -138.4343   ZZ=           -136.9587
   XY=            -19.5240   XZ=              1.3122   YZ=             -1.8613

  Exact polarizability: 228.250   1.119 192.177   1.135  -1.378 141.469
 Approx polarizability: 266.623   0.265 247.858   1.194  -2.698 230.903

 ******    8 imaginary frequencies (negative Signs) ******

                     1                      2                      3
                     A                      A                      A
 Frequencies --  -340.5745              -302.0795              -279.1888
 Red. masses --     1.1600                 1.1995                 1.8286
 Frc consts  --     0.0793                 0.0645                 0.0840
 IR Inten    --   102.4102               124.3231                 1.1911
 Raman Activ --     1.5000                 0.8263                 0.0393

                     4                      5                      6
                     A                      A                      A
 Frequencies --  -232.0809               -99.8340               -75.1117
 Red. masses --     1.8429                 5.5505                 6.5835
 Frc consts  --     0.0585                 0.0326                 0.0219
 IR Inten    --     5.6625                 1.0604                 2.2144
 Raman Activ --     0.1604                 0.1397                 0.0150

                     7                      8                      9
                     A                      A                      A
 Frequencies --   -45.4312               -19.9685                14.3462
 Red. masses --     6.1153                 5.8201                 6.0872
 Frc consts  --     0.0074                 0.0014                 0.0007
 IR Inten    --     1.1836                 0.8179                 0.0989
 Raman Activ --     0.0738                 0.0412                 0.1425

                    10                     11                     12
                     A                      A                      A
 Frequencies --    34.7520                52.8115                82.5726
 Red. masses --     6.7502                 6.7960                 6.6219
 Frc consts  --     0.0048                 0.0112                 0.0266
 IR Inten    --     3.4670                 0.4697                 0.2856
 Raman Activ --     0.0489                 0.0532                 0.1792

                    13                     14                     15
                     A                      A                      A
 Frequencies --   129.0539               177.5892               192.3236
 Red. masses --     5.9507                 6.2268                 6.8905
 Frc consts  --     0.0584                 0.1157                 0.1502
 IR Inten    --     3.0138                 1.9972                 0.4059
 Raman Activ --     0.2393                 0.4848                 0.3175

                    16                     17                     18
                     A                      A                      A
 Frequencies --   213.6942               231.1937               250.9474
 Red. masses --     7.3896                 5.8492                 4.2432
 Frc consts  --     0.1988                 0.1842                 0.1574
 IR Inten    --     0.1535                 2.2669                 5.6227
 Raman Activ --     3.2054                 0.1644                 0.1895

                    19                     20                     21
                     A                      A                      A
 Frequencies --   258.8677               295.1719               307.1933
 Red. masses --     4.9972                 5.1038                 5.6791
 Frc consts  --     0.1973                 0.2620                 0.3158
 IR Inten    --     5.9578                 2.9055                 4.6929
 Raman Activ --     0.4648                 0.3914                 2.2254

                    22                     23                     24
                     A                      A                      A
 Frequencies --   316.3093               326.4367               343.1151
 Red. masses --     5.3128                 7.2053                 5.2002
 Frc consts  --     0.3132                 0.4524                 0.3607
 IR Inten    --     1.9766                 2.1570                 2.2725
 Raman Activ --     0.3882                 2.5074                 2.3569

                    25                     26                     27
                     A                      A                      A
 Frequencies --   348.4158               372.8457               381.6806
 Red. masses --     5.7858                 4.9101                 4.9322
 Frc consts  --     0.4138                 0.4022                 0.4233
 IR Inten    --    12.5775                 5.2498                 2.9054
 Raman Activ --     1.2913                 0.5541                 0.2285

                    28                     29                     30
                     A                      A                      A
 Frequencies --   398.2675               417.8958               446.6524
 Red. masses --     4.5217                 6.4819                 4.5897
 Frc consts  --     0.4226                 0.6669                 0.5395
 IR Inten    --    17.3280                 3.7150                 0.8034
 Raman Activ --     2.5383                 6.7425                 1.8460

                    31                     32                     33
                     A                      A                      A
 Frequencies --   457.1502               483.1118               493.2199
 Red. masses --     4.4898                 4.5837                 4.9347
 Frc consts  --     0.5528                 0.6303                 0.7073
 IR Inten    --     2.1862                 4.6803                14.5621
 Raman Activ --     1.4777                 5.6561                 0.9492

                    34                     35                     36
                     A                      A                      A
 Frequencies --   521.9911               535.1201               571.4157
 Red. masses --     3.3647                 3.4762                 3.5918
 Frc consts  --     0.5402                 0.5865                 0.6910
 IR Inten    --     5.3112                11.3541                 7.9725
 Raman Activ --     2.3394                 3.8965                 1.2111

                    37                     38                     39
                     A                      A                      A
 Frequencies --   592.1133               604.4977               635.8933
 Red. masses --     2.6886                 5.5953                 4.1780
 Frc consts  --     0.5554                 1.2047                 0.9954
 IR Inten    --    46.2092                 9.2659                35.5554
 Raman Activ --     0.4104                 0.5423                 1.0466

                    40                     41                     42
                     A                      A                      A
 Frequencies --   663.3030               707.7744               719.4752
 Red. masses --     6.1789                 1.0734                 1.2327
 Frc consts  --     1.6017                 0.3168                 0.3759
 IR Inten    --    13.5330                94.2302               112.2651
 Raman Activ --     0.4410                 2.0996                 2.6891

                    43                     44                     45
                     A                      A                      A
 Frequencies --   722.0018               728.0318               745.8736
 Red. masses --     1.3731                 1.9503                 1.1181
 Frc consts  --     0.4217                 0.6090                 0.3665
 IR Inten    --    25.1192                73.7469               126.6797
 Raman Activ --     2.1548                 0.8700                 1.7427

                    46                     47                     48
                     A                      A                      A
 Frequencies --   804.7742               836.6174               861.7963
 Red. masses --     1.0973                 1.0843                 1.7083
 Frc consts  --     0.4187                 0.4472                 0.7475
 IR Inten    --   109.4635                64.5843                 1.0076
 Raman Activ --     1.9146                 0.6516                 1.6936

                    49                     50                     51
                     A                      A                      A
 Frequencies --   862.6385               919.2839               960.8576
 Red. masses --     1.6621                 6.1298                 5.0735
 Frc consts  --     0.7287                 3.0521                 2.7598
 IR Inten    --     4.4956                87.1350               128.1499
 Raman Activ --     0.6386                 1.9834                 1.6895

                    52                     53                     54
                     A                      A                      A
 Frequencies --   977.3822               993.6711               996.6414
 Red. masses --     6.5060                 3.8774                 4.8944
 Frc consts  --     3.6618                 2.2557                 2.8644
 IR Inten    --    58.3822                56.4532                78.5081
 Raman Activ --     3.0371                 0.3966                 8.1216

                    55                     56                     57
                     A                      A                      A
 Frequencies --  1017.0699              1022.0067              1036.1241
 Red. masses --     4.8664                 5.1060                 6.9536
 Frc consts  --     2.9659                 3.1422                 4.3983
 IR Inten    --   270.5522                10.5229               117.0186
 Raman Activ --     1.9231                 3.0281                 3.5778

                    58                     59                     60
                     A                      A                      A
 Frequencies --  1050.2699              1060.3156              1068.7815
 Red. masses --     2.3538                 2.5939                 4.1622
 Frc consts  --     1.5298                 1.7182                 2.8012
 IR Inten    --   143.3994                31.5265               196.2989
 Raman Activ --     5.8877                 1.5673                13.5296

                    61                     62                     63
                     A                      A                      A
 Frequencies --  1078.8921              1087.1992              1095.0044
 Red. masses --     3.8477                 4.4015                 3.0526
 Frc consts  --     2.6388                 3.0653                 2.1565
 IR Inten    --    69.4469               158.6631                65.4935
 Raman Activ --     3.7734                 3.8259                 7.6549

                    64                     65                     66
                     A                      A                      A
 Frequencies --  1097.1611              1104.9562              1107.9027
 Red. masses --     2.7911                 3.8161                 2.6988
 Frc consts  --     1.9796                 2.7451                 1.9518
 IR Inten    --    34.3986                 5.1631                31.0792
 Raman Activ --     5.6586                19.1372                 7.8647

                    67                     68                     69
                     A                      A                      A
 Frequencies --  1116.9219              1125.7262              1139.8170
 Red. masses --     2.6427                 2.7558                 2.2498
 Frc consts  --     1.9424                 2.0576                 1.7221
 IR Inten    --    10.3341               138.5016                23.5980
 Raman Activ --     3.9466                 3.4875                 4.4507

                    70                     71                     72
                     A                      A                      A
 Frequencies --  1149.7996              1150.2493              1153.0852
 Red. masses --     2.3623                 2.4151                 1.8724
 Frc consts  --     1.8401                 1.8827                 1.4668
 IR Inten    --    17.1859                 9.4891                60.4345
 Raman Activ --     4.3368                 4.8012                 3.1203

                    73                     74                     75
                     A                      A                      A
 Frequencies --  1165.2619              1174.5617              1179.9213
 Red. masses --     2.6903                 1.5913                 1.6137
 Frc consts  --     2.1523                 1.2935                 1.3237
 IR Inten    --    27.0940                 3.3442                29.2279
 Raman Activ --     5.6404                 0.9216                 3.2171

                    76                     77                     78
                     A                      A                      A
 Frequencies --  1187.5814              1200.0373              1219.8983
 Red. masses --     1.5631                 1.3740                 1.2773
 Frc consts  --     1.2989                 1.1658                 1.1199
 IR Inten    --     3.4030                20.1267                 4.7124
 Raman Activ --     4.0820                 3.2036                 1.9366

                    79                     80                     81
                     A                      A                      A
 Frequencies --  1225.7644              1232.6493              1245.8098
 Red. masses --     1.3342                 1.1998                 1.4050
 Frc consts  --     1.1811                 1.0741                 1.2848
 IR Inten    --    24.1402                 8.1417                 4.4719
 Raman Activ --     2.2450                 1.4397                 1.2713

                    82                     83                     84
                     A                      A                      A
 Frequencies --  1259.3997              1271.1209              1278.5807
 Red. masses --     1.4256                 1.3421                 1.3003
 Frc consts  --     1.3322                 1.2777                 1.2524
 IR Inten    --    49.3996                 3.5533                17.9323
 Raman Activ --     2.1196                 2.6545                 1.7291

                    85                     86                     87
                     A                      A                      A
 Frequencies --  1281.2124              1289.9176              1302.9365
 Red. masses --     1.1790                 1.2587                 1.2418
 Frc consts  --     1.1403                 1.2340                 1.2421
 IR Inten    --     6.5908                 9.0236                 4.3395
 Raman Activ --     5.1722                 3.1240                 6.0253

                    88                     89                     90
                     A                      A                      A
 Frequencies --  1312.6466              1315.9453              1321.2221
 Red. masses --     1.3055                 1.3553                 1.3845
 Frc consts  --     1.3253                 1.3828                 1.4239
 IR Inten    --     4.1541                58.3608                10.2720
 Raman Activ --     5.9873                 3.4076                 2.5700

                    91                     92                     93
                     A                      A                      A
 Frequencies --  1323.2555              1340.6553              1353.9366
 Red. masses --     1.2221                 1.2887                 1.4136
 Frc consts  --     1.2607                 1.3647                 1.5268
 IR Inten    --    53.2890                 8.9285                 8.3865
 Raman Activ --     1.1039                14.4760                 8.0198

                    94                     95                     96
                     A                      A                      A
 Frequencies --  1360.6011              1366.7247              1370.6631
 Red. masses --     1.3981                 1.2910                 1.4782
 Frc consts  --     1.5249                 1.4208                 1.6363
 IR Inten    --    24.1343                 2.3971                 6.3477
 Raman Activ --     4.5953                 6.1847                 4.8283

                    97                     98                     99
                     A                      A                      A
 Frequencies --  1374.5533              1395.2427              1399.7208
 Red. masses --     1.2294                 1.6898                 1.7315
 Frc consts  --     1.3686                 1.9382                 1.9987
 IR Inten    --    65.8776                 9.6876                 6.2913
 Raman Activ --     1.6512                 6.0546                 6.3837

                   100                    101                    102
                     A                      A                      A
 Frequencies --  1428.9840              1442.7249              1461.1410
 Red. masses --     1.5162                 1.4014                 1.4545
 Frc consts  --     1.8242                 1.7186                 1.8296
 IR Inten    --    37.7589                36.0160                11.1169
 Raman Activ --     1.3737                 1.8491                 1.4805

                   103                    104                    105
                     A                      A                      A
 Frequencies --  1483.0889              1485.6102              1494.4801
 Red. masses --     1.0715                 1.0928                 1.3823
 Frc consts  --     1.3885                 1.4210                 1.8190
 IR Inten    --     4.3773                 1.9134                20.0705
 Raman Activ --     6.2941                 4.6582                 0.6753

                   106                    107                    108
                     A                      A                      A
 Frequencies --  1518.0901              1556.8194              3262.5967
 Red. masses --     1.2567                 1.2064                 1.0803
 Frc consts  --     1.7064                 1.7228                 6.7752
 IR Inten    --    44.7657                50.6976                18.1476
 Raman Activ --     1.5832                 0.8021                85.2171

                   109                    110                    111
                     A                      A                      A
 Frequencies --  3268.7012              3270.6387              3283.1781
 Red. masses --     1.0565                 1.0586                 1.0837
 Frc consts  --     6.6506                 6.6718                 6.8826
 IR Inten    --    29.3986                92.4675                13.5104
 Raman Activ --    85.6652                97.7356                34.5411

                   112                    113                    114
                     A                      A                      A
 Frequencies --  3286.9925              3295.3258              3300.4527
 Red. masses --     1.0837                 1.0835                 1.0788
 Frc consts  --     6.8982                 6.9321                 6.9240
 IR Inten    --    26.3889                43.1765                27.1415
 Raman Activ --    26.9829                85.9412               270.1863

                   115                    116                    117
                     A                      A                      A
 Frequencies --  3306.2361              3307.6392              3313.4221
 Red. masses --     1.0772                 1.0845                 1.0842
 Frc consts  --     6.9377                 6.9908                 7.0134
 IR Inten    --   141.7587                99.9840               221.2071
 Raman Activ --   106.9431                45.3576                33.7044

                   118                    119                    120
                     A                      A                      A
 Frequencies --  3314.3312              3316.8638              3321.1358
 Red. masses --     1.0833                 1.0877                 1.0767
 Frc consts  --     7.0109                 7.0502                 6.9971
 IR Inten    --   217.6239                50.3208               638.4103
 Raman Activ --    21.8120               137.6477                45.8250

                   121                    122                    123
                     A                      A                      A
 Frequencies --  3326.1884              3329.5262              3332.0245
 Red. masses --     1.1051                 1.1063                 1.0874
 Frc consts  --     7.2035                 7.2258                 7.1130
 IR Inten    --    48.5425                51.7848                44.1549
 Raman Activ --    40.6245                33.3015                27.1764

                   124                    125                    126
                     A                      A                      A
 Frequencies --  3373.6905              3379.8096              3389.4330
 Red. masses --     1.0651                 1.0658                 1.0664
 Frc consts  --     7.1423                 7.1733                 7.2179
 IR Inten    --    47.5766                27.2669                54.4204
 Raman Activ --    95.5492               138.4350               146.9653

                   127                    128                    129
                     A                      A                      A
 Frequencies --  3395.0075              3916.5588              3918.5682
 Red. masses --     1.0669                 1.0675                 1.0678
 Frc consts  --     7.2452                 9.6482                 9.6604
 IR Inten    --    35.0352                45.6907                73.1124
 Raman Activ --   174.2246               137.9531                91.2195

 - Thermochemistry -
 -------------------
 Temperature   298.150 Kelvin.  Pressure   1.00000 Atm.
 Atom     1 has atomic number  8 and mass  15.99491

 Molecular mass:   342.11621 amu.
 Principal axes and moments of inertia in atomic units:
                           1         2         3
     Eigenvalues --  4370.03736********************
           X            0.99996  -0.00846  -0.00007
           Y            0.00846   0.99996  -0.00160
           Z            0.00008   0.00160   1.00000
 This molecule is an asymmetric top.
 Rotational symmetry number  1.
 Warning -- assumption of classical behavior for rotation
           may cause significant error
 Rotational temperatures (Kelvin)      0.01982     0.00709     0.00535
 Rotational constants (GHZ):           0.41298     0.14773     0.11151
    8 imaginary frequencies ignored.
 Zero-point vibrational energy     977810.4 (Joules/Mol)
                                  233.70229 (Kcal/Mol)
 Warning -- explicit consideration of  30 degrees of freedom as
           vibrations may cause significant error
 Vibrational temperatures:     20.64    50.00    75.98   118.80   185.68
          (Kelvin)            255.51   276.71   307.46   332.64   361.06
                              372.45   424.69   441.98   455.10   469.67
                              493.67   501.29   536.44   549.15   573.02
                              601.26   642.63   657.74   695.09   709.63
                              751.03   769.92   822.14   851.92   869.74
                              914.91   954.34  1018.33  1035.16  1038.80
                             1047.47  1073.14  1157.89  1203.70  1239.93
                             1241.14  1322.64  1382.46  1406.23  1429.67
                             1433.94  1463.33  1470.44  1490.75  1511.10
                             1525.56  1537.74  1552.28  1564.24  1575.47
                             1578.57  1589.78  1594.02  1607.00  1619.67
                             1639.94  1654.30  1654.95  1659.03  1676.55
                             1689.93  1697.64  1708.66  1726.58  1755.16
                             1763.60  1773.51  1792.44  1811.99  1828.86
                             1839.59  1843.38  1855.90  1874.63  1888.60
                             1893.35  1900.94  1903.87  1928.90  1948.01
                             1957.60  1966.41  1972.08  1977.67  2007.44
                             2013.88  2055.99  2075.76  2102.25  2133.83
                             2137.46  2150.22  2184.19  2239.91  4694.14
                             4702.93  4705.71  4723.76  4729.24  4741.23
                             4748.61  4756.93  4758.95  4767.27  4768.58
                             4772.22  4778.37  4785.64  4790.44  4794.03
                             4853.98  4862.79  4876.63  4884.65  5635.05
                             5637.94

 Zero-point correction=                           0.372428 (Hartree/Particle)
 Thermal correction to Energy=                    0.390129
 Thermal correction to Enthalpy=                  0.391073
 Thermal correction to Gibbs Free Energy=         0.325771
 Sum of electronic and zero-point Energies=          -1297.552632
 Sum of electronic and thermal Energies=             -1297.534932
 Sum of electronic and thermal Enthalpies=           -1297.533988
 Sum of electronic and thermal Free Energies=        -1297.599289

                     E (Thermal)             CV                S
                      KCal/Mol        Cal/Mol-Kelvin    Cal/Mol-Kelvin
 Total                  244.809             73.445            137.439
 Electronic               0.000              0.000              0.000
 Translational            0.889              2.981             43.384
 Rotational               0.889              2.981             35.112
 Vibrational            243.032             67.483             58.943
 Vibration     1          0.593              1.986              7.294
 Vibration     2          0.594              1.983              5.538
 Vibration     3          0.596              1.976              4.709
 Vibration     4          0.600              1.961              3.829
 Vibration     5          0.612              1.924              2.960
 Vibration     6          0.628              1.870              2.354
 Vibration     7          0.634              1.851              2.205
 Vibration     8          0.644              1.820              2.012
 Vibration     9          0.653              1.793              1.870
 Vibration    10          0.663              1.761              1.724
 Vibration    11          0.668              1.748              1.669
 Vibration    12          0.689              1.683              1.444
 Vibration    13          0.697              1.660              1.377
 Vibration    14          0.703              1.642              1.329
 Vibration    15          0.710              1.623              1.278
 Vibration    16          0.722              1.589              1.198
 Vibration    17          0.726              1.578              1.173
 Vibration    18          0.744              1.528              1.068
 Vibration    19          0.751              1.509              1.032
 Vibration    20          0.765              1.474              0.969
 Vibration    21          0.781              1.431              0.899
 Vibration    22          0.806              1.368              0.806
 Vibration    23          0.815              1.345              0.774
 Vibration    24          0.839              1.288              0.702
 Vibration    25          0.849              1.265              0.675
 Vibration    26          0.877              1.201              0.605
 Vibration    27          0.890              1.172              0.576
 Vibration    28          0.928              1.093              0.502
 Vibration    29          0.950              1.049              0.463
 Vibration    30          0.963              1.022              0.442

 Normal termination of Gaussian 09 at Tue Mar  1 03:16:54 2016.
