 Gaussian 09, Revision B.01,
 Gaussian 09:  EM64L-G09RevB.01 12-Aug-2010

 -------------------------------------------------
 # freq=raman b3lyp/6-31+g(2d,p) geom=connectivity
 -------------------------------------------------

 -------------------
 473 10000/10000.com
 -------------------
 Symbolic Z-matrix:
 Charge =  0 Multiplicity = 1

                         Standard orientation:
 ---------------------------------------------------------------------
 Center     Atomic      Atomic             Coordinates (Angstroms)
 Number     Number       Type             X           Y           Z
 ---------------------------------------------------------------------
      1          8           0       -5.007653   -0.379915    0.227222
      2          6           0       -3.694119   -0.153987   -0.304141
      3          6           0       -3.308647    1.238954    0.167294
      4          8           0       -4.202473    2.217133   -0.381837
      5          1           0       -5.094118    1.946428   -0.019619
      6          6           0       -1.883845    1.573328   -0.244136
      7          8           0       -1.459380    2.834074    0.294481
      8          1           0       -0.490983    2.982466    0.097208
      9          6           0       -2.954978   -2.624695    0.014695
     10          8           0       -4.162786   -3.305979    0.384321
     11          1           0       -3.954820   -4.273018    0.241593
     12          6           0       -2.725619   -1.151234    0.310360
     13          8           0       -1.394865   -0.753892   -0.051726
     14          6           0       -0.923148    0.545710    0.331626
     15          8           0        0.283243    0.679361   -0.434781
     16          6           0        1.528080    0.189691    0.086117
     17          6           0        1.949137   -1.161460   -0.469609
     18          8           0        0.993908   -2.172043   -0.115833
     19          1           0        0.087868   -1.845520   -0.387965
     20          6           0        3.344016   -1.529358    0.007991
     21          8           0        3.856423   -2.733186   -0.581685
     22          1           0        4.716309   -2.967820   -0.128925
     23          6           0        2.365597    2.564335    0.214410
     24          8           0        1.213459    3.309515   -0.206368
     25          1           0        1.385827    4.293443   -0.172499
     26          6           0        2.655268    1.148898   -0.258305
     27          8           0        3.935539    0.877771    0.331725
     28          6           0        4.367025   -0.412344   -0.124750
     29          8           0        5.459599   -0.608524    0.783734
     30          1           0        6.256885   -0.807127    0.287255
     31          1           0        4.726598   -0.350806   -1.130643
     32          1           0        3.253908   -1.726455    1.055814
     33          1           0        1.973318   -1.087774   -1.536795
     34          1           0        1.450534    0.115729    1.150737
     35          1           0        2.770113    1.163742   -1.322020
     36          1           0        3.219837    3.152623   -0.048442
     37          1           0       -5.618628   -0.553201   -0.492696
     38          1           0       -2.149932   -3.157894    0.475670
     39          1           0       -2.847946   -2.744468   -1.043180
     40          1           0       -2.804090   -1.038761    1.371535
     41          1           0       -3.691555   -0.216300   -1.372322
     42          1           0       -3.375607    1.271908    1.234689
     43          1           0       -1.805725    1.587709   -1.311184
     44          1           0       -0.768388    0.648154    1.385407
     45          1           0        2.327892    2.525409    1.283037
 ---------------------------------------------------------------------

 SCF Done:  E(RB3LYP) =  -1297.99152354     A.U. after   13 cycles

 The electronic state is 1-A.
 Alpha  occ. eigenvalues --  -19.18374 -19.18185 -19.17997 -19.17820 -19.17814
 Alpha  occ. eigenvalues --  -19.16744 -19.16630 -19.16497 -19.14986 -19.13836
 Alpha  occ. eigenvalues --  -19.12715 -10.30672 -10.30606 -10.25791 -10.25577
 Alpha  occ. eigenvalues --  -10.25527 -10.25169 -10.24770 -10.24718 -10.24523
 Alpha  occ. eigenvalues --  -10.24287 -10.23780 -10.23685  -1.09907  -1.09442
 Alpha  occ. eigenvalues --   -1.05247  -1.04768  -1.03707  -1.03591  -1.02963
 Alpha  occ. eigenvalues --   -1.02621  -1.01728  -1.00700  -0.99574  -0.82492
 Alpha  occ. eigenvalues --   -0.79964  -0.79223  -0.78234  -0.71879  -0.69828
 Alpha  occ. eigenvalues --   -0.67393  -0.64716  -0.63143  -0.62331  -0.61247
 Alpha  occ. eigenvalues --   -0.60119  -0.56514  -0.55704  -0.54882  -0.54799
 Alpha  occ. eigenvalues --   -0.53606  -0.53166  -0.52709  -0.51956  -0.51022
 Alpha  occ. eigenvalues --   -0.50772  -0.49930  -0.49236  -0.48387  -0.46549
 Alpha  occ. eigenvalues --   -0.45598  -0.44878  -0.44727  -0.43730  -0.43302
 Alpha  occ. eigenvalues --   -0.42479  -0.41765  -0.40808  -0.40597  -0.39658
 Alpha  occ. eigenvalues --   -0.38307  -0.38148  -0.37132  -0.36255  -0.36232
 Alpha  occ. eigenvalues --   -0.35289  -0.35240  -0.34424  -0.33644  -0.32986
 Alpha  occ. eigenvalues --   -0.32555  -0.31020  -0.30595  -0.30362  -0.29912
 Alpha  occ. eigenvalues --   -0.29170  -0.28759  -0.28660  -0.27387  -0.26481
 Alpha  occ. eigenvalues --   -0.26124
 Alpha virt. eigenvalues --   -0.01965  -0.01722  -0.01715  -0.00102   0.00254
 Alpha virt. eigenvalues --    0.00917   0.01822   0.02174   0.02855   0.03527
 Alpha virt. eigenvalues --    0.03771   0.04329   0.04714   0.05318   0.05613

 Mulliken atomic charges:
              1
     1  O   -0.554346
     2  C    0.032959
     3  C    0.110983
     4  O   -0.551458
     5  H    0.341565
     6  C    0.106377
     7  O   -0.597077
     8  H    0.419305
     9  C   -0.251540
    10  O   -0.509916
    11  H    0.334950
    12  C    0.155451
    13  O   -0.228709
    14  C    0.124775
    15  O   -0.208772
    16  C    0.180867
    17  C    0.054990
    18  O   -0.546948
    19  H    0.373787
    20  C    0.149428
    21  O   -0.541642
    22  H    0.333207
    23  C   -0.264469
    24  O   -0.585018
    25  H    0.363741
    26  C   -0.051433
    27  O   -0.223231
    28  C    0.037589
    29  O   -0.522579
    30  H    0.330214
    31  H    0.132151
    32  H    0.136242
    33  H    0.120514
    34  H    0.117272
    35  H    0.122463
    36  H    0.142428
    37  H    0.336936
    38  H    0.151635
    39  H    0.138692
    40  H    0.111780
    41  H    0.121513
    42  H    0.125867
    43  H    0.134082
    44  H    0.140684
    45  H    0.154689
 Sum of Mulliken atomic charges =   0.00000

 Dipole moment (field-independent basis, Debye):
    X=              2.9106    Y=             -0.6014    Z=             -1.5201  Tot=              3.3383
 Quadrupole moment (field-independent basis, Debye-Ang):
   XX=           -119.3414   YY=           -136.3758   ZZ=           -138.9735
   XY=             13.6497   XZ=              0.2128   YZ=              0.8741

  Exact polarizability: 234.252  -1.718 198.224   0.813   1.136 144.061
 Approx polarizability: 275.186  -0.949 257.526   0.453   1.293 239.434

 ******    6 imaginary frequencies (negative Signs) ******

                     1                      2                      3
                     A                      A                      A
 Frequencies --  -315.7121              -281.8420              -221.1386
 Red. masses --     1.7034                 1.7347                 1.2074
 Frc consts  --     0.1000                 0.0812                 0.0348
 IR Inten    --     4.7830                 2.3389                70.3721
 Raman Activ --     0.0480                 0.0284                 1.1080

                     4                      5                      6
                     A                      A                      A
 Frequencies --  -218.8293               -66.9511               -53.7091
 Red. masses --     1.1730                 6.7438                 6.0064
 Frc consts  --     0.0331                 0.0178                 0.0102
 IR Inten    --   138.5297                 0.3873                 1.2638
 Raman Activ --     0.6138                 0.0417                 0.0565

                     7                      8                      9
                     A                      A                      A
 Frequencies --     3.0446                30.2296                61.7407
 Red. masses --     6.4129                 6.3731                 6.1974
 Frc consts  --     0.0000                 0.0034                 0.0139
 IR Inten    --     1.8663                 0.6886                 0.3958
 Raman Activ --     0.0439                 0.0262                 0.1178

                    10                     11                     12
                     A                      A                      A
 Frequencies --    78.5299                94.1890               102.4158
 Red. masses --     6.5543                 6.1955                 6.0389
 Frc consts  --     0.0238                 0.0324                 0.0373
 IR Inten    --     1.2864                 0.7797                 3.7538
 Raman Activ --     0.2140                 0.1605                 0.0431

                    13                     14                     15
                     A                      A                      A
 Frequencies --   143.6839               168.0726               187.7464
 Red. masses --     6.2835                 6.2349                 7.8251
 Frc consts  --     0.0764                 0.1038                 0.1625
 IR Inten    --     3.1706                 1.7652                 1.6983
 Raman Activ --     0.3567                 0.1946                 0.4065

                    16                     17                     18
                     A                      A                      A
 Frequencies --   199.3377               234.0731               253.3982
 Red. masses --     7.2388                 5.9956                 4.2011
 Frc consts  --     0.1695                 0.1935                 0.1589
 IR Inten    --     0.4386                 0.9716                16.3235
 Raman Activ --     2.6873                 0.6851                 0.1596

                    19                     20                     21
                     A                      A                      A
 Frequencies --   275.9502               292.4934               296.5016
 Red. masses --     4.8415                 4.9941                 5.1117
 Frc consts  --     0.2172                 0.2517                 0.2648
 IR Inten    --     4.2681                 1.2656                 0.5012
 Raman Activ --     0.3646                 0.2501                 0.3422

                    22                     23                     24
                     A                      A                      A
 Frequencies --   304.8698               318.3015               322.5216
 Red. masses --     6.6713                 6.6242                 5.1429
 Frc consts  --     0.3653                 0.3954                 0.3152
 IR Inten    --     5.1520                 1.5645                 3.3837
 Raman Activ --     1.5583                 3.6702                 1.0372

                    25                     26                     27
                     A                      A                      A
 Frequencies --   338.6945               358.2656               381.5909
 Red. masses --     6.6512                 4.5469                 4.5872
 Frc consts  --     0.4495                 0.3439                 0.3935
 IR Inten    --     6.9293                 5.4072                 3.4868
 Raman Activ --     4.5951                 0.0534                 0.1039

                    28                     29                     30
                     A                      A                      A
 Frequencies --   405.5867               421.7586               430.6547
 Red. masses --     5.1397                 6.0133                 5.8662
 Frc consts  --     0.4981                 0.6302                 0.6410
 IR Inten    --    16.4265                 4.1936                 2.5854
 Raman Activ --     1.7861                 9.7441                 1.6956

                    31                     32                     33
                     A                      A                      A
 Frequencies --   443.7331               478.6461               481.9540
 Red. masses --     4.4116                 4.9777                 3.9241
 Frc consts  --     0.5118                 0.6719                 0.5370
 IR Inten    --     1.1611                 2.9733                14.2278
 Raman Activ --     2.0088                 2.4022                 1.4236

                    34                     35                     36
                     A                      A                      A
 Frequencies --   511.1056               526.6092               567.6124
 Red. masses --     4.1607                 3.0624                 3.3122
 Frc consts  --     0.6404                 0.5004                 0.6287
 IR Inten    --     8.7025                 8.0616                 9.0708
 Raman Activ --     2.0216                 3.4147                 1.1293

                    37                     38                     39
                     A                      A                      A
 Frequencies --   588.3119               610.4427               624.7963
 Red. masses --     3.2471                 6.4088                 4.1600
 Frc consts  --     0.6622                 1.4071                 0.9568
 IR Inten    --    46.9688                 4.2179                 1.7950
 Raman Activ --     0.6006                 0.4912                 0.1588

                    40                     41                     42
                     A                      A                      A
 Frequencies --   637.1509               681.0736               686.5376
 Red. masses --     4.8348                 2.1657                 1.5234
 Frc consts  --     1.1564                 0.5919                 0.4231
 IR Inten    --    43.3197                61.3720                57.7459
 Raman Activ --     1.2434                 0.8073                 2.2969

                    43                     44                     45
                     A                      A                      A
 Frequencies --   710.3842               729.7244               763.1031
 Red. masses --     1.0754                 1.0683                 1.0916
 Frc consts  --     0.3197                 0.3352                 0.3745
 IR Inten    --    97.2532                91.6591               153.6774
 Raman Activ --     1.5447                 1.7107                 3.2645

                    46                     47                     48
                     A                      A                      A
 Frequencies --   774.1082               840.6153               846.5847
 Red. masses --     1.0932                 1.2881                 1.7862
 Frc consts  --     0.3860                 0.5363                 0.7543
 IR Inten    --    85.2421                43.1167                 8.5566
 Raman Activ --     1.5817                 0.5223                 0.8456

                    49                     50                     51
                     A                      A                      A
 Frequencies --   863.8931               903.4668               955.4666
 Red. masses --     1.4324                 4.7881                 5.1598
 Frc consts  --     0.6299                 2.3027                 2.7753
 IR Inten    --    33.5217                98.1870                38.9092
 Raman Activ --     0.8373                 1.9404                 1.1447

                    52                     53                     54
                     A                      A                      A
 Frequencies --   969.6880               975.6644               991.1795
 Red. masses --     5.4394                 5.7273                 5.5758
 Frc consts  --     3.0135                 3.2122                 3.2274
 IR Inten    --    75.6959                87.3942               152.0562
 Raman Activ --     2.0724                 3.1357                 1.7176

                    55                     56                     57
                     A                      A                      A
 Frequencies --   998.3796              1010.2089              1016.8580
 Red. masses --     7.0495                 6.7526                 5.6014
 Frc consts  --     4.1400                 4.0601                 3.4125
 IR Inten    --   382.9926                 0.8195               172.5106
 Raman Activ --     2.8232                 1.9068                 2.2474

                    58                     59                     60
                     A                      A                      A
 Frequencies --  1035.1153              1056.2809              1062.1123
 Red. masses --     5.5799                 3.4111                 5.4566
 Frc consts  --     3.5226                 2.2424                 3.6267
 IR Inten    --   293.7823               121.6599                14.0125
 Raman Activ --     2.0966                10.1025                 1.6067

                    61                     62                     63
                     A                      A                      A
 Frequencies --  1069.5963              1073.4262              1076.5385
 Red. masses --     3.5975                 5.5204                 3.7854
 Frc consts  --     2.4249                 3.7477                 2.5848
 IR Inten    --    27.4732                12.8270                71.4158
 Raman Activ --     2.9405                 0.2343                28.3014

                    64                     65                     66
                     A                      A                      A
 Frequencies --  1089.9726              1104.9471              1112.8200
 Red. masses --     2.4116                 2.7023                 2.7928
 Frc consts  --     1.6881                 1.9438                 2.0377
 IR Inten    --    60.7014                21.9309                 7.7115
 Raman Activ --     0.9630                 6.5975                 6.6824

                    67                     68                     69
                     A                      A                      A
 Frequencies --  1115.5242              1118.8278              1129.6879
 Red. masses --     2.5467                 3.7245                 2.9198
 Frc consts  --     1.8672                 2.7469                 2.1954
 IR Inten    --    10.7341                33.1783                48.7421
 Raman Activ --     8.7819                 5.0231                 7.6066

                    70                     71                     72
                     A                      A                      A
 Frequencies --  1136.5351              1144.8169              1154.4024
 Red. masses --     2.2197                 2.0020                 1.9265
 Frc consts  --     1.6894                 1.5459                 1.5127
 IR Inten    --   100.3678                 7.1986                 6.3857
 Raman Activ --     6.0259                 2.4651                 6.5899

                    73                     74                     75
                     A                      A                      A
 Frequencies --  1162.8908              1177.8081              1179.1963
 Red. masses --     1.8926                 1.7229                 1.7866
 Frc consts  --     1.5080                 1.4082                 1.4637
 IR Inten    --     3.8508                10.1250                 7.0774
 Raman Activ --     1.5942                 1.5335                 2.1068

                    76                     77                     78
                     A                      A                      A
 Frequencies --  1196.3680              1204.7300              1208.9817
 Red. masses --     1.2835                 1.3563                 1.3758
 Frc consts  --     1.0824                 1.1598                 1.1848
 IR Inten    --    13.4674                14.9648                 4.9510
 Raman Activ --     0.3728                 1.8739                 1.5262

                    79                     80                     81
                     A                      A                      A
 Frequencies --  1218.7976              1235.8116              1251.9785
 Red. masses --     1.1678                 1.2987                 1.2209
 Frc consts  --     1.0221                 1.1686                 1.1275
 IR Inten    --     4.1982                 5.3239                10.6765
 Raman Activ --     2.2166                 1.3482                 0.7711

                    82                     83                     84
                     A                      A                      A
 Frequencies --  1261.6703              1286.7680              1293.3991
 Red. masses --     1.2843                 1.3425                 1.3368
 Frc consts  --     1.2045                 1.3097                 1.3176
 IR Inten    --     7.3726                24.6432                13.6582
 Raman Activ --     0.5558                 1.3818                 2.6304

                    85                     86                     87
                     A                      A                      A
 Frequencies --  1297.8311              1302.1905              1307.5213
 Red. masses --     1.3387                 1.2986                 1.2442
 Frc consts  --     1.3285                 1.2974                 1.2533
 IR Inten    --     2.6031                25.0298                13.6968
 Raman Activ --     2.4866                 0.2401                 3.7873

                    88                     89                     90
                     A                      A                      A
 Frequencies --  1309.2341              1315.8961              1327.7270
 Red. masses --     1.2679                 1.2761                 1.3865
 Frc consts  --     1.2804                 1.3019                 1.4401
 IR Inten    --    12.8370                 9.0416                22.6375
 Raman Activ --     9.1874                11.2026                 6.0779

                    91                     92                     93
                     A                      A                      A
 Frequencies --  1335.3384              1338.2674              1353.2839
 Red. masses --     1.2900                 1.2439                 1.1682
 Frc consts  --     1.3553                 1.3126                 1.2605
 IR Inten    --    52.0789                20.5396                38.7856
 Raman Activ --     3.2989                 3.5691                 1.3558

                    94                     95                     96
                     A                      A                      A
 Frequencies --  1354.8144              1358.6292              1372.2558
 Red. masses --     1.1722                 1.4195                 1.3713
 Frc consts  --     1.2677                 1.5438                 1.5214
 IR Inten    --    48.2713                10.0074                 2.8390
 Raman Activ --     2.0529                10.1878                 6.7263

                    97                     98                     99
                     A                      A                      A
 Frequencies --  1372.6826              1393.2464              1397.4443
 Red. masses --     1.4177                 1.5600                 1.6178
 Frc consts  --     1.5738                 1.7842                 1.8614
 IR Inten    --    11.1239                 3.1883                 7.9606
 Raman Activ --     4.5822                 4.6827                 3.6490

                   100                    101                    102
                     A                      A                      A
 Frequencies --  1438.1513              1451.9075              1466.0274
 Red. masses --     1.4039                 1.3338                 1.3480
 Frc consts  --     1.7108                 1.6566                 1.7069
 IR Inten    --    31.2290                25.2946                19.2579
 Raman Activ --     1.1841                 1.4269                 0.7174

                   103                    104                    105
                     A                      A                      A
 Frequencies --  1472.1033              1474.4114              1489.7229
 Red. masses --     1.0972                 1.0806                 1.3622
 Frc consts  --     1.4010                 1.3840                 1.7811
 IR Inten    --     3.4419                 4.5816                29.5647
 Raman Activ --     4.0177                 5.2004                 1.3154

                   106                    107                    108
                     A                      A                      A
 Frequencies --  1500.8733              1502.0092              3251.8072
 Red. masses --     1.2769                 1.3026                 1.0589
 Frc consts  --     1.6947                 1.7314                 6.5968
 IR Inten    --     7.2244                68.7540                24.4676
 Raman Activ --     2.8330                 0.2724               100.8629

                   109                    110                    111
                     A                      A                      A
 Frequencies --  3256.6631              3266.7338              3267.5229
 Red. masses --     1.0612                 1.0810                 1.0819
 Frc consts  --     6.6310                 6.7966                 6.8059
 IR Inten    --   235.1175                24.3004                18.6526
 Raman Activ --    27.4243                26.9328                16.7744

                   112                    113                    114
                     A                      A                      A
 Frequencies --  3271.6604              3272.8352              3278.5433
 Red. masses --     1.0711                 1.0785                 1.0833
 Frc consts  --     6.7549                 6.8066                 6.8603
 IR Inten    --   312.8056               135.3763                 3.0265
 Raman Activ --   425.9391                78.7414                65.1058

                   115                    116                    117
                     A                      A                      A
 Frequencies --  3281.2113              3287.3968              3293.5974
 Red. masses --     1.0829                 1.0861                 1.0847
 Frc consts  --     6.8694                 6.9156                 6.9326
 IR Inten    --    18.1269                 3.4033                 4.3507
 Raman Activ --   102.9062                34.0222                22.4075

                   118                    119                    120
                     A                      A                      A
 Frequencies --  3297.4090              3299.3017              3303.3969
 Red. masses --     1.0854                 1.0898                 1.0804
 Frc consts  --     6.9534                 6.9892                 6.9463
 IR Inten    --   149.9607                57.8919               417.6451
 Raman Activ --    21.2993                28.9984                90.1865

                   121                    122                    123
                     A                      A                      A
 Frequencies --  3305.1341              3310.6722              3313.1720
 Red. masses --     1.0915                 1.0878                 1.1027
 Frc consts  --     7.0249                 7.0250                 7.1319
 IR Inten    --    82.2681                84.3048                79.7426
 Raman Activ --    49.0309                45.2928                32.4266

                   124                    125                    126
                     A                      A                      A
 Frequencies --  3370.3405              3372.4450              3376.4348
 Red. masses --     1.0646                 1.0661                 1.0667
 Frc consts  --     7.1251                 7.1441                 7.1648
 IR Inten    --    33.7147                38.4362                50.5564
 Raman Activ --   101.9514               133.8145               140.0222

                   127                    128                    129
                     A                      A                      A
 Frequencies --  3377.2096              3889.6618              3889.7984
 Red. masses --     1.0678                 1.0675                 1.0674
 Frc consts  --     7.1756                 9.5155                 9.5151
 IR Inten    --    60.2669               100.2135                32.1201
 Raman Activ --   165.5123                48.9713               175.1925

 - Thermochemistry -
 -------------------
 Temperature   298.150 Kelvin.  Pressure   1.00000 Atm.
 Atom     1 has atomic number  8 and mass  15.99491

 Molecular mass:   342.11621 amu.
 Principal axes and moments of inertia in atomic units:
                           1         2         3
     Eigenvalues --  4452.37049********************
           X            0.99997   0.00715  -0.00029
           Y           -0.00715   0.99997   0.00189
           Z            0.00030  -0.00189   1.00000
 This molecule is an asymmetric top.
 Rotational symmetry number  1.
 Warning -- assumption of classical behavior for rotation
           may cause significant error
 Rotational temperatures (Kelvin)      0.01945     0.00700     0.00527
 Rotational constants (GHZ):           0.40534     0.14576     0.10988
    6 imaginary frequencies ignored.
 Zero-point vibrational energy     973846.8 (Joules/Mol)
                                  232.75497 (Kcal/Mol)
 Warning -- explicit consideration of  32 degrees of freedom as
           vibrations may cause significant error
 Vibrational temperatures:      4.38    43.49    88.83   112.99   135.52
          (Kelvin)            147.35   206.73   241.82   270.12   286.80
                              336.78   364.58   397.03   420.83   426.60
                              438.64   457.96   464.04   487.31   515.46
                              549.02   583.55   606.82   619.62   638.43
                              688.66   693.42   735.37   757.67   816.67
                              846.45   878.29   898.94   916.72   979.91
                              987.77  1022.08  1049.91  1097.93  1113.77
                             1209.46  1218.05  1242.95  1299.89  1374.70
                             1395.16  1403.76  1426.08  1436.44  1453.46
                             1463.03  1489.30  1519.75  1528.14  1538.91
                             1544.42  1548.90  1568.23  1589.77  1601.10
                             1604.99  1609.74  1625.37  1635.22  1647.13
                             1660.93  1673.14  1694.60  1696.60  1721.30
                             1733.34  1739.45  1753.58  1778.06  1801.32
                             1815.26  1851.37  1860.91  1867.29  1873.56
                             1881.23  1883.69  1893.28  1910.30  1921.25
                             1925.47  1947.07  1949.27  1954.76  1974.37
                             1974.98  2004.57  2010.61  2069.18  2088.97
                             2109.28  2118.03  2121.35  2143.38  2159.42
                             2161.05  4678.62  4685.61  4700.10  4701.23
                             4707.18  4708.87  4717.09  4720.93  4729.82
                             4738.75  4744.23  4746.95  4752.85  4755.34
                             4763.31  4766.91  4849.16  4852.19  4857.93
                             4859.05  5596.35  5596.55

 Zero-point correction=                           0.370919 (Hartree/Particle)
 Thermal correction to Energy=                    0.390316
 Thermal correction to Enthalpy=                  0.391260
 Thermal correction to Gibbs Free Energy=         0.320812
 Sum of electronic and zero-point Energies=          -1297.620605
 Sum of electronic and thermal Energies=             -1297.601208
 Sum of electronic and thermal Enthalpies=           -1297.600264
 Sum of electronic and thermal Free Energies=        -1297.670712

                     E (Thermal)             CV                S
                      KCal/Mol        Cal/Mol-Kelvin    Cal/Mol-Kelvin
 Total                  244.927             78.043            148.271
 Electronic               0.000              0.000              0.000
 Translational            0.889              2.981             43.384
 Rotational               0.889              2.981             35.158
 Vibrational            243.149             72.082             69.728
 Vibration     1          0.592              1.987             10.374
 Vibration     2          0.594              1.984              5.814
 Vibration     3          0.597              1.973              4.401
 Vibration     4          0.600              1.964              3.927
 Vibration     5          0.603              1.953              3.571
 Vibration     6          0.604              1.947              3.408
 Vibration     7          0.616              1.909              2.754
 Vibration     8          0.625              1.882              2.457
 Vibration     9          0.632              1.857              2.250
 Vibration    10          0.637              1.841              2.139
 Vibration    11          0.654              1.789              1.847
 Vibration    12          0.665              1.757              1.707
 Vibration    13          0.678              1.718              1.559
 Vibration    14          0.688              1.688              1.459
 Vibration    15          0.690              1.680              1.437
 Vibration    16          0.696              1.664              1.390
 Vibration    17          0.705              1.639              1.319
 Vibration    18          0.708              1.630              1.297
 Vibration    19          0.719              1.598              1.218
 Vibration    20          0.733              1.558              1.130
 Vibration    21          0.751              1.509              1.033
 Vibration    22          0.771              1.458              0.942
 Vibration    23          0.784              1.423              0.886
 Vibration    24          0.792              1.403              0.857
 Vibration    25          0.803              1.375              0.815
 Vibration    26          0.835              1.297              0.714
 Vibration    27          0.838              1.290              0.705
 Vibration    28          0.866              1.225              0.631
 Vibration    29          0.882              1.191              0.595
 Vibration    30          0.924              1.101              0.509
 Vibration    31          0.946              1.057              0.470
 Vibration    32          0.969              1.010              0.432

 Normal termination of Gaussian 09 at Mon Mar 28 13:31:06 2016.
