 Gaussian 09, Revision B.01,
 Gaussian 09:  EM64L-G09RevB.01 12-Aug-2010

 ------------------------------------------------
 # freq=raman b3lyp/6-31+g(d,p) geom=connectivity
 ------------------------------------------------

 -------------
 300 10000.com
 -------------
 Symbolic Z-matrix:
 Charge =  0 Multiplicity = 1

                         Standard orientation:
 ---------------------------------------------------------------------
 Center     Atomic      Atomic             Coordinates (Angstroms)
 Number     Number       Type             X           Y           Z
 ---------------------------------------------------------------------
      1          8           0       -5.062294   -0.479983    0.255672
      2          6           0       -3.710307   -0.169479   -0.109032
      3          6           0       -3.239908    1.223856    0.271903
      4          8           0       -4.226065    2.246692    0.068069
      5          1           0       -5.095728    1.832605    0.337275
      6          6           0       -1.898914    1.637486   -0.312396
      7          8           0       -1.336038    2.934537   -0.070394
      8          1           0       -0.365653    2.922552   -0.313439
      9          6           0       -2.923844   -2.609573   -0.049374
     10          8           0       -4.162176   -3.290901    0.198597
     11          1           0       -4.129108   -4.167083   -0.282450
     12          6           0       -2.733409   -1.188038    0.455264
     13          8           0       -1.432705   -0.769443    0.017187
     14          6           0       -0.947319    0.568693    0.201291
     15          8           0        0.243182    0.584361   -0.598951
     16          6           0        1.506983    0.173961   -0.057346
     17          6           0        2.068340   -1.145105   -0.565273
     18          8           0        1.044344   -2.087668   -0.216022
     19          1           0        0.124343   -1.694620   -0.204608
     20          6           0        3.352912   -1.646955    0.073833
     21          8           0        3.983511   -2.746331   -0.599465
     22          1           0        4.882792   -2.911425   -0.194127
     23          6           0        2.284671    2.584335    0.216845
     24          8           0        1.304026    3.356636   -0.491863
     25          1           0        1.267001    4.302234   -0.166976
     26          6           0        2.646856    1.168877   -0.203628
     27          8           0        3.776773    0.790571    0.595020
     28          6           0        4.275209   -0.438696    0.046765
     29          8           0        5.408135   -0.540765    0.921549
     30          1           0        6.215460   -0.529540    0.402223
     31          1           0       -5.599267   -0.551050   -0.536925
     32          1           0       -2.143044   -3.204892    0.375889
     33          1           0       -2.777212   -2.592756   -1.109146
     34          1           0       -2.775505   -1.175375    1.524360
     35          1           0       -3.653115   -0.237112   -1.175360
     36          1           0       -3.086155    1.186603    1.330143
     37          1           0       -1.969477    1.521371   -1.373734
     38          1           0       -0.707927    0.741870    1.229688
     39          1           0        3.191881    3.151538    0.204565
     40          1           0        1.958127    2.529942    1.234347
     41          1           0        2.948435    1.187615   -1.230077
     42          1           0        1.349530    0.048856    0.993586
     43          1           0        2.180468   -1.107998   -1.628735
     44          1           0        3.158365   -1.920247    1.089886
     45          1           0        4.612621   -0.270913   -0.954685
 ---------------------------------------------------------------------

 SCF Done:  E(RB3LYP) =  -1297.92073603     A.U. after   14 cycles

 The electronic state is 1-A.
 Alpha  occ. eigenvalues --  -19.19725 -19.19594 -19.19472 -19.19393 -19.18386
 Alpha  occ. eigenvalues --  -19.18347 -19.18090 -19.17242 -19.16200 -19.14753
 Alpha  occ. eigenvalues --  -19.13777 -10.31909 -10.31047 -10.26837 -10.26337
 Alpha  occ. eigenvalues --  -10.26304 -10.26157 -10.26003 -10.25502 -10.25248
 Alpha  occ. eigenvalues --  -10.25169 -10.25127 -10.24791  -1.10520  -1.09942
 Alpha  occ. eigenvalues --   -1.05835  -1.05312  -1.04298  -1.03982  -1.02926
 Alpha  occ. eigenvalues --   -1.02643  -1.02228  -1.00725  -1.00228  -0.82705
 Alpha  occ. eigenvalues --   -0.81052  -0.79762  -0.79362  -0.72563  -0.70507
 Alpha  occ. eigenvalues --   -0.67696  -0.65329  -0.63344  -0.63063  -0.62032
 Alpha  occ. eigenvalues --   -0.60810  -0.56836  -0.56418  -0.55751  -0.54927
 Alpha  occ. eigenvalues --   -0.54179  -0.53832  -0.53106  -0.52070  -0.51429
 Alpha  occ. eigenvalues --   -0.51049  -0.50634  -0.50148  -0.49295  -0.46803
 Alpha  occ. eigenvalues --   -0.46454  -0.45717  -0.44734  -0.44196  -0.43513
 Alpha  occ. eigenvalues --   -0.42818  -0.42201  -0.41992  -0.40613  -0.40037
 Alpha  occ. eigenvalues --   -0.38818  -0.38061  -0.36892  -0.36387  -0.35921
 Alpha  occ. eigenvalues --   -0.35705  -0.34898  -0.34482  -0.33753  -0.33397
 Alpha  occ. eigenvalues --   -0.32441  -0.31863  -0.31554  -0.30854  -0.30041
 Alpha  occ. eigenvalues --   -0.29860  -0.29247  -0.28713  -0.27432  -0.27191
 Alpha  occ. eigenvalues --   -0.26145
 Alpha virt. eigenvalues --   -0.02264  -0.02184  -0.01835  -0.00406   0.00046
 Alpha virt. eigenvalues --    0.00652   0.01833   0.02059   0.03202   0.03372
 Alpha virt. eigenvalues --    0.03868   0.04104   0.04380   0.04942   0.05695

 Mulliken atomic charges:
              1
     1  O   -0.523617
     2  C   -0.128398
     3  C    0.117419
     4  O   -0.489449
     5  H    0.358265
     6  C   -0.068936
     7  O   -0.546401
     8  H    0.449470
     9  C   -0.066120
    10  O   -0.530836
    11  H    0.350670
    12  C    0.063901
    13  O   -0.453321
    14  C    0.340055
    15  O   -0.318370
    16  C   -0.124931
    17  C    0.063423
    18  O   -0.567129
    19  H    0.439628
    20  C    0.186397
    21  O   -0.494910
    22  H    0.350338
    23  C    0.003341
    24  O   -0.613843
    25  H    0.385839
    26  C   -0.071582
    27  O   -0.286287
    28  C    0.070934
    29  O   -0.549073
    30  H    0.355920
    31  H    0.370291
    32  H    0.147940
    33  H    0.134381
    34  H    0.138421
    35  H    0.125129
    36  H    0.113152
    37  H    0.140965
    38  H    0.130929
    39  H    0.141258
    40  H    0.141947
    41  H    0.136074
    42  H    0.136535
    43  H    0.149958
    44  H    0.160209
    45  H    0.130415
 Sum of Mulliken atomic charges =   0.00000

 Dipole moment (field-independent basis, Debye):
    X=              2.5683    Y=             -0.4035    Z=             -1.5002  Tot=              3.0016
 Quadrupole moment (field-independent basis, Debye-Ang):
   XX=           -118.2840   YY=           -141.3583   ZZ=           -140.6397
   XY=             16.0642   XZ=              2.7028   YZ=              4.4686

  Exact polarizability: 230.238  -1.247 193.758   0.526   1.505 141.573
 Approx polarizability: 268.183   0.104 249.332  -0.546   1.295 230.994

 ******    7 imaginary frequencies (negative Signs) ******

                     1                      2                      3
                     A                      A                      A
 Frequencies --  -315.2514              -296.1187              -290.2979
 Red. masses --     1.1678                 1.4690                 1.7282
 Frc consts  --     0.0684                 0.0759                 0.0858
 IR Inten    --   102.1170                66.5665                 7.1249
 Raman Activ --     1.0207                 0.2974                 0.0254

                     4                      5                      6
                     A                      A                      A
 Frequencies --  -265.6707               -88.4325               -83.4765
 Red. masses --     1.3586                 7.2134                 6.2372
 Frc consts  --     0.0565                 0.0332                 0.0256
 IR Inten    --    58.4364                 2.7610                 0.1610
 Raman Activ --     0.5660                 0.0397                 0.0393

                     7                      8                      9
                     A                      A                      A
 Frequencies --   -39.2685                46.3084                62.0542
 Red. masses --     6.3853                 6.2888                 6.6522
 Frc consts  --     0.0058                 0.0079                 0.0151
 IR Inten    --     0.5890                 3.2707                 0.6155
 Raman Activ --     0.0336                 0.0497                 0.1158

                    10                     11                     12
                     A                      A                      A
 Frequencies --    71.3289                85.3441               109.1556
 Red. masses --     6.6738                 6.3882                 6.1680
 Frc consts  --     0.0200                 0.0274                 0.0433
 IR Inten    --     0.1065                 2.8844                 2.7313
 Raman Activ --     0.1427                 0.0468                 0.1284

                    13                     14                     15
                     A                      A                      A
 Frequencies --   139.2725               172.6271               186.5299
 Red. masses --     6.3506                 6.0583                 7.7797
 Frc consts  --     0.0726                 0.1064                 0.1595
 IR Inten    --     5.1606                 1.1339                 2.9663
 Raman Activ --     0.2368                 0.3549                 0.7325

                    16                     17                     18
                     A                      A                      A
 Frequencies --   203.8887               233.9907               244.8459
 Red. masses --     7.1357                 5.1766                 4.4045
 Frc consts  --     0.1748                 0.1670                 0.1556
 IR Inten    --     0.5922                 9.5671                11.9822
 Raman Activ --     2.4570                 0.5643                 0.4289

                    19                     20                     21
                     A                      A                      A
 Frequencies --   269.8489               281.0599               295.0467
 Red. masses --     5.1491                 5.0025                 5.2787
 Frc consts  --     0.2209                 0.2328                 0.2707
 IR Inten    --     4.4186                 0.8578                 3.8200
 Raman Activ --     0.3377                 0.1054                 0.4775

                    22                     23                     24
                     A                      A                      A
 Frequencies --   310.3936               311.9780               321.7538
 Red. masses --     5.9882                 5.0493                 7.0987
 Frc consts  --     0.3399                 0.2896                 0.4330
 IR Inten    --     2.0508                 3.3267                 2.2503
 Raman Activ --     2.5741                 0.3044                 3.5554

                    25                     26                     27
                     A                      A                      A
 Frequencies --   338.2261               359.6807               377.7056
 Red. masses --     6.5050                 4.7424                 6.8036
 Frc consts  --     0.4384                 0.3615                 0.5719
 IR Inten    --     6.0794                 7.4489                 4.9868
 Raman Activ --     4.8960                 0.1468                 1.1762

                    28                     29                     30
                     A                      A                      A
 Frequencies --   383.8394               413.7180               438.2056
 Red. masses --     4.6568                 5.6243                 5.4027
 Frc consts  --     0.4042                 0.5672                 0.6112
 IR Inten    --    17.4786                 8.4116                 0.6578
 Raman Activ --     2.4220                 5.8100                 3.4802

                    31                     32                     33
                     A                      A                      A
 Frequencies --   445.0751               470.3920               488.0165
 Red. masses --     4.3108                 4.4564                 5.0097
 Frc consts  --     0.5031                 0.5810                 0.7030
 IR Inten    --     0.4659                 7.4879                17.2584
 Raman Activ --     1.0779                 5.0592                 0.3270

                    34                     35                     36
                     A                      A                      A
 Frequencies --   520.9011               529.3904               570.1119
 Red. masses --     3.2816                 4.0993                 3.3711
 Frc consts  --     0.5246                 0.6769                 0.6456
 IR Inten    --     9.1271                11.2495                16.3837
 Raman Activ --     3.5598                 1.4080                 2.2646

                    37                     38                     39
                     A                      A                      A
 Frequencies --   574.7136               589.7064               610.2112
 Red. masses --     3.0163                 6.3188                 3.5584
 Frc consts  --     0.5870                 1.2947                 0.7807
 IR Inten    --    48.8826                 4.4859                 5.1344
 Raman Activ --     0.5987                 0.7844                 0.4351

                    40                     41                     42
                     A                      A                      A
 Frequencies --   646.9243               685.0372               692.4584
 Red. masses --     5.9783                 1.0726                 3.5072
 Frc consts  --     1.4741                 0.2966                 0.9908
 IR Inten    --    41.8056               102.5130                 8.5299
 Raman Activ --     1.0055                 2.1014                 1.9958

                    43                     44                     45
                     A                      A                      A
 Frequencies --   698.9969               708.4292               755.4403
 Red. masses --     1.1299                 1.1292                 1.0700
 Frc consts  --     0.3253                 0.3339                 0.3598
 IR Inten    --   115.2260               124.6969                90.6849
 Raman Activ --     1.7142                 1.8179                 1.7148

                    46                     47                     48
                     A                      A                      A
 Frequencies --   771.7702               832.5895               852.4728
 Red. masses --     1.0696                 1.1137                 1.8536
 Frc consts  --     0.3754                 0.4549                 0.7937
 IR Inten    --    59.1006               101.8573                 3.3786
 Raman Activ --     1.0578                 0.9833                 0.9639

                    49                     50                     51
                     A                      A                      A
 Frequencies --   867.0761               922.2567               964.0843
 Red. masses --     1.6517                 6.3567                 6.2157
 Frc consts  --     0.7316                 3.1856                 3.4039
 IR Inten    --    21.2115                86.6699                32.4774
 Raman Activ --     0.7550                 2.0692                 3.0381

                    52                     53                     54
                     A                      A                      A
 Frequencies --   981.1243               984.0854               986.4106
 Red. masses --     4.5327                 4.5867                 4.5326
 Frc consts  --     2.5707                 2.6171                 2.5984
 IR Inten    --   178.6554                57.3541                28.8059
 Raman Activ --     1.3156                 2.0829                 1.9374

                    55                     56                     57
                     A                      A                      A
 Frequencies --  1005.5483              1016.6158              1032.3404
 Red. masses --     6.1118                 6.0733                 4.6875
 Frc consts  --     3.6410                 3.6982                 2.9433
 IR Inten    --   448.2240                31.1153               106.2663
 Raman Activ --     0.9192                 3.0387                 2.6772

                    58                     59                     60
                     A                      A                      A
 Frequencies --  1055.5314              1062.6546              1071.0865
 Red. masses --     3.2605                 3.6615                 4.4090
 Frc consts  --     2.1403                 2.4361                 2.9802
 IR Inten    --   256.2012               113.5207                12.1759
 Raman Activ --     2.7825                13.2866                 2.4484

                    61                     62                     63
                     A                      A                      A
 Frequencies --  1078.6618              1083.5934              1096.2560
 Red. masses --     4.0541                 4.9997                 5.8169
 Frc consts  --     2.7792                 3.4588                 4.1188
 IR Inten    --    46.6001               134.1918                29.8854
 Raman Activ --     6.6383                10.4420                 0.6885

                    64                     65                     66
                     A                      A                      A
 Frequencies --  1098.4955              1106.6989              1112.6931
 Red. masses --     2.2863                 2.7001                 2.7875
 Frc consts  --     1.6255                 1.9484                 2.0334
 IR Inten    --    65.3167                31.3974                59.8543
 Raman Activ --     4.7262                14.6803                 4.5067

                    67                     68                     69
                     A                      A                      A
 Frequencies --  1122.7778              1126.4324              1142.2770
 Red. masses --     2.5440                 2.7737                 2.8545
 Frc consts  --     1.8896                 2.0736                 2.1945
 IR Inten    --     6.8855                83.6944                22.2456
 Raman Activ --     2.2077                 5.4449                10.9327

                    70                     71                     72
                     A                      A                      A
 Frequencies --  1153.3855              1162.2227              1167.0092
 Red. masses --     2.3277                 2.3448                 2.0675
 Frc consts  --     1.8244                 1.8661                 1.6590
 IR Inten    --    37.2974                25.8748                17.4019
 Raman Activ --     2.3237                 6.9729                 4.2791

                    73                     74                     75
                     A                      A                      A
 Frequencies --  1175.4019              1178.9200              1185.7272
 Red. masses --     1.7922                 1.7189                 1.7647
 Frc consts  --     1.4589                 1.4076                 1.4618
 IR Inten    --     5.9396                18.6481                12.2678
 Raman Activ --     4.4612                 0.8534                 1.8983

                    76                     77                     78
                     A                      A                      A
 Frequencies --  1195.5699              1213.5200              1236.9599
 Red. masses --     1.6214                 1.5140                 1.2587
 Frc consts  --     1.3655                 1.3137                 1.1347
 IR Inten    --     5.5950                 5.4255                14.2384
 Raman Activ --     2.9450                 3.8956                 2.5312

                    79                     80                     81
                     A                      A                      A
 Frequencies --  1238.9402              1246.3648              1260.7981
 Red. masses --     1.2306                 1.3633                 1.1911
 Frc consts  --     1.1129                 1.2478                 1.1156
 IR Inten    --    18.1454                 2.6692                29.1981
 Raman Activ --     1.7106                 2.0503                 0.6201

                    82                     83                     84
                     A                      A                      A
 Frequencies --  1273.2491              1279.5588              1285.1995
 Red. masses --     1.4012                 1.2858                 1.2645
 Frc consts  --     1.3383                 1.2403                 1.2306
 IR Inten    --    19.7622                21.6100                19.1550
 Raman Activ --     2.7237                 3.5931                 1.1481

                    85                     86                     87
                     A                      A                      A
 Frequencies --  1292.8115              1297.1247              1309.7383
 Red. masses --     1.1833                 1.2103                 1.2473
 Frc consts  --     1.1653                 1.1998                 1.2606
 IR Inten    --    19.6438                 8.9333                11.0936
 Raman Activ --    11.2620                 3.9111                 2.7541

                    88                     89                     90
                     A                      A                      A
 Frequencies --  1313.9799              1322.1647              1325.2828
 Red. masses --     1.3561                 1.2461                 1.3740
 Frc consts  --     1.3795                 1.2835                 1.4218
 IR Inten    --     9.3062                 1.2572                67.4571
 Raman Activ --     1.3864                10.2088                 2.6709

                    91                     92                     93
                     A                      A                      A
 Frequencies --  1335.6361              1346.7918              1353.4229
 Red. masses --     1.1454                 1.3302                 1.1506
 Frc consts  --     1.2039                 1.4216                 1.2417
 IR Inten    --    52.2045                30.3296                19.4297
 Raman Activ --     2.7566                 2.3448                 8.7464

                    94                     95                     96
                     A                      A                      A
 Frequencies --  1367.4832              1378.3349              1382.2330
 Red. masses --     1.2875                 1.4762                 1.3869
 Frc consts  --     1.4185                 1.6524                 1.5612
 IR Inten    --     3.8710                 1.8461                21.7268
 Raman Activ --     2.4319                 9.0375                 4.7842

                    97                     98                     99
                     A                      A                      A
 Frequencies --  1385.1123              1403.0981              1405.6741
 Red. masses --     1.4529                 1.3886                 1.4346
 Frc consts  --     1.6423                 1.6107                 1.6701
 IR Inten    --     1.9480                16.3208                 1.3529
 Raman Activ --     7.4874                 3.0122                 7.3426

                   100                    101                    102
                     A                      A                      A
 Frequencies --  1412.6206              1446.2072              1452.2163
 Red. masses --     1.5511                 1.3953                 1.4390
 Frc consts  --     1.8236                 1.7194                 1.7881
 IR Inten    --    27.3075                40.9566                11.0489
 Raman Activ --     1.7752                 1.2426                 0.6652

                   103                    104                    105
                     A                      A                      A
 Frequencies --  1464.0440              1477.8857              1480.8758
 Red. masses --     1.3950                 1.2611                 1.1062
 Frc consts  --     1.7617                 1.6229                 1.4293
 IR Inten    --    16.9707                44.4877                 5.1918
 Raman Activ --     2.6221                 3.1529                 5.3650

                   106                    107                    108
                     A                      A                      A
 Frequencies --  1484.9255              1493.4091              3251.4539
 Red. masses --     1.1023                 1.2582                 1.0702
 Frc consts  --     1.4321                 1.6533                 6.6660
 IR Inten    --     5.5095                57.1905               658.1027
 Raman Activ --     3.9770                 1.8860               145.8615

                   109                    110                    111
                     A                      A                      A
 Frequencies --  3260.4301              3267.9268              3273.1277
 Red. masses --     1.0792                 1.0579                 1.0624
 Frc consts  --     6.7595                 6.6566                 6.7057
 IR Inten    --   102.7881                42.6663                59.0964
 Raman Activ --    59.4129                96.6408               207.4123

                   112                    113                    114
                     A                      A                      A
 Frequencies --  3279.0952              3284.5242              3287.7855
 Red. masses --     1.0819                 1.0835                 1.0825
 Frc consts  --     6.8541                 6.8867                 6.8941
 IR Inten    --     5.1039                15.3405                56.1835
 Raman Activ --    30.4114                31.8778                27.5092

                   115                    116                    117
                     A                      A                      A
 Frequencies --  3292.6976              3292.8835              3300.0110
 Red. masses --     1.0855                 1.0834                 1.0836
 Frc consts  --     6.9342                 6.9214                 6.9523
 IR Inten    --     2.8468                 7.5064               241.3473
 Raman Activ --    44.3376               156.4003               120.7718

                   118                    119                    120
                     A                      A                      A
 Frequencies --  3301.4966              3307.3894              3313.3797
 Red. masses --     1.0869                 1.0834                 1.0784
 Frc consts  --     6.9802                 6.9824                 6.9756
 IR Inten    --     1.4165               211.1134               408.3979
 Raman Activ --    57.2827                32.7628                82.4467

                   121                    122                    123
                     A                      A                      A
 Frequencies --  3319.2797              3323.8741              3324.2975
 Red. masses --     1.0870                 1.1044                 1.1034
 Frc consts  --     7.0558                 7.1893                 7.1842
 IR Inten    --    52.0974                39.8424                93.9544
 Raman Activ --    27.1348                59.0561                32.8506

                   124                    125                    126
                     A                      A                      A
 Frequencies --  3382.6167              3388.8230              3388.8390
 Red. masses --     1.0653                 1.0672                 1.0672
 Frc consts  --     7.1816                 7.2210                 7.2210
 IR Inten    --    37.7042               110.4278                22.7674
 Raman Activ --    98.8733                15.2679               258.1717

                   127                    128                    129
                     A                      A                      A
 Frequencies --  3390.4296              3917.9092              3919.1003
 Red. masses --     1.0665                 1.0677                 1.0678
 Frc consts  --     7.2229                 9.6559                 9.6634
 IR Inten    --    36.4182                63.6299                76.6483
 Raman Activ --   157.5743               113.7607                92.3533

 - Thermochemistry -
 -------------------
 Temperature   298.150 Kelvin.  Pressure   1.00000 Atm.
 Atom     1 has atomic number  8 and mass  15.99491

 Molecular mass:   342.11621 amu.
 Principal axes and moments of inertia in atomic units:
                           1         2         3
     Eigenvalues --  4533.09882********************
           X            0.99997   0.00790   0.00009
           Y           -0.00790   0.99996   0.00353
           Z           -0.00006  -0.00353   0.99999
 This molecule is an asymmetric top.
 Rotational symmetry number  1.
 Warning -- assumption of classical behavior for rotation
           may cause significant error
 Rotational temperatures (Kelvin)      0.01911     0.00701     0.00528
 Rotational constants (GHZ):           0.39813     0.14597     0.10994
    7 imaginary frequencies ignored.
 Zero-point vibrational energy     976556.0 (Joules/Mol)
                                  233.40248 (Kcal/Mol)
 Warning -- explicit consideration of  32 degrees of freedom as
           vibrations may cause significant error
 Vibrational temperatures:     66.63    89.28   102.63   122.79   157.05
          (Kelvin)            200.38   248.37   268.37   293.35   336.66
                              352.28   388.25   404.38   424.51   446.59
                              448.87   462.93   486.63   517.50   543.43
                              552.26   595.25   630.48   640.36   676.79
                              702.15   749.46   761.67   820.26   826.88
                              848.45   877.96   930.78   985.61   996.29
                             1005.70  1019.27  1086.91  1110.40  1197.91
                             1226.52  1247.53  1326.92  1387.10  1411.62
                             1415.88  1419.22  1446.76  1462.68  1485.31
                             1518.67  1528.92  1541.05  1551.95  1559.05
                             1577.27  1580.49  1592.29  1600.92  1615.42
                             1620.68  1643.48  1659.46  1672.18  1679.06
                             1691.14  1696.20  1705.99  1720.16  1745.98
                             1779.71  1782.56  1793.24  1814.00  1831.92
                             1841.00  1849.11  1860.07  1866.27  1884.42
                             1890.52  1902.30  1906.78  1921.68  1937.73
                             1947.27  1967.50  1983.11  1988.72  1992.87
                             2018.74  2022.45  2032.44  2080.77  2089.41
                             2106.43  2126.35  2130.65  2136.47  2148.68
                             4678.11  4691.03  4701.81  4709.29  4717.88
                             4725.69  4730.38  4737.45  4737.72  4747.97
                             4750.11  4758.59  4767.21  4775.70  4782.31
                             4782.92  4866.82  4875.75  4875.78  4878.07
                             5636.99  5638.70

 Zero-point correction=                           0.371951 (Hartree/Particle)
 Thermal correction to Energy=                    0.390444
 Thermal correction to Enthalpy=                  0.391388
 Thermal correction to Gibbs Free Energy=         0.326029
 Sum of electronic and zero-point Energies=          -1297.548786
 Sum of electronic and thermal Energies=             -1297.530292
 Sum of electronic and thermal Enthalpies=           -1297.529348
 Sum of electronic and thermal Free Energies=        -1297.594707

                     E (Thermal)             CV                S
                      KCal/Mol        Cal/Mol-Kelvin    Cal/Mol-Kelvin
 Total                  245.007             75.983            137.559
 Electronic               0.000              0.000              0.000
 Translational            0.889              2.981             43.384
 Rotational               0.889              2.981             35.174
 Vibrational            243.230             70.021             59.001
 Vibration     1          0.595              1.979              4.969
 Vibration     2          0.597              1.972              4.391
 Vibration     3          0.598              1.968              4.116
 Vibration     4          0.601              1.959              3.764
 Vibration     5          0.606              1.942              3.284
 Vibration     6          0.615              1.914              2.814
 Vibration     7          0.626              1.876              2.407
 Vibration     8          0.632              1.858              2.262
 Vibration     9          0.640              1.834              2.098
 Vibration    10          0.654              1.789              1.848
 Vibration    11          0.660              1.771              1.767
 Vibration    12          0.674              1.729              1.597
 Vibration    13          0.681              1.709              1.527
 Vibration    14          0.689              1.683              1.445
 Vibration    15          0.699              1.654              1.360
 Vibration    16          0.700              1.651              1.352
 Vibration    17          0.707              1.632              1.301
 Vibration    18          0.719              1.599              1.221
 Vibration    19          0.734              1.555              1.123
 Vibration    20          0.748              1.518              1.048
 Vibration    21          0.753              1.505              1.024
 Vibration    22          0.777              1.440              0.914
 Vibration    23          0.798              1.387              0.832
 Vibration    24          0.804              1.372              0.811
 Vibration    25          0.827              1.316              0.736
 Vibration    26          0.844              1.277              0.689
 Vibration    27          0.876              1.204              0.608
 Vibration    28          0.884              1.185              0.589
 Vibration    29          0.926              1.096              0.504
 Vibration    30          0.931              1.086              0.495
 Vibration    31          0.947              1.054              0.468
 Vibration    32          0.969              1.010              0.432

 Normal termination of Gaussian 09 at Tue Mar  1 03:27:52 2016.
