 Gaussian 09, Revision B.01,
 Gaussian 09:  EM64L-G09RevB.01 12-Aug-2010

 -------------------------------
 ## freq=raman b3lyp/6-31+g(d,p)
 -------------------------------

 -----------------------------
 450K 9000ps Cellobiose Unit 1
 -----------------------------
 Symbolic Z-matrix:
 Charge =  0 Multiplicity = 1

                         Standard orientation:
 ---------------------------------------------------------------------
 Center     Atomic      Atomic             Coordinates (Angstroms)
 Number     Number       Type             X           Y           Z
 ---------------------------------------------------------------------
      1          8           0        4.973028    0.557967    0.714105
      2          6           0        3.832609    0.200888   -0.079762
      3          6           0        3.435601   -1.194075    0.374246
      4          8           0        4.392483   -2.168110   -0.066111
      5          1           0        5.324362   -1.813605   -0.137844
      6          6           0        2.057121   -1.600828   -0.122759
      7          8           0        1.476539   -2.756741    0.497183
      8          1           0        2.211739   -3.431588    0.428424
      9          6           0        3.204745    2.622837   -0.333209
     10          8           0        2.218828    3.651162   -0.508642
     11          1           0        2.647220    4.426941   -0.972296
     12          6           0        2.748711    1.247271    0.125015
     13          8           0        1.556451    0.746393   -0.496408
     14          6           0        1.026315   -0.491278    0.000800
     15          8           0       -0.167096   -0.822782   -0.724287
     16          6           0       -1.343147   -0.407633   -0.015057
     17          6           0       -1.743876    1.046306   -0.206242
     18          8           0       -0.773490    1.848635    0.482692
     19          1           0        0.052055    1.512576    0.029863
     20          6           0       -3.061104    1.342868    0.491845
     21          8           0       -3.335846    2.750838    0.536397
     22          1           0       -2.801560    3.123329    1.295830
     23          6           0       -2.140678   -2.592040   -0.613658
     24          8           0       -2.755689   -3.502095    0.309853
     25          1           0       -2.217142   -4.327463    0.480359
     26          6           0       -2.507119   -1.119051   -0.686177
     27          8           0       -3.813794   -0.804467   -0.182226
     28          6           0       -4.127753    0.591808   -0.288489
     29          8           0       -5.420118    0.735380    0.317355
     30          1           0        5.776556    0.342686    0.234942
     31          1           0       -6.092139    0.395240   -0.277870
 ---------------------------------------------------------------------

 SCF Done:  E(RB3LYP) =  -1288.81637474     A.U. after   30 cycles

 The electronic state is 1-A.
 Alpha  occ. eigenvalues --  -19.24365 -19.23440 -19.23045 -19.22874 -19.22000
 Alpha  occ. eigenvalues --  -19.21929 -19.21721 -19.21187 -19.21120 -19.20758
 Alpha  occ. eigenvalues --  -19.19565 -10.34602 -10.33119 -10.31514 -10.31053
 Alpha  occ. eigenvalues --  -10.30991 -10.30414 -10.30354 -10.30269 -10.29672
 Alpha  occ. eigenvalues --  -10.28456 -10.28110 -10.26988  -1.12101  -1.11455
 Alpha  occ. eigenvalues --   -1.08272  -1.07129  -1.06882  -1.06415  -1.05704
 Alpha  occ. eigenvalues --   -1.05444  -1.05007  -1.04914  -1.04378  -0.82313
 Alpha  occ. eigenvalues --   -0.79993  -0.79030  -0.77184  -0.69719  -0.68579
 Alpha  occ. eigenvalues --   -0.67247  -0.64550  -0.62295  -0.61449  -0.57166
 Alpha  occ. eigenvalues --   -0.56657  -0.55990  -0.55631  -0.55582  -0.52444
 Alpha  occ. eigenvalues --   -0.51050  -0.50173  -0.49671  -0.49530  -0.47406
 Alpha  occ. eigenvalues --   -0.46873  -0.46455  -0.45795  -0.44738  -0.44535
 Alpha  occ. eigenvalues --   -0.44188  -0.44018  -0.43343  -0.42508  -0.42305
 Alpha  occ. eigenvalues --   -0.41780  -0.39706  -0.39642  -0.38777  -0.38314
 Alpha  occ. eigenvalues --   -0.38015  -0.36887  -0.35811  -0.35579  -0.33473
 Alpha  occ. eigenvalues --   -0.32609  -0.32131  -0.29765  -0.28625  -0.27397
 Alpha  occ. eigenvalues --   -0.26704  -0.22002  -0.21319  -0.17963
 Alpha virt. eigenvalues --   -0.15817  -0.13166  -0.12252  -0.10028  -0.09041
 Alpha virt. eigenvalues --   -0.05918  -0.04068  -0.02774  -0.00911  -0.00280
 Alpha virt. eigenvalues --    0.00056   0.00391   0.01084   0.03918   0.04402

 Mulliken atomic charges:
              1
     1  O   -0.477976
     2  C    0.259659
     3  C    0.368545
     4  O   -0.481750
     5  H    0.344988
     6  C   -0.067438
     7  O   -0.409262
     8  H    0.369435
     9  C   -0.397748
    10  O   -0.464182
    11  H    0.396689
    12  C    0.225518
    13  O   -0.287017
    14  C    0.220235
    15  O   -0.176226
    16  C    0.640991
    17  C    0.361074
    18  O   -0.440514
    19  H    0.407810
    20  C   -0.295564
    21  O   -0.413919
    22  H    0.376681
    23  C   -0.589415
    24  O   -0.423540
    25  H    0.403023
    26  C    0.049144
    27  O   -0.199940
    28  C    0.453133
    29  O   -0.464540
    30  H    0.347672
    31  H    0.364433
 Sum of Mulliken atomic charges =   0.00000

 Dipole moment (field-independent basis, Debye):
    X=              2.2895    Y=             -1.8117    Z=             -0.7215  Tot=              3.0074
 Quadrupole moment (field-independent basis, Debye-Ang):
   XX=           -103.8333   YY=           -118.2311   ZZ=           -134.6769
   XY=             -6.2110   XZ=             -2.4430   YZ=             -5.8007

  Exact polarizability: 697.837  52.058 354.547  17.238   3.383 128.624
 Approx polarizability:4977.542 689.528 922.515 485.997  76.663 309.625

 ******    4 imaginary frequencies (negative Signs) ******

                     1                      2                      3
                     A                      A                      A
 Frequencies --  -496.8927              -443.6965              -296.2177
 Red. masses --     1.1494                 1.6247                 2.6561
 Frc consts  --     0.1672                 0.1885                 0.1373
 IR Inten    --    41.3921                58.4179               160.7982
 Raman Activ --    73.7234               328.0820               499.6227

                     4                      5                      6
                     A                      A                      A
 Frequencies --   -83.3330                47.2103                83.3233
 Red. masses --     9.3793                 9.0512                 9.4472
 Frc consts  --     0.0384                 0.0119                 0.0386
 IR Inten    --    10.7992                38.4408                 8.4380
 Raman Activ --   336.7037                 5.8731                 4.5297

                     7                      8                      9
                     A                      A                      A
 Frequencies --    92.0052               118.4141               138.8140
 Red. masses --     7.3647                 7.4364                 8.6416
 Frc consts  --     0.0367                 0.0614                 0.0981
 IR Inten    --    16.3409                 8.6727                10.5867
 Raman Activ --     9.8475                51.3978                12.7582

                    10                     11                     12
                     A                      A                      A
 Frequencies --   144.7208               149.4321               159.9678
 Red. masses --     8.5249                 8.6589                 8.1481
 Frc consts  --     0.1052                 0.1139                 0.1228
 IR Inten    --    16.5836                 1.8384                 8.4334
 Raman Activ --     4.4327                92.9290                23.6183

                    13                     14                     15
                     A                      A                      A
 Frequencies --   186.4484               194.6457               212.3246
 Red. masses --     8.6440                 9.0474                 9.0868
 Frc consts  --     0.1770                 0.2020                 0.2414
 IR Inten    --     1.7176                 6.7219                19.7703
 Raman Activ --    12.9437                38.6201                16.1307

                    16                     17                     18
                     A                      A                      A
 Frequencies --   240.7860               242.4815               258.2575
 Red. masses --     9.8060                 7.6975                11.6902
 Frc consts  --     0.3350                 0.2667                 0.4594
 IR Inten    --   144.4535                41.2565                26.7166
 Raman Activ --    47.3898                27.0102                77.6829

                    19                     20                     21
                     A                      A                      A
 Frequencies --   270.9752               299.2717               302.4391
 Red. masses --     7.4440                 6.9951                 7.5640
 Frc consts  --     0.3220                 0.3691                 0.4076
 IR Inten    --    21.1641               204.4239                 7.8919
 Raman Activ --   125.7117                22.2717                29.6310

                    22                     23                     24
                     A                      A                      A
 Frequencies --   307.0379               310.0878               331.4115
 Red. masses --     7.5447                 9.4536                 8.9718
 Frc consts  --     0.4191                 0.5356                 0.5806
 IR Inten    --    19.4321                14.7259                26.0511
 Raman Activ --     6.6439                51.8515               306.7428

                    25                     26                     27
                     A                      A                      A
 Frequencies --   342.0752               366.2025               373.0131
 Red. masses --     6.9534                 9.3449                 8.1010
 Frc consts  --     0.4794                 0.7384                 0.6641
 IR Inten    --     1.5915                56.7914                16.0333
 Raman Activ --    18.1254                38.8130                42.3565

                    28                     29                     30
                     A                      A                      A
 Frequencies --   406.5045               422.7927               434.9834
 Red. masses --     9.1316                 9.4824                10.8793
 Frc consts  --     0.8891                 0.9987                 1.2128
 IR Inten    --    69.0413                18.9831                 2.7302
 Raman Activ --   162.7430                38.1642               125.2458

                    31                     32                     33
                     A                      A                      A
 Frequencies --   454.2830               471.1355               488.9699
 Red. masses --    10.1025                10.9799                 9.5464
 Frc consts  --     1.2284                 1.4360                 1.3448
 IR Inten    --   120.2683                22.2373               166.3309
 Raman Activ --   337.0005                63.3910                81.7266

                    34                     35                     36
                     A                      A                      A
 Frequencies --   502.7074               542.7100               546.5315
 Red. masses --     9.5734                 5.9604                 7.2013
 Frc consts  --     1.4254                 1.0343                 1.2673
 IR Inten    --   279.6679               112.2908                35.5070
 Raman Activ --    56.3291                83.2215                59.8242

                    37                     38                     39
                     A                      A                      A
 Frequencies --   574.0361               593.9767               596.8198
 Red. masses --     3.3260                 3.1278                 3.0610
 Frc consts  --     0.6457                 0.6502                 0.6424
 IR Inten    --    46.2868                86.6720                41.0886
 Raman Activ --   146.0315                34.0392                76.3676

                    40                     41                     42
                     A                      A                      A
 Frequencies --   619.7524               636.1230               669.7697
 Red. masses --     3.3620                 1.5186                 7.4618
 Frc consts  --     0.7608                 0.3621                 1.9722
 IR Inten    --    31.6862                90.5532                74.8713
 Raman Activ --    60.2333                17.6686                57.6377

                    43                     44                     45
                     A                      A                      A
 Frequencies --   671.8090               686.9339               694.5795
 Red. masses --     3.3997                 6.2855                 4.2061
 Frc consts  --     0.9040                 1.7475                 1.1956
 IR Inten    --    34.6206               303.1565               412.5212
 Raman Activ --    63.6284                54.0899               318.2876

                    46                     47                     48
                     A                      A                      A
 Frequencies --   722.1621               738.8525               768.6435
 Red. masses --     6.5905                 1.5724                 6.8842
 Frc consts  --     2.0251                 0.5057                 2.3964
 IR Inten    --   106.7073                91.5559               230.4657
 Raman Activ --    96.3447                75.6643                69.9421

                    49                     50                     51
                     A                      A                      A
 Frequencies --   772.5325               791.9082               818.3336
 Red. masses --     6.3467                 4.1839                 2.0665
 Frc consts  --     2.2317                 1.5459                 0.8154
 IR Inten    --   117.7034                54.0902                24.9898
 Raman Activ --   142.1741               103.3681                34.7887

                    52                     53                     54
                     A                      A                      A
 Frequencies --   828.1159               855.6711               861.1705
 Red. masses --     4.4511                 3.5063                 1.5924
 Frc consts  --     1.7984                 1.5126                 0.6958
 IR Inten    --   360.9134                91.5435               105.8251
 Raman Activ --     5.0512                81.4192                19.7890

                    55                     56                     57
                     A                      A                      A
 Frequencies --   870.8596               887.6102               914.1839
 Red. masses --     2.0822                 4.4557                 3.7688
 Frc consts  --     0.9304                 2.0683                 1.8558
 IR Inten    --   131.3970              1011.0168                12.6005
 Raman Activ --    31.5710                27.5538                42.0978

                    58                     59                     60
                     A                      A                      A
 Frequencies --   933.4357               941.1418               957.0762
 Red. masses --     5.1901                 6.7160                 5.4225
 Frc consts  --     2.6644                 3.5049                 2.9265
 IR Inten    --    12.5087               564.9884               362.8602
 Raman Activ --   169.3152               295.9042               321.0573

                    61                     62                     63
                     A                      A                      A
 Frequencies --   960.3282               974.5419              1013.6984
 Red. masses --     7.0181                 9.5436                 7.4877
 Frc consts  --     3.8134                 5.3403                 4.5333
 IR Inten    --   113.0685                21.1567               139.6903
 Raman Activ --   251.4704               174.6154               179.3486

                    64                     65                     66
                     A                      A                      A
 Frequencies --  1036.1701              1040.1054              1048.9156
 Red. masses --     5.8070                 5.0429                 3.8601
 Frc consts  --     3.6733                 3.2143                 2.5023
 IR Inten    --    67.2558               582.0424              1285.3288
 Raman Activ --   233.5481               108.9166                32.2006

                    67                     68                     69
                     A                      A                      A
 Frequencies --  1062.0599              1071.5528              1086.8996
 Red. masses --     7.6793                 8.0827                 7.4583
 Frc consts  --     5.1035                 5.4680                 5.1912
 IR Inten    --    59.2538                44.9173                34.4332
 Raman Activ --    66.5164               103.5012                44.6241

                    70                     71                     72
                     A                      A                      A
 Frequencies --  1099.6967              1123.6928              1216.6092
 Red. masses --     5.0831                 5.6765                 1.7892
 Frc consts  --     3.6218                 4.2230                 1.5604
 IR Inten    --    42.5459                56.9008                54.3385
 Raman Activ --    81.8338                18.7302               133.5635

                    73                     74                     75
                     A                      A                      A
 Frequencies --  1230.4277              1237.0973              1310.8835
 Red. masses --     1.7156                 1.1466                 1.1747
 Frc consts  --     1.5303                 1.0339                 1.1894
 IR Inten    --    15.0772               245.3105               104.9344
 Raman Activ --    43.7923               168.5687                84.6126

                    76                     77                     78
                     A                      A                      A
 Frequencies --  1334.9483              1357.5406              1427.7657
 Red. masses --     1.3205                 1.2602                 1.2422
 Frc consts  --     1.3865                 1.3684                 1.4920
 IR Inten    --   125.8037                78.5025                75.2508
 Raman Activ --    36.0798                46.3919                30.3046

                    79                     80                     81
                     A                      A                      A
 Frequencies --  1495.7136              3258.5141              3388.8428
 Red. masses --     1.1570                 1.0696                 1.0680
 Frc consts  --     1.5250                 6.6916                 7.2268
 IR Inten    --     8.0752               213.3355               382.3095
 Raman Activ --    60.0141                29.0464               137.8042

                    82                     83                     84
                     A                      A                      A
 Frequencies --  3395.8925              3397.2113              3399.5830
 Red. masses --     1.0664                 1.0675                 1.0658
 Frc consts  --     7.2455                 7.2586                 7.2572
 IR Inten    --    62.6100               411.0002               216.7229
 Raman Activ --   347.0337               410.1371               374.7105

                    85                     86                     87
                     A                      A                      A
 Frequencies --  3405.5071              3904.6100              3922.7985
 Red. masses --     1.0659                 1.0668                 1.0668
 Frc consts  --     7.2836                 9.5829                 9.6724
 IR Inten    --   120.2030               125.2738               335.0027
 Raman Activ --   200.3466               537.4894               586.6800

 - Thermochemistry -
 -------------------
 Temperature   298.150 Kelvin.  Pressure   1.00000 Atm.
 Atom     1 has atomic number  8 and mass  15.99491

 Molecular mass:   328.00666 amu.
 Principal axes and moments of inertia in atomic units:
                           1         2         3
     Eigenvalues --  4437.97446********************
           X            1.00000  -0.00262  -0.00130
           Y            0.00262   0.99999  -0.00314
           Z            0.00131   0.00313   0.99999
 This molecule is an asymmetric top.
 Rotational symmetry number  1.
 Warning -- assumption of classical behavior for rotation
           may cause significant error
 Rotational temperatures (Kelvin)      0.01952     0.00769     0.00567
 Rotational constants (GHZ):           0.40666     0.16016     0.11823
    4 imaginary frequencies ignored.
 Zero-point vibrational energy     466837.1 (Joules/Mol)
                                  111.57674 (Kcal/Mol)
 Warning -- explicit consideration of  36 degrees of freedom as
           vibrations may cause significant error
 Vibrational temperatures:     67.92   119.88   132.37   170.37   199.72
          (Kelvin)            208.22   215.00   230.16   268.26   280.05
                              305.49   346.44   348.88   371.57   389.87
                              430.58   435.14   441.76   446.15   476.83
                              492.17   526.88   536.68   584.87   608.30
                              625.84   653.61   677.86   703.52   723.28
                              780.84   786.34   825.91   854.60   858.69
                              891.68   915.24   963.65   966.58   988.34
                              999.34  1039.03  1063.04  1105.91  1111.50
                             1139.38  1177.40  1191.47  1231.12  1239.03
                             1252.97  1277.07  1315.31  1343.00  1354.09
                             1377.02  1381.70  1402.15  1458.48  1490.82
                             1496.48  1509.15  1528.07  1541.72  1563.80
                             1582.22  1616.74  1750.43  1770.31  1779.90
                             1886.07  1920.69  1953.20  2054.23  2152.00
                             4688.27  4875.78  4885.93  4887.82  4891.24
                             4899.76  5617.86  5644.02

 Zero-point correction=                           0.177809 (Hartree/Particle)
 Thermal correction to Energy=                    0.197948
 Thermal correction to Enthalpy=                  0.198892
 Thermal correction to Gibbs Free Energy=         0.131430
 Sum of electronic and zero-point Energies=          -1288.638566
 Sum of electronic and thermal Energies=             -1288.618427
 Sum of electronic and thermal Enthalpies=           -1288.617482
 Sum of electronic and thermal Free Energies=        -1288.684945

                     E (Thermal)             CV                S
                      KCal/Mol        Cal/Mol-Kelvin    Cal/Mol-Kelvin
 Total                  124.214             80.835            141.986
 Electronic               0.000              0.000              0.000
 Translational            0.889              2.981             43.259
 Rotational               0.889              2.981             34.989
 Vibrational            122.437             74.873             63.738
 Vibration     1          0.595              1.979              4.931
 Vibration     2          0.600              1.961              3.811
 Vibration     3          0.602              1.955              3.617
 Vibration     4          0.609              1.934              3.126
 Vibration     5          0.614              1.915              2.820
 Vibration     6          0.616              1.908              2.741
 Vibration     7          0.618              1.903              2.679
 Vibration     8          0.622              1.891              2.550
 Vibration     9          0.632              1.858              2.263
 Vibration    10          0.635              1.847              2.183
 Vibration    11          0.643              1.822              2.024
 Vibration    12          0.658              1.778              1.797
 Vibration    13          0.659              1.775              1.785
 Vibration    14          0.667              1.749              1.674
 Vibration    15          0.675              1.727              1.590
 Vibration    16          0.692              1.675              1.421
 Vibration    17          0.694              1.669              1.403
 Vibration    18          0.697              1.660              1.378
 Vibration    19          0.699              1.654              1.362
 Vibration    20          0.714              1.613              1.253
 Vibration    21          0.721              1.591              1.202
 Vibration    22          0.739              1.542              1.096
 Vibration    23          0.744              1.528              1.067
 Vibration    24          0.771              1.456              0.939
 Vibration    25          0.785              1.421              0.883
 Vibration    26          0.796              1.394              0.843
 Vibration    27          0.813              1.351              0.783
 Vibration    28          0.828              1.314              0.734
 Vibration    29          0.845              1.274              0.686
 Vibration    30          0.858              1.244              0.651
 Vibration    31          0.898              1.156              0.559
 Vibration    32          0.902              1.147              0.551
 Vibration    33          0.930              1.087              0.497
 Vibration    34          0.952              1.045              0.460
 Vibration    35          0.955              1.039              0.455
 Vibration    36          0.980              0.990              0.417

 Normal termination of Gaussian 09 at Sun Oct 18 05:24:37 2015.
