 Gaussian 09, Revision B.01,
 Gaussian 09:  EM64L-G09RevB.01 12-Aug-2010

 -------------------------------------------------
 # freq=raman b3lyp/6-31+g(2d,p) geom=connectivity
 -------------------------------------------------

 -----------------
 500 9470/9470.com
 -----------------
 Symbolic Z-matrix:
 Charge =  0 Multiplicity = 1

                         Standard orientation:
 ---------------------------------------------------------------------
 Center     Atomic      Atomic             Coordinates (Angstroms)
 Number     Number       Type             X           Y           Z
 ---------------------------------------------------------------------
      1          8           0        5.088089   -0.478565   -0.794468
      2          6           0        3.887691   -0.147477   -0.080716
      3          6           0        3.365219    1.235646   -0.431669
      4          8           0        4.181407    2.410881   -0.329287
      5          1           0        4.970298    1.906159   -0.681081
      6          6           0        2.197302    1.506935    0.502560
      7          8           0        1.761438    2.866816    0.641600
      8          1           0        2.346701    3.491798    1.158457
      9          6           0        3.181747   -2.543818    0.306553
     10          8           0        2.272160   -3.561689   -0.135750
     11          1           0        2.382855   -4.261214    0.570035
     12          6           0        2.805649   -1.195225   -0.284304
     13          8           0        1.591311   -0.844006    0.394086
     14          6           0        1.120673    0.490582    0.158383
     15          8           0       -0.151462    0.423073    0.819836
     16          6           0       -1.344629    0.132342    0.077011
     17          6           0       -1.889163   -1.259588    0.353603
     18          8           0       -0.950792   -2.237230   -0.118973
     19          1           0       -0.059846   -2.016541    0.278012
     20          6           0       -3.212077   -1.534353   -0.341716
     21          8           0       -3.892232   -2.658557    0.234328
     22          1           0       -3.655117   -3.528718   -0.197401
     23          6           0       -2.114460    2.576066   -0.307419
     24          8           0       -2.956394    3.720481   -0.106829
     25          1           0       -2.794912    4.143221   -0.997784
     26          6           0       -2.354089    1.232271    0.361153
     27          8           0       -3.610888    0.931155   -0.262790
     28          6           0       -4.119524   -0.376533    0.040570
     29          8           0       -5.380282   -0.500511   -0.633676
     30          1           0       -6.090725   -0.279798   -0.026918
     31          1           0       -4.297389   -0.428131    1.094420
     32          1           0       -3.103578   -1.625810   -1.402264
     33          1           0       -2.017895   -1.380418    1.408936
     34          1           0       -1.098011    0.180384   -0.963072
     35          1           0       -2.484144    1.358497    1.415692
     36          1           0       -2.103500    2.390833   -1.361207
     37          1           0       -1.125340    2.877538   -0.032365
     38          1           0        5.844133   -0.383420   -0.210562
     39          1           0        3.149531   -2.482142    1.374289
     40          1           0        4.173882   -2.799466   -0.002012
     41          1           0        2.609965   -1.306642   -1.330342
     42          1           0        4.130571   -0.139942    0.961327
     43          1           0        2.985036    1.192553   -1.430920
     44          1           0        2.545769    1.230747    1.475797
     45          1           0        0.926847    0.584632   -0.889704
 ---------------------------------------------------------------------

 SCF Done:  E(RB3LYP) =  -1297.96218531     A.U. after   14 cycles

 The electronic state is 1-A.
 Alpha  occ. eigenvalues --  -19.19867 -19.18820 -19.18691 -19.17288 -19.17094
 Alpha  occ. eigenvalues --  -19.16846 -19.15089 -19.14914 -19.14713 -19.14710
 Alpha  occ. eigenvalues --  -19.13914 -10.31280 -10.27890 -10.27849 -10.26781
 Alpha  occ. eigenvalues --  -10.26492 -10.26360 -10.25082 -10.25040 -10.23920
 Alpha  occ. eigenvalues --  -10.23863 -10.23547 -10.21980  -1.10177  -1.07921
 Alpha  occ. eigenvalues --   -1.06342  -1.05980  -1.04304  -1.03102  -1.02637
 Alpha  occ. eigenvalues --   -1.02300  -1.01532  -1.00397  -0.99688  -0.83149
 Alpha  occ. eigenvalues --   -0.82009  -0.78693  -0.77675  -0.71862  -0.69511
 Alpha  occ. eigenvalues --   -0.66829  -0.64149  -0.63486  -0.62922  -0.61067
 Alpha  occ. eigenvalues --   -0.59481  -0.57649  -0.55711  -0.54993  -0.54663
 Alpha  occ. eigenvalues --   -0.54227  -0.53274  -0.52610  -0.51903  -0.51128
 Alpha  occ. eigenvalues --   -0.50822  -0.49485  -0.48781  -0.46802  -0.46379
 Alpha  occ. eigenvalues --   -0.45527  -0.44880  -0.44250  -0.43829  -0.43610
 Alpha  occ. eigenvalues --   -0.42749  -0.41750  -0.40882  -0.40594  -0.39980
 Alpha  occ. eigenvalues --   -0.39166  -0.37783  -0.37074  -0.36844  -0.35517
 Alpha  occ. eigenvalues --   -0.35235  -0.34515  -0.34268  -0.33712  -0.33061
 Alpha  occ. eigenvalues --   -0.32704  -0.31361  -0.30825  -0.30450  -0.29467
 Alpha  occ. eigenvalues --   -0.29415  -0.28886  -0.28414  -0.27648  -0.26187
 Alpha  occ. eigenvalues --   -0.25757
 Alpha virt. eigenvalues --   -0.03965  -0.01774  -0.00963  -0.00285   0.00325
 Alpha virt. eigenvalues --    0.00945   0.01200   0.01913   0.02792   0.03235
 Alpha virt. eigenvalues --    0.03707   0.04091   0.04522   0.05257   0.05330

 Mulliken atomic charges:
              1
     1  O   -0.552257
     2  C   -0.253436
     3  C    0.291111
     4  O   -0.535329
     5  H    0.334184
     6  C   -0.229581
     7  O   -0.552854
     8  H    0.356773
     9  C   -0.362579
    10  O   -0.495847
    11  H    0.327753
    12  C    0.358056
    13  O   -0.265637
    14  C    0.423765
    15  O   -0.230841
    16  C    0.373638
    17  C    0.106332
    18  O   -0.548807
    19  H    0.377116
    20  C   -0.081860
    21  O   -0.518460
    22  H    0.341574
    23  C   -0.349022
    24  O   -0.492854
    25  H    0.324241
    26  C    0.025549
    27  O   -0.239539
    28  C    0.159185
    29  O   -0.509783
    30  H    0.324860
    31  H    0.118521
    32  H    0.137215
    33  H    0.127980
    34  H    0.104077
    35  H    0.116729
    36  H    0.123302
    37  H    0.159812
    38  H    0.341178
    39  H    0.141875
    40  H    0.153786
    41  H    0.127435
    42  H    0.118105
    43  H    0.117560
    44  H    0.110927
    45  H    0.096046
 Sum of Mulliken atomic charges =   0.00000

 Dipole moment (field-independent basis, Debye):
    X=              7.6159    Y=             -1.3024    Z=              1.7769  Tot=              7.9281
 Quadrupole moment (field-independent basis, Debye-Ang):
   XX=           -122.9695   YY=           -141.3566   ZZ=           -135.0305
   XY=             -0.9504   XZ=              6.7806   YZ=             -8.4988

  Exact polarizability: 224.787   3.106 203.988  -0.949  -0.102 146.110
 Approx polarizability: 267.215   2.072 264.315  -0.836   1.806 243.371

 ******    7 imaginary frequencies (negative Signs) ******

                     1                      2                      3
                     A                      A                      A
 Frequencies --  -299.3023              -248.4188              -204.1605
 Red. masses --     1.7429                 1.0895                 2.0336
 Frc consts  --     0.0920                 0.0396                 0.0499
 IR Inten    --     0.9333                90.2818                 1.7372
 Raman Activ --     0.0582                 0.9872                 0.0578

                     4                      5                      6
                     A                      A                      A
 Frequencies --  -115.3090               -71.1715               -44.9387
 Red. masses --     2.1944                 4.8567                 5.3278
 Frc consts  --     0.0172                 0.0145                 0.0063
 IR Inten    --    51.5070                12.4523                 7.5376
 Raman Activ --     0.3348                 0.0433                 0.1358

                     7                      8                      9
                     A                      A                      A
 Frequencies --   -41.8559                37.1230                38.9603
 Red. masses --     6.4022                 6.8201                 6.1940
 Frc consts  --     0.0066                 0.0055                 0.0055
 IR Inten    --     1.0846                 0.3123                 2.3258
 Raman Activ --     0.0646                 0.1094                 0.1811

                    10                     11                     12
                     A                      A                      A
 Frequencies --    78.1305                90.6025               105.3111
 Red. masses --     6.3987                 3.9212                 4.5933
 Frc consts  --     0.0230                 0.0190                 0.0300
 IR Inten    --     0.2286                23.1740                 4.6242
 Raman Activ --     0.0742                 0.0528                 0.4759

                    13                     14                     15
                     A                      A                      A
 Frequencies --   120.7551               151.3156               171.7130
 Red. masses --     5.7227                 5.8254                 6.1831
 Frc consts  --     0.0492                 0.0786                 0.1074
 IR Inten    --     0.4552                 1.9592                 0.7196
 Raman Activ --     0.0806                 0.5602                 1.2860

                    16                     17                     18
                     A                      A                      A
 Frequencies --   180.8371               204.7298               245.3462
 Red. masses --     5.3943                 6.3090                 3.7474
 Frc consts  --     0.1039                 0.1558                 0.1329
 IR Inten    --     7.7702                 0.8777                 1.7884
 Raman Activ --     0.0425                 1.6263                 0.1712

                    19                     20                     21
                     A                      A                      A
 Frequencies --   263.7375               284.7216               300.7425
 Red. masses --     2.7033                 5.8083                 6.7894
 Frc consts  --     0.1108                 0.2774                 0.3618
 IR Inten    --    15.1830                 1.3869                 0.5533
 Raman Activ --     0.1975                 0.3571                 0.7397

                    22                     23                     24
                     A                      A                      A
 Frequencies --   304.0880               308.6815               324.4912
 Red. masses --     5.4479                 6.5093                 7.9134
 Frc consts  --     0.2968                 0.3654                 0.4909
 IR Inten    --     0.3829                 1.0381                 4.3937
 Raman Activ --     0.3297                 3.1118                 2.4508

                    25                     26                     27
                     A                      A                      A
 Frequencies --   332.0555               356.8893               375.1057
 Red. masses --     5.5755                 5.4996                 4.2545
 Frc consts  --     0.3622                 0.4127                 0.3527
 IR Inten    --     1.5077                 2.0532                 3.2947
 Raman Activ --     4.1714                 0.6535                 0.7407

                    28                     29                     30
                     A                      A                      A
 Frequencies --   399.1355               412.2453               430.4865
 Red. masses --     4.1741                 4.6882                 4.8771
 Frc consts  --     0.3918                 0.4694                 0.5325
 IR Inten    --     7.1928                 6.6746                 3.5211
 Raman Activ --     5.4864                 3.9541                 5.2186

                    31                     32                     33
                     A                      A                      A
 Frequencies --   435.8884               468.2102               480.8694
 Red. masses --     6.0713                 3.6536                 5.4339
 Frc consts  --     0.6796                 0.4719                 0.7403
 IR Inten    --     0.6365                11.8575                 8.5295
 Raman Activ --     0.5881                 1.8597                 0.4288

                    34                     35                     36
                     A                      A                      A
 Frequencies --   537.3731               544.7521               553.8678
 Red. masses --     3.4367                 4.0511                 4.6231
 Frc consts  --     0.5847                 0.7083                 0.8356
 IR Inten    --    32.8390                13.1577                11.4917
 Raman Activ --     4.0014                 1.4269                 2.8047

                    37                     38                     39
                     A                      A                      A
 Frequencies --   575.5570               581.6943               594.1430
 Red. masses --     2.1890                 2.7984                 2.7326
 Frc consts  --     0.4272                 0.5579                 0.5683
 IR Inten    --    75.0434                29.7621                13.3181
 Raman Activ --     1.8646                 1.2738                 0.3712

                    40                     41                     42
                     A                      A                      A
 Frequencies --   621.2461               637.2758               662.4731
 Red. masses --     1.5798                 2.7362                 1.8744
 Frc consts  --     0.3592                 0.6547                 0.4847
 IR Inten    --    35.1365                37.4310                28.3805
 Raman Activ --     0.8133                 0.5135                 1.4684

                    43                     44                     45
                     A                      A                      A
 Frequencies --   672.2884               684.8218               721.8383
 Red. masses --     1.3817                 1.2481                 1.1181
 Frc consts  --     0.3679                 0.3449                 0.3432
 IR Inten    --    74.8809                94.3908               102.4305
 Raman Activ --     1.1031                 0.8995                 1.7974

                    46                     47                     48
                     A                      A                      A
 Frequencies --   726.8445               813.5710               864.4831
 Red. masses --     1.2333                 1.1029                 2.5699
 Frc consts  --     0.3839                 0.4301                 1.1316
 IR Inten    --    72.9866               125.4141                 1.1075
 Raman Activ --     0.9523                 2.4942                 4.9489

                    49                     50                     51
                     A                      A                      A
 Frequencies --   876.3806               933.3769               957.1282
 Red. masses --     2.7693                 5.8870                 6.3970
 Frc consts  --     1.2532                 3.0217                 3.4528
 IR Inten    --    11.2004               257.9794                21.2608
 Raman Activ --     2.3495                 2.2586                 4.3157

                    52                     53                     54
                     A                      A                      A
 Frequencies --   967.4769               978.9095               984.2667
 Red. masses --     7.4813                 5.2056                 5.0544
 Frc consts  --     4.1258                 2.9391                 2.8850
 IR Inten    --    93.5837                38.5976               334.2861
 Raman Activ --     0.9048                 2.8064                 1.7777

                    55                     56                     57
                     A                      A                      A
 Frequencies --   988.2241              1007.2390              1015.8835
 Red. masses --     4.0278                 3.7002                 4.9500
 Frc consts  --     2.3175                 2.2118                 3.0099
 IR Inten    --    38.3454               179.7075               207.7073
 Raman Activ --     0.6705                 4.6304                 1.1523

                    58                     59                     60
                     A                      A                      A
 Frequencies --  1040.8084              1055.0440              1058.7676
 Red. masses --     3.6389                 3.8351                 3.5197
 Frc consts  --     2.3226                 2.5152                 2.3247
 IR Inten    --   184.1953                88.5320                56.3446
 Raman Activ --     2.3966                 1.3947                 4.3163

                    61                     62                     63
                     A                      A                      A
 Frequencies --  1063.0592              1066.3798              1071.1325
 Red. masses --     3.2046                 4.9123                 5.0492
 Frc consts  --     2.1338                 3.2912                 3.4132
 IR Inten    --   103.0748                33.8955                 7.8304
 Raman Activ --    10.4515                 4.4034                22.4131

                    64                     65                     66
                     A                      A                      A
 Frequencies --  1082.7424              1094.6679              1105.2630
 Red. masses --     3.0923                 2.7376                 2.7146
 Frc consts  --     2.1359                 1.9328                 1.9538
 IR Inten    --    98.8672                 8.8354                50.0794
 Raman Activ --     6.3367                 2.4861                 3.1253

                    67                     68                     69
                     A                      A                      A
 Frequencies --  1114.7316              1118.0695              1118.6829
 Red. masses --     2.3025                 3.0978                 2.4916
 Frc consts  --     1.6857                 2.2816                 1.8371
 IR Inten    --    23.0895                 4.9225                13.7841
 Raman Activ --     6.6831                 4.8630                 2.6194

                    70                     71                     72
                     A                      A                      A
 Frequencies --  1138.7604              1146.6751              1163.9155
 Red. masses --     3.2034                 2.6006                 1.9498
 Frc consts  --     2.4475                 2.0147                 1.5563
 IR Inten    --    27.0530                10.1833                32.2355
 Raman Activ --     3.2103                 4.1910                 1.5622

                    73                     74                     75
                     A                      A                      A
 Frequencies --  1170.6858              1176.2503              1181.4212
 Red. masses --     2.0228                 2.0836                 2.2083
 Frc consts  --     1.6334                 1.6985                 1.8160
 IR Inten    --    25.1595                20.8274                55.4930
 Raman Activ --     1.0344                 2.6567                 3.0483

                    76                     77                     78
                     A                      A                      A
 Frequencies --  1189.6911              1212.4492              1220.9219
 Red. masses --     1.3814                 1.3821                 1.2200
 Frc consts  --     1.1519                 1.1971                 1.0715
 IR Inten    --     5.7619                 5.8293                 6.4276
 Raman Activ --     1.1913                 3.0536                 0.4557

                    79                     80                     81
                     A                      A                      A
 Frequencies --  1232.4704              1235.0223              1249.5505
 Red. masses --     1.2441                 1.2648                 1.2539
 Frc consts  --     1.1134                 1.1366                 1.1535
 IR Inten    --     0.8045                 4.5461                11.4892
 Raman Activ --     2.9918                 2.4920                 3.9672

                    82                     83                     84
                     A                      A                      A
 Frequencies --  1265.4435              1276.2701              1279.5300
 Red. masses --     1.1542                 1.2402                 1.3724
 Frc consts  --     1.0890                 1.1902                 1.3238
 IR Inten    --     2.5115                 5.3120                45.3721
 Raman Activ --     4.2096                 1.8663                 0.5819

                    85                     86                     87
                     A                      A                      A
 Frequencies --  1286.1716              1305.9550              1312.2602
 Red. masses --     1.2967                 1.3430                 1.3289
 Frc consts  --     1.2638                 1.3495                 1.3483
 IR Inten    --     6.4006                34.9064                 6.5186
 Raman Activ --     0.4368                 6.4645                 0.6858

                    88                     89                     90
                     A                      A                      A
 Frequencies --  1316.6206              1326.4130              1336.1787
 Red. masses --     1.3221                 1.2924                 1.3690
 Frc consts  --     1.3503                 1.3397                 1.4401
 IR Inten    --    12.8549                10.3370                 7.1413
 Raman Activ --    10.3061                 0.5646                 5.6829

                    91                     92                     93
                     A                      A                      A
 Frequencies --  1343.3006              1348.6855              1353.0034
 Red. masses --     1.3722                 1.3987                 1.2558
 Frc consts  --     1.4588                 1.4989                 1.3545
 IR Inten    --    24.1572                36.9296                 2.1720
 Raman Activ --     0.9676                 3.2676                 3.0330

                    94                     95                     96
                     A                      A                      A
 Frequencies --  1355.7513              1377.8423              1384.3406
 Red. masses --     1.3455                 1.3706                 1.2766
 Frc consts  --     1.4571                 1.5330                 1.4415
 IR Inten    --    25.4614                20.4766                26.4983
 Raman Activ --     2.6752                 3.1774                 4.6895

                    97                     98                     99
                     A                      A                      A
 Frequencies --  1395.8722              1413.6352              1415.8308
 Red. masses --     1.3370                 1.2141                 1.1190
 Frc consts  --     1.5348                 1.4294                 1.3216
 IR Inten    --     2.9627                 6.8136                28.7890
 Raman Activ --    10.8913                 5.5407                 1.0132

                   100                    101                    102
                     A                      A                      A
 Frequencies --  1426.7065              1428.5285              1462.7732
 Red. masses --     1.5186                 1.2804                 1.0973
 Frc consts  --     1.8213                 1.5395                 1.3834
 IR Inten    --    13.2928                 4.5659                 1.8126
 Raman Activ --     7.1439                 5.0488                 4.7857

                   103                    104                    105
                     A                      A                      A
 Frequencies --  1467.6320              1470.3450              1486.7946
 Red. masses --     1.0767                 1.3391                 1.2955
 Frc consts  --     1.3664                 1.7057                 1.6873
 IR Inten    --     7.7601                47.9733                 8.6415
 Raman Activ --     4.2677                 2.0831                 1.5769

                   106                    107                    108
                     A                      A                      A
 Frequencies --  1495.3688              1518.7018              3252.2578
 Red. masses --     1.3205                 1.2508                 1.0592
 Frc consts  --     1.7397                 1.6998                 6.6011
 IR Inten    --    72.6815                32.6133                28.8673
 Raman Activ --     1.1967                 0.6325                69.1329

                   109                    110                    111
                     A                      A                      A
 Frequencies --  3257.0040              3259.7772              3262.5260
 Red. masses --     1.0813                 1.0568                 1.0807
 Frc consts  --     6.7581                 6.6162                 6.7776
 IR Inten    --     6.7693                33.0570                 9.3571
 Raman Activ --    18.9335                57.1865                84.3330

                   112                    113                    114
                     A                      A                      A
 Frequencies --  3269.4651              3272.0533              3275.5203
 Red. masses --     1.0827                 1.0835                 1.0832
 Frc consts  --     6.8190                 6.8344                 6.8474
 IR Inten    --     0.3020                13.4941                 4.7074
 Raman Activ --    51.6828                41.8320               210.8280

                   115                    116                    117
                     A                      A                      A
 Frequencies --  3282.0674              3282.8076              3290.3443
 Red. masses --     1.0852                 1.0849                 1.0883
 Frc consts  --     6.8873                 6.8888                 6.9416
 IR Inten    --     5.5518                32.4586                30.4808
 Raman Activ --    23.8159                12.5281                89.7349

                   118                    119                    120
                     A                      A                      A
 Frequencies --  3295.2848              3301.8407              3310.9177
 Red. masses --     1.0865                 1.0991                 1.0868
 Frc consts  --     6.9510                 7.0597                 7.0192
 IR Inten    --    54.7489                47.7415                44.5906
 Raman Activ --    22.6342                55.3482                12.9574

                   121                    122                    123
                     A                      A                      A
 Frequencies --  3318.7216              3340.8467              3360.1018
 Red. masses --     1.1071                 1.0668                 1.0633
 Frc consts  --     7.1839                 7.0150                 7.0729
 IR Inten    --    38.9538               305.0973                28.2971
 Raman Activ --    40.7067               174.1951                73.8789

                   124                    125                    126
                     A                      A                      A
 Frequencies --  3375.1594              3376.9729              3377.9926
 Red. masses --     1.0682                 1.0665                 1.0677
 Frc consts  --     7.1695                 7.1656                 7.1784
 IR Inten    --    97.2086                31.6565                54.0557
 Raman Activ --   118.3803               108.7645               141.7690

                   127                    128                    129
                     A                      A                      A
 Frequencies --  3383.0963              3886.0055              3888.3380
 Red. masses --     1.0660                 1.0676                 1.0674
 Frc consts  --     7.1884                 9.4991                 9.5082
 IR Inten    --    39.4359                78.7972                65.0664
 Raman Activ --    86.5654                93.4241               121.8413

 - Thermochemistry -
 -------------------
 Temperature   298.150 Kelvin.  Pressure   1.00000 Atm.
 Atom     1 has atomic number  8 and mass  15.99491

 Molecular mass:   342.11621 amu.
 Principal axes and moments of inertia in atomic units:
                           1         2         3
     Eigenvalues --  4834.11234********************
           X            0.99999  -0.00491   0.00121
           Y            0.00492   0.99997  -0.00624
           Z           -0.00117   0.00624   0.99998
 This molecule is an asymmetric top.
 Rotational symmetry number  1.
 Warning -- assumption of classical behavior for rotation
           may cause significant error
 Rotational temperatures (Kelvin)      0.01792     0.00719     0.00530
 Rotational constants (GHZ):           0.37333     0.14982     0.11052
    7 imaginary frequencies ignored.
 Zero-point vibrational energy     971843.3 (Joules/Mol)
                                  232.27611 (Kcal/Mol)
 Warning -- explicit consideration of  32 degrees of freedom as
           vibrations may cause significant error
 Vibrational temperatures:     53.41    56.06   112.41   130.36   151.52
          (Kelvin)            173.74   217.71   247.06   260.18   294.56
                              353.00   379.46   409.65   432.70   437.51
                              444.12   466.87   477.75   513.48   539.69
                              574.27   593.13   619.37   627.15   673.65
                              691.86   773.16   783.78   796.89   828.10
                              836.93   854.84   893.83   916.90   953.15
                              967.27   985.30  1038.56  1045.77  1170.55
                             1243.80  1260.91  1342.92  1377.09  1391.98
                             1408.43  1416.14  1421.83  1449.19  1461.63
                             1497.49  1517.97  1523.33  1529.50  1534.28
                             1541.12  1557.82  1574.98  1590.22  1603.85
                             1608.65  1609.53  1638.42  1649.81  1674.61
                             1684.35  1692.36  1699.80  1711.70  1744.44
                             1756.63  1773.25  1776.92  1797.82  1820.69
                             1836.27  1840.96  1850.51  1878.98  1888.05
                             1894.32  1908.41  1922.46  1932.71  1940.46
                             1946.67  1950.62  1982.41  1991.75  2008.35
                             2033.90  2037.06  2052.71  2055.33  2104.60
                             2111.59  2115.50  2139.16  2151.50  2185.07
                             4679.27  4686.10  4690.09  4694.04  4704.03
                             4707.75  4712.74  4722.16  4723.22  4734.07
                             4741.17  4750.61  4763.67  4774.89  4806.73
                             4834.43  4856.10  4858.70  4860.17  4867.51
                             5591.09  5594.44

 Zero-point correction=                           0.370156 (Hartree/Particle)
 Thermal correction to Energy=                    0.389027
 Thermal correction to Enthalpy=                  0.389971
 Thermal correction to Gibbs Free Energy=         0.323297
 Sum of electronic and zero-point Energies=          -1297.592030
 Sum of electronic and thermal Energies=             -1297.573158
 Sum of electronic and thermal Enthalpies=           -1297.572214
 Sum of electronic and thermal Free Energies=        -1297.638889

                     E (Thermal)             CV                S
                      KCal/Mol        Cal/Mol-Kelvin    Cal/Mol-Kelvin
 Total                  244.118             76.897            140.329
 Electronic               0.000              0.000              0.000
 Translational            0.889              2.981             43.384
 Rotational               0.889              2.981             35.207
 Vibrational            242.341             70.936             61.737
 Vibration     1          0.594              1.982              5.407
 Vibration     2          0.594              1.981              5.311
 Vibration     3          0.599              1.964              3.937
 Vibration     4          0.602              1.956              3.647
 Vibration     5          0.605              1.945              3.354
 Vibration     6          0.609              1.932              3.088
 Vibration     7          0.619              1.901              2.656
 Vibration     8          0.626              1.877              2.417
 Vibration     9          0.630              1.866              2.320
 Vibration    10          0.640              1.833              2.090
 Vibration    11          0.660              1.770              1.764
 Vibration    12          0.670              1.739              1.637
 Vibration    13          0.683              1.702              1.505
 Vibration    14          0.693              1.672              1.413
 Vibration    15          0.695              1.666              1.394
 Vibration    16          0.698              1.657              1.369
 Vibration    17          0.709              1.626              1.287
 Vibration    18          0.714              1.611              1.250
 Vibration    19          0.732              1.561              1.136
 Vibration    20          0.746              1.523              1.059
 Vibration    21          0.765              1.472              0.966
 Vibration    22          0.776              1.444              0.919
 Vibration    23          0.792              1.404              0.857
 Vibration    24          0.796              1.392              0.840
 Vibration    25          0.825              1.321              0.743
 Vibration    26          0.837              1.292              0.708
 Vibration    27          0.892              1.167              0.571
 Vibration    28          0.900              1.151              0.555
 Vibration    29          0.909              1.131              0.536
 Vibration    30          0.932              1.084              0.494
 Vibration    31          0.938              1.071              0.482
 Vibration    32          0.952              1.044              0.460

 Normal termination of Gaussian 09 at Sun Apr  3 00:15:43 2016.
