 Gaussian 09, Revision B.01,
 Gaussian 09:  EM64L-G09RevB.01 12-Aug-2010

 -------------------------------------------------
 # freq=raman b3lyp/6-31+g(2d,p) geom=connectivity
 -------------------------------------------------

 -----------------
 320 7742/7742.com
 -----------------
 Symbolic Z-matrix:
 Charge =  0 Multiplicity = 1

                         Standard orientation:
 ---------------------------------------------------------------------
 Center     Atomic      Atomic             Coordinates (Angstroms)
 Number     Number       Type             X           Y           Z
 ---------------------------------------------------------------------
      1          8           0       -5.017867   -0.402071    0.359702
      2          6           0       -3.721394   -0.130138   -0.191342
      3          6           0       -3.352484    1.235227    0.366322
      4          8           0       -4.219276    2.316391   -0.005937
      5          1           0       -5.126134    1.898808    0.055989
      6          6           0       -1.935606    1.536489   -0.091268
      7          8           0       -1.303904    2.775564    0.261017
      8          1           0       -0.411607    2.831454   -0.185428
      9          6           0       -2.915234   -2.576780   -0.123900
     10          8           0       -4.135858   -3.296743    0.102027
     11          1           0       -3.962921   -4.267529   -0.061842
     12          6           0       -2.704751   -1.137386    0.319879
     13          8           0       -1.447548   -0.775014   -0.268961
     14          6           0       -0.949633    0.446698    0.296006
     15          8           0        0.205378    0.507417   -0.554134
     16          6           0        1.477092    0.188330    0.028182
     17          6           0        2.012647   -1.175423   -0.375703
     18          8           0        1.056974   -2.214924   -0.121137
     19          1           0        0.210157   -1.909640   -0.555109
     20          6           0        3.399307   -1.480082    0.169650
     21          8           0        4.076203   -2.527424   -0.539384
     22          1           0        4.809167   -2.853293    0.056809
     23          6           0        2.208977    2.567994    0.071178
     24          8           0        1.196729    3.159630   -0.755981
     25          1           0        1.210547    4.156833   -0.676957
     26          6           0        2.636939    1.138895   -0.221655
     27          8           0        3.785389    0.920894    0.611157
     28          6           0        4.330370   -0.284249    0.054278
     29          8           0        5.533744   -0.521118    0.797786
     30          1           0        6.231071   -0.797147    0.198500
     31          1           0        3.080337    3.185635    0.006750
     32          1           0        1.859272    2.599661    1.081922
     33          1           0        2.931685    1.066142   -1.247682
     34          1           0        1.325806    0.160481    1.087067
     35          1           0        2.123725   -1.138758   -1.439290
     36          1           0        3.313938   -1.756421    1.199820
     37          1           0        4.574383   -0.121740   -0.974775
     38          1           0       -5.604603   -0.705065   -0.337102
     39          1           0       -2.136002   -3.151233    0.331842
     40          1           0       -2.743033   -2.596422   -1.179770
     41          1           0       -2.638894   -1.086284    1.386627
     42          1           0       -3.750320   -0.115671   -1.260853
     43          1           0       -3.349945    1.166784    1.434128
     44          1           0       -1.976827    1.529221   -1.160449
     45          1           0       -0.726889    0.385919    1.340798
 ---------------------------------------------------------------------

 SCF Done:  E(RB3LYP) =  -1297.97742629     A.U. after   13 cycles

 The electronic state is 1-A.
 Alpha  occ. eigenvalues --  -19.18799 -19.18530 -19.17956 -19.17863 -19.17695
 Alpha  occ. eigenvalues --  -19.16991 -19.16872 -19.16321 -19.15431 -19.14473
 Alpha  occ. eigenvalues --  -19.12975 -10.30504 -10.30434 -10.26060 -10.25541
 Alpha  occ. eigenvalues --  -10.25488 -10.25399 -10.25213 -10.24879 -10.24492
 Alpha  occ. eigenvalues --  -10.24319 -10.24131 -10.23748  -1.10471  -1.09698
 Alpha  occ. eigenvalues --   -1.05425  -1.05154  -1.04333  -1.03630  -1.02977
 Alpha  occ. eigenvalues --   -1.02575  -1.01975  -1.01182  -0.99879  -0.82539
 Alpha  occ. eigenvalues --   -0.80366  -0.79102  -0.78418  -0.71734  -0.69846
 Alpha  occ. eigenvalues --   -0.67160  -0.65142  -0.63463  -0.62191  -0.61699
 Alpha  occ. eigenvalues --   -0.60737  -0.56650  -0.55625  -0.54768  -0.54467
 Alpha  occ. eigenvalues --   -0.53891  -0.53724  -0.52956  -0.52448  -0.51498
 Alpha  occ. eigenvalues --   -0.50432  -0.49854  -0.48976  -0.48573  -0.46554
 Alpha  occ. eigenvalues --   -0.45870  -0.45028  -0.44558  -0.44033  -0.43644
 Alpha  occ. eigenvalues --   -0.42626  -0.42067  -0.41037  -0.40710  -0.39923
 Alpha  occ. eigenvalues --   -0.38767  -0.38272  -0.37233  -0.36676  -0.36191
 Alpha  occ. eigenvalues --   -0.35590  -0.35209  -0.34597  -0.34061  -0.33474
 Alpha  occ. eigenvalues --   -0.32888  -0.32221  -0.31450  -0.30422  -0.29685
 Alpha  occ. eigenvalues --   -0.29444  -0.28707  -0.28619  -0.27233  -0.26464
 Alpha  occ. eigenvalues --   -0.26387
 Alpha virt. eigenvalues --   -0.01922  -0.01806  -0.01585  -0.00251   0.00201
 Alpha virt. eigenvalues --    0.00853   0.01904   0.02329   0.02980   0.03028
 Alpha virt. eigenvalues --    0.03807   0.04097   0.04540   0.05278   0.05675

 Mulliken atomic charges:
              1
     1  O   -0.548636
     2  C    0.058581
     3  C    0.137867
     4  O   -0.546347
     5  H    0.340865
     6  C   -0.081218
     7  O   -0.608639
     8  H    0.429283
     9  C   -0.268247
    10  O   -0.546359
    11  H    0.338578
    12  C    0.148190
    13  O   -0.205078
    14  C    0.301830
    15  O   -0.238098
    16  C    0.235168
    17  C   -0.107077
    18  O   -0.542491
    19  H    0.364817
    20  C    0.168448
    21  O   -0.531596
    22  H    0.339499
    23  C   -0.290177
    24  O   -0.576542
    25  H    0.364135
    26  C    0.092877
    27  O   -0.256939
    28  C    0.075412
    29  O   -0.566779
    30  H    0.338631
    31  H    0.144600
    32  H    0.158884
    33  H    0.121851
    34  H    0.107793
    35  H    0.119279
    36  H    0.136620
    37  H    0.132279
    38  H    0.339490
    39  H    0.150417
    40  H    0.141223
    41  H    0.113284
    42  H    0.128311
    43  H    0.120232
    44  H    0.127241
    45  H    0.138539
 Sum of Mulliken atomic charges =   0.00000

 Dipole moment (field-independent basis, Debye):
    X=              2.2982    Y=             -1.3072    Z=             -1.6811  Tot=              3.1331
 Quadrupole moment (field-independent basis, Debye-Ang):
   XX=           -123.3283   YY=           -136.0352   ZZ=           -140.0561
   XY=             12.8293   XZ=              2.0499   YZ=             -2.2064

  Exact polarizability: 233.802  -1.233 196.022   1.033   0.545 143.085
 Approx polarizability: 274.414  -0.793 255.570   1.222   1.177 241.010

 ******    6 imaginary frequencies (negative Signs) ******

                     1                      2                      3
                     A                      A                      A
 Frequencies --  -297.5258              -247.5148              -227.6357
 Red. masses --     1.7317                 1.7989                 1.2125
 Frc consts  --     0.0903                 0.0649                 0.0370
 IR Inten    --     5.1126                 9.1920               129.7105
 Raman Activ --     0.0529                 0.0576                 0.9380

                     4                      5                      6
                     A                      A                      A
 Frequencies --  -172.3385               -61.7126               -33.9029
 Red. masses --     1.1675                 6.5388                 5.9015
 Frc consts  --     0.0204                 0.0147                 0.0040
 IR Inten    --    97.3166                 1.9363                 0.5955
 Raman Activ --     0.6528                 0.0601                 0.0188

                     7                      8                      9
                     A                      A                      A
 Frequencies --    41.4440                52.4346                82.7751
 Red. masses --     7.2909                 6.5102                 5.4928
 Frc consts  --     0.0074                 0.0105                 0.0222
 IR Inten    --     1.2686                 1.0003                 7.3619
 Raman Activ --     0.0740                 0.0587                 0.2839

                    10                     11                     12
                     A                      A                      A
 Frequencies --    84.8998               111.2508               138.2739
 Red. masses --     6.3601                 6.3094                 5.7276
 Frc consts  --     0.0270                 0.0460                 0.0645
 IR Inten    --     0.5962                 4.0452                 0.6645
 Raman Activ --     0.1400                 0.0577                 0.0196

                    13                     14                     15
                     A                      A                      A
 Frequencies --   154.3877               181.6806               197.2073
 Red. masses --     6.4290                 7.9039                 6.2655
 Frc consts  --     0.0903                 0.1537                 0.1436
 IR Inten    --     4.9460                 0.7606                 2.3772
 Raman Activ --     0.3264                 0.4957                 2.5259

                    16                     17                     18
                     A                      A                      A
 Frequencies --   210.5217               234.8999               271.2923
 Red. masses --     5.9913                 6.2710                 5.1185
 Frc consts  --     0.1564                 0.2039                 0.2220
 IR Inten    --     2.9810                 2.1007                 8.9572
 Raman Activ --     0.1901                 0.9770                 0.2844

                    19                     20                     21
                     A                      A                      A
 Frequencies --   283.3742               294.5999               302.3710
 Red. masses --     6.0288                 4.3972                 4.3676
 Frc consts  --     0.2852                 0.2248                 0.2353
 IR Inten    --     4.0957                 9.5561                 0.7430
 Raman Activ --     0.2987                 0.4060                 0.2046

                    22                     23                     24
                     A                      A                      A
 Frequencies --   306.8020               320.8181               326.6047
 Red. masses --     6.9049                 5.1276                 6.2280
 Frc consts  --     0.3829                 0.3109                 0.3914
 IR Inten    --     4.5709                 2.9752                 2.9571
 Raman Activ --     0.8596                 1.0590                 3.1873

                    25                     26                     27
                     A                      A                      A
 Frequencies --   342.4854               360.5765               382.5443
 Red. masses --     6.9127                 4.6393                 7.1095
 Frc consts  --     0.4777                 0.3554                 0.6130
 IR Inten    --     7.8096                 6.5153                 0.8651
 Raman Activ --     3.6183                 0.3281                 2.7848

                    28                     29                     30
                     A                      A                      A
 Frequencies --   412.8571               422.3817               434.3028
 Red. masses --     5.3616                 6.0562                 3.9524
 Frc consts  --     0.5384                 0.6366                 0.4392
 IR Inten    --     8.7220                 3.2617                11.5345
 Raman Activ --     2.8816                 0.7199                 3.5672

                    31                     32                     33
                     A                      A                      A
 Frequencies --   445.6409               475.3086               496.6117
 Red. masses --     4.7933                 4.4356                 5.6716
 Frc consts  --     0.5609                 0.5904                 0.8241
 IR Inten    --     0.3281                 8.4925                 7.2953
 Raman Activ --     6.0548                 4.1780                 0.2027

                    34                     35                     36
                     A                      A                      A
 Frequencies --   518.5118               527.7429               567.2356
 Red. masses --     3.3551                 2.8820                 2.9920
 Frc consts  --     0.5315                 0.4729                 0.5672
 IR Inten    --    12.6648                17.0737                15.3444
 Raman Activ --     4.7349                 1.4877                 1.0585

                    37                     38                     39
                     A                      A                      A
 Frequencies --   583.0942               607.2930               626.7026
 Red. masses --     3.6651                 5.8533                 5.9343
 Frc consts  --     0.7342                 1.2719                 1.3732
 IR Inten    --    38.0837                 3.8229                16.1926
 Raman Activ --     0.4921                 0.6950                 0.2568

                    40                     41                     42
                     A                      A                      A
 Frequencies --   633.7578               693.1326               706.5375
 Red. masses --     4.1450                 1.0761                 5.4939
 Frc consts  --     0.9809                 0.3046                 1.6159
 IR Inten    --    40.5384               104.6856                17.2843
 Raman Activ --     1.1880                 1.6461                 2.7255

                    43                     44                     45
                     A                      A                      A
 Frequencies --   742.5637               744.0026               748.9870
 Red. masses --     1.0860                 1.0827                 1.0911
 Frc consts  --     0.3528                 0.3531                 0.3606
 IR Inten    --    28.3586               124.7270               226.6271
 Raman Activ --     1.5662                 1.9676                 4.0036

                    46                     47                     48
                     A                      A                      A
 Frequencies --   773.5098               847.1726               856.0082
 Red. masses --     1.0814                 1.7649                 1.4061
 Frc consts  --     0.3812                 0.7463                 0.6071
 IR Inten    --    80.4828                 2.8607                26.3700
 Raman Activ --     1.3189                 0.9819                 0.1606

                    49                     50                     51
                     A                      A                      A
 Frequencies --   889.4849               919.2120               962.7795
 Red. masses --     1.3888                 3.7729                 4.3470
 Frc consts  --     0.6474                 1.8782                 2.3740
 IR Inten    --    34.1549                81.7195                35.0705
 Raman Activ --     0.8300                 2.4884                 0.9867

                    52                     53                     54
                     A                      A                      A
 Frequencies --   973.2870               980.4345               982.7709
 Red. masses --     4.2634                 6.3238                 5.0896
 Frc consts  --     2.3795                 3.5815                 2.8963
 IR Inten    --    36.9601                17.1859                79.0865
 Raman Activ --     4.5153                 2.2936                 1.2120

                    55                     56                     57
                     A                      A                      A
 Frequencies --   995.3267              1006.1286              1024.1446
 Red. masses --     6.7270                 5.6529                 5.9908
 Frc consts  --     3.9265                 3.3716                 3.7022
 IR Inten    --   595.2374                33.7071               287.7432
 Raman Activ --     2.4796                 2.1679                 3.3387

                    58                     59                     60
                     A                      A                      A
 Frequencies --  1035.1836              1056.0732              1067.0741
 Red. masses --     6.1435                 6.3526                 4.1583
 Frc consts  --     3.8788                 4.1743                 2.7897
 IR Inten    --   111.8381                39.0625                26.9246
 Raman Activ --     0.5362                 3.5383                 1.9141

                    61                     62                     63
                     A                      A                      A
 Frequencies --  1070.8578              1080.6690              1082.2371
 Red. masses --     3.5933                 3.5819                 3.8545
 Frc consts  --     2.4278                 2.4646                 2.6599
 IR Inten    --     2.5076                51.2872                14.2785
 Raman Activ --     9.9111                14.9505                23.2099

                    64                     65                     66
                     A                      A                      A
 Frequencies --  1096.6555              1107.0120              1114.5094
 Red. masses --     3.3638                 2.6902                 3.2112
 Frc consts  --     2.3835                 1.9424                 2.3501
 IR Inten    --   144.4883                46.8598                16.6268
 Raman Activ --     7.7909                 3.8759                 3.1832

                    67                     68                     69
                     A                      A                      A
 Frequencies --  1123.7286              1127.5526              1138.3672
 Red. masses --     2.7716                 2.6875                 2.3111
 Frc consts  --     2.0621                 2.0131                 1.7646
 IR Inten    --     6.7421                43.5414                42.1569
 Raman Activ --     2.1000                 7.8512                 4.2679

                    70                     71                     72
                     A                      A                      A
 Frequencies --  1143.4651              1151.7511              1164.3476
 Red. masses --     2.5057                 2.1808                 2.1330
 Frc consts  --     1.9303                 1.7044                 1.7037
 IR Inten    --    40.4132                32.6894                22.4743
 Raman Activ --     3.2261                 4.7523                 4.3462

                    73                     74                     75
                     A                      A                      A
 Frequencies --  1165.7320              1173.7769              1185.1849
 Red. masses --     1.7138                 1.7277                 2.2600
 Frc consts  --     1.3722                 1.4024                 1.8704
 IR Inten    --     2.1668                18.3741                 9.5579
 Raman Activ --     0.7666                 2.5283                 0.7850

                    76                     77                     78
                     A                      A                      A
 Frequencies --  1195.3827              1209.6359              1216.3854
 Red. masses --     1.2792                 1.3222                 1.5017
 Frc consts  --     1.0770                 1.1399                 1.3091
 IR Inten    --    29.1137                 2.4229                 9.1590
 Raman Activ --     3.9110                 0.3572                 3.1628

                    79                     80                     81
                     A                      A                      A
 Frequencies --  1229.5392              1251.6669              1261.6081
 Red. masses --     1.3173                 1.3118                 1.1797
 Frc consts  --     1.1733                 1.2109                 1.1063
 IR Inten    --     1.6739                11.6244                23.0107
 Raman Activ --     1.3599                 0.5187                 0.6545

                    82                     83                     84
                     A                      A                      A
 Frequencies --  1267.8862              1285.9802              1289.3125
 Red. masses --     1.2639                 1.2830                 1.3621
 Frc consts  --     1.1971                 1.2501                 1.3341
 IR Inten    --    16.8628                23.9541                13.9450
 Raman Activ --     1.8417                 3.9630                 1.5027

                    85                     86                     87
                     A                      A                      A
 Frequencies --  1294.6149              1302.7343              1313.2559
 Red. masses --     1.3998                 1.1745                 1.2725
 Frc consts  --     1.3822                 1.1744                 1.2930
 IR Inten    --    31.6395                 7.1834                16.6320
 Raman Activ --     0.7491                 6.5157                 5.6336

                    88                     89                     90
                     A                      A                      A
 Frequencies --  1320.7313              1331.0934              1338.8703
 Red. masses --     1.2833                 1.3266                 1.2098
 Frc consts  --     1.3189                 1.3848                 1.2778
 IR Inten    --     5.2653                36.0086                60.5014
 Raman Activ --     4.6145                 4.1179                 7.9070

                    91                     92                     93
                     A                      A                      A
 Frequencies --  1347.4580              1348.8507              1353.9333
 Red. masses --     1.1814                 1.2594                 1.2413
 Frc consts  --     1.2638                 1.3501                 1.3407
 IR Inten    --    18.7942                10.7414                21.3525
 Raman Activ --     2.0962                 8.5227                 2.5845

                    94                     95                     96
                     A                      A                      A
 Frequencies --  1364.6796              1366.0988              1372.2410
 Red. masses --     1.4667                 1.2309                 1.4270
 Frc consts  --     1.6093                 1.3534                 1.5831
 IR Inten    --     2.5230                19.4987                18.7290
 Raman Activ --     4.4758                 9.2549                 3.6020

                    97                     98                     99
                     A                      A                      A
 Frequencies --  1385.8929              1388.5593              1404.0902
 Red. masses --     1.3006                 1.5870                 1.2791
 Frc consts  --     1.4719                 1.8029                 1.4858
 IR Inten    --     9.2575                10.4799                 1.1145
 Raman Activ --     3.4763                 4.0323                 6.0381

                   100                    101                    102
                     A                      A                      A
 Frequencies --  1445.5352              1453.4267              1460.7330
 Red. masses --     1.3043                 1.3661                 1.3754
 Frc consts  --     1.6058                 1.7002                 1.7291
 IR Inten    --    44.6667                39.2580                25.3009
 Raman Activ --     1.3725                 1.7056                 0.7769

                   103                    104                    105
                     A                      A                      A
 Frequencies --  1468.4167              1475.7803              1479.0249
 Red. masses --     1.2087                 1.2246                 1.0883
 Frc consts  --     1.5355                 1.5714                 1.4027
 IR Inten    --    13.0123                 3.4540                 2.8076
 Raman Activ --     5.2915                 1.1907                 4.1912

                   106                    107                    108
                     A                      A                      A
 Frequencies --  1497.1657              1499.8261              3238.8846
 Red. masses --     1.3027                 1.3056                 1.0690
 Frc consts  --     1.7205                 1.7304                 6.6075
 IR Inten    --    21.5326                56.6073               827.5147
 Raman Activ --     3.1708                 1.0152               120.2583

                   109                    110                    111
                     A                      A                      A
 Frequencies --  3255.6653              3261.3438              3263.6482
 Red. masses --     1.0579                 1.0770                 1.0649
 Frc consts  --     6.6066                 6.7496                 6.6832
 IR Inten    --    41.9128                39.9377                19.5323
 Raman Activ --    80.2941                19.2847               285.8439

                   112                    113                    114
                     A                      A                      A
 Frequencies --  3267.3906              3269.2213              3279.4935
 Red. masses --     1.0819                 1.0804                 1.0853
 Frc consts  --     6.8049                 6.8032                 6.8770
 IR Inten    --     0.8573                37.1505                 4.5890
 Raman Activ --     5.3587                44.9059                35.4851

                   115                    116                    117
                     A                      A                      A
 Frequencies --  3280.1833              3281.7685              3284.2476
 Red. masses --     1.0854                 1.0847                 1.0842
 Frc consts  --     6.8808                 6.8833                 6.8904
 IR Inten    --     5.5003                15.8568                21.5678
 Raman Activ --    73.3984                45.3089                99.4909

                   118                    119                    120
                     A                      A                      A
 Frequencies --  3300.2321              3300.8134              3306.4986
 Red. masses --     1.0879                 1.0900                 1.0934
 Frc consts  --     6.9809                 6.9969                 7.0430
 IR Inten    --    46.5302                 6.4513                 7.2297
 Raman Activ --     9.4779                39.9486                33.3094

                   121                    122                    123
                     A                      A                      A
 Frequencies --  3310.6661              3316.5190              3348.6626
 Red. masses --     1.0942                 1.1059                 1.0663
 Frc consts  --     7.0663                 7.1669                 7.0446
 IR Inten    --    84.2620                56.3136               311.7861
 Raman Activ --    13.9172                42.9402               132.8469

                   124                    125                    126
                     A                      A                      A
 Frequencies --  3361.6972              3367.4248              3373.1844
 Red. masses --     1.0645                 1.0673                 1.0673
 Frc consts  --     7.0876                 7.1308                 7.1551
 IR Inten    --    34.1811                70.7342                50.4644
 Raman Activ --    98.4592               135.1859               155.8527

                   127                    128                    129
                     A                      A                      A
 Frequencies --  3379.8021              3889.7529              3893.0695
 Red. masses --     1.0661                 1.0674                 1.0672
 Frc consts  --     7.1754                 9.5151                 9.5301
 IR Inten    --    43.0612                70.2678                74.2927
 Raman Activ --   130.3593                93.0181               102.0094

 - Thermochemistry -
 -------------------
 Temperature   298.150 Kelvin.  Pressure   1.00000 Atm.
 Atom     1 has atomic number  8 and mass  15.99491

 Molecular mass:   342.11621 amu.
 Principal axes and moments of inertia in atomic units:
                           1         2         3
     Eigenvalues --  4329.49020********************
           X            0.99998   0.00654  -0.00033
           Y           -0.00654   0.99998   0.00037
           Z            0.00033  -0.00037   1.00000
 This molecule is an asymmetric top.
 Rotational symmetry number  1.
 Warning -- assumption of classical behavior for rotation
           may cause significant error
 Rotational temperatures (Kelvin)      0.02001     0.00695     0.00531
 Rotational constants (GHZ):           0.41685     0.14484     0.11063
    6 imaginary frequencies ignored.
 Zero-point vibrational energy     977426.3 (Joules/Mol)
                                  233.61050 (Kcal/Mol)
 Warning -- explicit consideration of  32 degrees of freedom as
           vibrations may cause significant error
 Vibrational temperatures:     59.63    75.44   119.09   122.15   160.06
          (Kelvin)            198.95   222.13   261.40   283.74   302.89
                              337.97   390.33   407.71   423.86   435.04
                              441.42   461.59   469.91   492.76   518.79
                              550.40   594.01   607.71   624.86   641.18
                              683.86   714.51   746.02   759.30   816.12
                              838.94   873.76   901.68   911.83   997.26
                             1016.55  1068.38  1070.45  1077.62  1112.91
                             1218.89  1231.60  1279.77  1322.54  1385.22
                             1400.34  1410.62  1413.99  1432.05  1447.59
                             1473.51  1489.40  1519.45  1535.28  1540.72
                             1554.84  1557.10  1577.84  1592.74  1603.53
                             1616.79  1622.29  1637.85  1645.19  1657.11
                             1675.23  1677.23  1688.80  1705.21  1719.89
                             1740.39  1750.11  1769.03  1800.87  1815.17
                             1824.20  1850.24  1855.03  1862.66  1874.34
                             1889.48  1900.24  1915.14  1926.33  1938.69
                             1940.69  1948.01  1963.47  1965.51  1974.35
                             1993.99  1997.82  2020.17  2079.80  2091.15
                             2101.67  2112.72  2123.32  2127.98  2154.08
                             2157.91  4660.03  4684.17  4692.34  4695.66
                             4701.04  4703.67  4718.45  4719.45  4721.73
                             4725.29  4748.29  4749.13  4757.31  4763.30
                             4771.73  4817.97  4836.73  4844.97  4853.25
                             4862.78  5596.48  5601.25

 Zero-point correction=                           0.372282 (Hartree/Particle)
 Thermal correction to Energy=                    0.391183
 Thermal correction to Enthalpy=                  0.392127
 Thermal correction to Gibbs Free Energy=         0.325921
 Sum of electronic and zero-point Energies=          -1297.605144
 Sum of electronic and thermal Energies=             -1297.586244
 Sum of electronic and thermal Enthalpies=           -1297.585299
 Sum of electronic and thermal Free Energies=        -1297.651506

                     E (Thermal)             CV                S
                      KCal/Mol        Cal/Mol-Kelvin    Cal/Mol-Kelvin
 Total                  245.471             77.421            139.343
 Electronic               0.000              0.000              0.000
 Translational            0.889              2.981             43.384
 Rotational               0.889              2.981             35.130
 Vibrational            243.693             71.459             60.828
 Vibration     1          0.594              1.981              5.189
 Vibration     2          0.596              1.977              4.723
 Vibration     3          0.600              1.961              3.824
 Vibration     4          0.601              1.960              3.774
 Vibration     5          0.607              1.940              3.247
 Vibration     6          0.614              1.915              2.828
 Vibration     7          0.620              1.898              2.617
 Vibration     8          0.630              1.865              2.311
 Vibration     9          0.637              1.844              2.159
 Vibration    10          0.643              1.825              2.039
 Vibration    11          0.655              1.787              1.841
 Vibration    12          0.675              1.726              1.588
 Vibration    13          0.682              1.704              1.513
 Vibration    14          0.689              1.684              1.447
 Vibration    15          0.694              1.669              1.404
 Vibration    16          0.697              1.661              1.380
 Vibration    17          0.706              1.634              1.306
 Vibration    18          0.710              1.622              1.277
 Vibration    19          0.722              1.591              1.201
 Vibration    20          0.735              1.553              1.120
 Vibration    21          0.752              1.507              1.029
 Vibration    22          0.777              1.442              0.917
 Vibration    23          0.785              1.422              0.884
 Vibration    24          0.795              1.395              0.845
 Vibration    25          0.805              1.371              0.809
 Vibration    26          0.832              1.305              0.723
 Vibration    27          0.852              1.258              0.667
 Vibration    28          0.874              1.209              0.613
 Vibration    29          0.883              1.189              0.592
 Vibration    30          0.923              1.102              0.510
 Vibration    31          0.940              1.068              0.480
 Vibration    32          0.966              1.016              0.437

 Normal termination of Gaussian 09 at Thu Mar 24 17:04:14 2016.
