 Gaussian 09, Revision B.01,
 Gaussian 09:  EM64L-G09RevB.01 12-Aug-2010

 -------------------------------------------------
 # freq=raman b3lyp/6-31+g(2d,p) geom=connectivity
 -------------------------------------------------

 -----------------
 280 7648/7648.com
 -----------------
 Symbolic Z-matrix:
 Charge =  0 Multiplicity = 1

                         Standard orientation:
 ---------------------------------------------------------------------
 Center     Atomic      Atomic             Coordinates (Angstroms)
 Number     Number       Type             X           Y           Z
 ---------------------------------------------------------------------
      1          8           0        5.042395   -0.316128   -0.234491
      2          6           0        3.725222   -0.109997    0.296968
      3          6           0        3.208011    1.232011   -0.193958
      4          8           0        4.146906    2.303992   -0.023740
      5          1           0        4.994527    1.792316   -0.167600
      6          6           0        1.784863    1.551918    0.234449
      7          8           0        1.316626    2.829624   -0.222377
      8          1           0        0.436477    3.064019    0.188797
      9          6           0        3.148138   -2.556277    0.092809
     10          8           0        4.381657   -3.006362   -0.484449
     11          1           0        4.261537   -3.996516   -0.411188
     12          6           0        2.767296   -1.134172   -0.287740
     13          8           0        1.404437   -0.918051    0.107990
     14          6           0        0.933052    0.389864   -0.247113
     15          8           0       -0.276727    0.631431    0.485842
     16          6           0       -1.553188    0.180637    0.010506
     17          6           0       -2.025250   -1.130985    0.616126
     18          8           0       -0.974539   -2.107520    0.649822
     19          1           0       -0.077837   -1.714391    0.855672
     20          6           0       -3.261220   -1.538857   -0.168865
     21          8           0       -3.775756   -2.830389    0.184435
     22          1           0       -4.721468   -2.935951   -0.125132
     23          6           0       -2.434300    2.586470   -0.236205
     24          8           0       -1.351808    3.363033    0.297289
     25          1           0       -1.729014    4.253845    0.548970
     26          6           0       -2.678605    1.171582    0.261776
     27          8           0       -3.916988    0.791900   -0.355271
     28          6           0       -4.366698   -0.514727    0.030010
     29          8           0       -5.480694   -0.718015   -0.850656
     30          1           0       -6.260984   -0.934336   -0.334950
     31          1           0       -3.004578   -1.555690   -1.207495
     32          1           0       -4.693410   -0.510140    1.048901
     33          1           0       -2.325471   -0.939147    1.625069
     34          1           0       -1.472458    0.040404   -1.047188
     35          1           0       -2.839154    1.219381    1.318582
     36          1           0       -3.333720    3.140432   -0.065712
     37          1           0       -2.288336    2.527426   -1.294557
     38          1           0        5.652103   -0.500180    0.483827
     39          1           0        2.365316   -3.213750   -0.223133
     40          1           0        3.231179   -2.612254    1.158113
     41          1           0        2.815712   -1.055411   -1.353739
     42          1           0        3.729003   -0.152831    1.366104
     43          1           0        3.138791    1.112620   -1.255021
     44          1           0        1.757488    1.558176    1.304080
     45          1           0        0.756289    0.459054   -1.300141
 ---------------------------------------------------------------------

 SCF Done:  E(RB3LYP) =  -1297.98805480     A.U. after   14 cycles

 The electronic state is 1-A.
 Alpha  occ. eigenvalues --  -19.18991 -19.18564 -19.18421 -19.18022 -19.17773
 Alpha  occ. eigenvalues --  -19.17703 -19.16594 -19.16056 -19.14318 -19.13655
 Alpha  occ. eigenvalues --  -19.13577 -10.30994 -10.30485 -10.25830 -10.25597
 Alpha  occ. eigenvalues --  -10.25548 -10.25369 -10.25033 -10.24927 -10.24519
 Alpha  occ. eigenvalues --  -10.24209 -10.24123 -10.23414  -1.09909  -1.09448
 Alpha  occ. eigenvalues --   -1.05924  -1.05102  -1.04165  -1.03548  -1.03259
 Alpha  occ. eigenvalues --   -1.02633  -1.01497  -1.00253  -0.99612  -0.82612
 Alpha  occ. eigenvalues --   -0.80935  -0.79646  -0.78394  -0.71761  -0.69946
 Alpha  occ. eigenvalues --   -0.67367  -0.64414  -0.62865  -0.62456  -0.61765
 Alpha  occ. eigenvalues --   -0.60350  -0.56573  -0.55967  -0.55314  -0.54925
 Alpha  occ. eigenvalues --   -0.54391  -0.53192  -0.52574  -0.51660  -0.50808
 Alpha  occ. eigenvalues --   -0.50750  -0.49904  -0.49106  -0.48438  -0.46459
 Alpha  occ. eigenvalues --   -0.45937  -0.45074  -0.44527  -0.43860  -0.43324
 Alpha  occ. eigenvalues --   -0.42511  -0.41775  -0.41116  -0.40529  -0.39274
 Alpha  occ. eigenvalues --   -0.39100  -0.38183  -0.37692  -0.37071  -0.36560
 Alpha  occ. eigenvalues --   -0.35016  -0.34755  -0.34500  -0.33778  -0.33200
 Alpha  occ. eigenvalues --   -0.32838  -0.31293  -0.30801  -0.30227  -0.30015
 Alpha  occ. eigenvalues --   -0.29435  -0.29016  -0.28011  -0.27114  -0.26638
 Alpha  occ. eigenvalues --   -0.26387
 Alpha virt. eigenvalues --   -0.02303  -0.01980  -0.01888  -0.00209   0.00294
 Alpha virt. eigenvalues --    0.00802   0.01702   0.02156   0.03359   0.03523
 Alpha virt. eigenvalues --    0.04045   0.04199   0.04839   0.05288   0.05438

 Mulliken atomic charges:
              1
     1  O   -0.550566
     2  C    0.002038
     3  C    0.120523
     4  O   -0.576249
     5  H    0.350880
     6  C    0.090713
     7  O   -0.558543
     8  H    0.398381
     9  C   -0.233906
    10  O   -0.490105
    11  H    0.334578
    12  C    0.090823
    13  O   -0.257088
    14  C    0.270138
    15  O   -0.276683
    16  C    0.119942
    17  C    0.141463
    18  O   -0.550085
    19  H    0.373618
    20  C    0.101141
    21  O   -0.544604
    22  H    0.332443
    23  C   -0.349298
    24  O   -0.549857
    25  H    0.354759
    26  C    0.074260
    27  O   -0.228673
    28  C    0.085183
    29  O   -0.524976
    30  H    0.335238
    31  H    0.125137
    32  H    0.131115
    33  H    0.106795
    34  H    0.105415
    35  H    0.115658
    36  H    0.141647
    37  H    0.159953
    38  H    0.346297
    39  H    0.150264
    40  H    0.137421
    41  H    0.120396
    42  H    0.119234
    43  H    0.104628
    44  H    0.120788
    45  H    0.129766
 Sum of Mulliken atomic charges =   0.00000

 Dipole moment (field-independent basis, Debye):
    X=             -3.0862    Y=             -0.8480    Z=              2.6309  Tot=              4.1432
 Quadrupole moment (field-independent basis, Debye-Ang):
   XX=           -115.6933   YY=           -139.9663   ZZ=           -138.2115
   XY=            -20.7851   XZ=              1.5787   YZ=              4.4680

  Exact polarizability: 233.875   0.861 196.919   1.177  -0.474 144.576
 Approx polarizability: 276.436   0.005 258.193   0.063  -0.288 239.124

 ******    6 imaginary frequencies (negative Signs) ******

                     1                      2                      3
                     A                      A                      A
 Frequencies --  -258.7605              -255.6263              -201.5649
 Red. masses --     1.6750                 1.6916                 1.3042
 Frc consts  --     0.0661                 0.0651                 0.0312
 IR Inten    --    29.4698                 1.2685                64.0976
 Raman Activ --     0.1735                 0.0424                 0.5566

                     4                      5                      6
                     A                      A                      A
 Frequencies --  -185.6044               -73.4067               -43.9987
 Red. masses --     1.2505                 6.5692                 6.4088
 Frc consts  --     0.0254                 0.0209                 0.0073
 IR Inten    --   106.2233                 1.0383                 0.4130
 Raman Activ --     0.6888                 0.0488                 0.0407

                     7                      8                      9
                     A                      A                      A
 Frequencies --    10.4801                57.7568                69.2125
 Red. masses --     6.6342                 6.0508                 6.7382
 Frc consts  --     0.0004                 0.0119                 0.0190
 IR Inten    --     0.2228                 1.4620                 0.1838
 Raman Activ --     0.0466                 0.0948                 0.2399

                    10                     11                     12
                     A                      A                      A
 Frequencies --    89.3443               114.3553               118.0057
 Red. masses --     6.4330                 5.7722                 5.6851
 Frc consts  --     0.0303                 0.0445                 0.0466
 IR Inten    --     2.1269                 1.2973                 8.0644
 Raman Activ --     0.2032                 0.1381                 0.0409

                    13                     14                     15
                     A                      A                      A
 Frequencies --   150.7769               171.4520               195.7852
 Red. masses --     6.2454                 6.7051                 6.2620
 Frc consts  --     0.0837                 0.1161                 0.1414
 IR Inten    --     4.1864                 1.9351                 0.4902
 Raman Activ --     0.4251                 0.6529                 0.1586

                    16                     17                     18
                     A                      A                      A
 Frequencies --   203.4308               229.1286               262.8824
 Red. masses --     7.0019                 6.2746                 3.9459
 Frc consts  --     0.1707                 0.1941                 0.1607
 IR Inten    --     0.1809                 1.6563                10.8386
 Raman Activ --     2.1998                 0.8960                 0.2597

                    19                     20                     21
                     A                      A                      A
 Frequencies --   280.2509               300.7006               304.4256
 Red. masses --     4.8607                 5.1890                 4.9383
 Frc consts  --     0.2249                 0.2764                 0.2696
 IR Inten    --     1.8275                 1.0813                 3.6220
 Raman Activ --     0.3486                 0.0919                 0.4682

                    22                     23                     24
                     A                      A                      A
 Frequencies --   312.7573               319.9785               322.0039
 Red. masses --     5.6932                 4.8573                 5.4541
 Frc consts  --     0.3281                 0.2930                 0.3332
 IR Inten    --     3.3977                 5.7971                 2.4281
 Raman Activ --     1.4990                 1.6640                 2.0744

                    25                     26                     27
                     A                      A                      A
 Frequencies --   332.9416               358.0427               373.0585
 Red. masses --     6.4942                 5.2589                 4.5875
 Frc consts  --     0.4241                 0.3972                 0.3762
 IR Inten    --    12.3142                 9.5861                 3.6224
 Raman Activ --     4.5947                 0.7003                 0.2683

                    28                     29                     30
                     A                      A                      A
 Frequencies --   404.6527               414.6056               420.4494
 Red. masses --     6.6190                 5.2126                 6.2224
 Frc consts  --     0.6386                 0.5279                 0.6481
 IR Inten    --     7.3142                 9.5190                 0.9454
 Raman Activ --     1.9412                 7.7211                 2.1559

                    31                     32                     33
                     A                      A                      A
 Frequencies --   437.8645               477.9699               488.7307
 Red. masses --     4.3432                 4.2450                 5.1890
 Frc consts  --     0.4906                 0.5714                 0.7303
 IR Inten    --     2.2475                 4.6963                10.8343
 Raman Activ --     2.3512                 5.2567                 0.8232

                    34                     35                     36
                     A                      A                      A
 Frequencies --   511.1819               521.7636               565.1639
 Red. masses --     4.1506                 3.1399                 4.9060
 Frc consts  --     0.6390                 0.5036                 0.9233
 IR Inten    --    15.1461                 6.1736                 9.4008
 Raman Activ --     1.1877                 5.1386                 1.5181

                    37                     38                     39
                     A                      A                      A
 Frequencies --   588.6784               592.6270               615.2329
 Red. masses --     4.3534                 3.2012                 5.2426
 Frc consts  --     0.8889                 0.6624                 1.1692
 IR Inten    --    12.8155                31.5469                14.1756
 Raman Activ --     0.3480                 0.7512                 0.6616

                    40                     41                     42
                     A                      A                      A
 Frequencies --   629.7032               674.7458               684.9028
 Red. masses --     3.6912                 3.2403                 1.1918
 Frc consts  --     0.8624                 0.8692                 0.3294
 IR Inten    --    27.6134                50.0825                66.2145
 Raman Activ --     0.7824                 0.8979                 1.8815

                    43                     44                     45
                     A                      A                      A
 Frequencies --   695.4506               710.8706               741.3022
 Red. masses --     1.1269                 1.0581                 1.0934
 Frc consts  --     0.3211                 0.3150                 0.3540
 IR Inten    --   133.6544                94.6598                96.9760
 Raman Activ --     4.3927                 1.5976                 1.4449

                    46                     47                     48
                     A                      A                      A
 Frequencies --   789.3897               794.6217               856.4904
 Red. masses --     1.0716                 1.0877                 1.7242
 Frc consts  --     0.3934                 0.4047                 0.7452
 IR Inten    --   113.0516                66.4068                 3.9205
 Raman Activ --     1.4011                 1.1818                 0.5295

                    49                     50                     51
                     A                      A                      A
 Frequencies --   862.0209               921.5472               949.3605
 Red. masses --     1.7276                 5.8784                 6.4856
 Frc consts  --     0.7563                 2.9413                 3.4440
 IR Inten    --     5.2968                99.4040                76.9960
 Raman Activ --     1.1311                 2.6520                 0.8335

                    52                     53                     54
                     A                      A                      A
 Frequencies --   969.7756               971.3594               985.8399
 Red. masses --     5.2924                 5.8803                 4.5132
 Frc consts  --     2.9326                 3.2689                 2.5843
 IR Inten    --    48.1638               241.1168                30.3785
 Raman Activ --     1.4271                 0.6308                 0.6307

                    55                     56                     57
                     A                      A                      A
 Frequencies --  1004.2707              1009.0989              1019.8571
 Red. masses --     6.4960                 5.2006                 6.3603
 Frc consts  --     3.8601                 3.1201                 3.8977
 IR Inten    --   100.9080               179.4151               117.0421
 Raman Activ --     1.7561                 3.8147                 1.5412

                    58                     59                     60
                     A                      A                      A
 Frequencies --  1032.0626              1055.3767              1058.8886
 Red. masses --     5.7104                 4.8876                 6.4682
 Frc consts  --     3.5837                 3.2074                 4.2730
 IR Inten    --   365.7092               287.4071                11.0917
 Raman Activ --     2.6615                 6.3696                 1.5252

                    61                     62                     63
                     A                      A                      A
 Frequencies --  1068.7708              1073.4360              1082.6981
 Red. masses --     3.7844                 5.1415                 3.7259
 Frc consts  --     2.5469                 3.4905                 2.5733
 IR Inten    --    33.1593                20.8659                29.2062
 Raman Activ --     4.2714                 9.3797                21.0887

                    64                     65                     66
                     A                      A                      A
 Frequencies --  1101.9899              1102.7686              1109.5800
 Red. masses --     2.3432                 2.7763                 2.8260
 Frc consts  --     1.6766                 1.9892                 2.0500
 IR Inten    --     7.7918                69.8986                40.6627
 Raman Activ --     1.4918                 3.1779                 7.7631

                    67                     68                     69
                     A                      A                      A
 Frequencies --  1115.1912              1131.9040              1142.6663
 Red. masses --     2.7070                 2.0388                 2.2149
 Frc consts  --     1.9835                 1.5390                 1.7039
 IR Inten    --    24.5360                 2.3088                58.5534
 Raman Activ --     8.3843                 8.0161                 3.5085

                    70                     71                     72
                     A                      A                      A
 Frequencies --  1144.7907              1150.2785              1154.0316
 Red. masses --     2.3446                 2.4427                 2.2845
 Frc consts  --     1.8104                 1.9043                 1.7926
 IR Inten    --    30.8309                26.7081                14.1949
 Raman Activ --     4.6849                 4.4325                 4.8804

                    73                     74                     75
                     A                      A                      A
 Frequencies --  1166.2772              1174.0618              1188.5026
 Red. masses --     2.3446                 1.6515                 1.9528
 Frc consts  --     1.8790                 1.3413                 1.6252
 IR Inten    --    49.8167                 7.4913                 2.2539
 Raman Activ --     1.7174                 2.3528                 2.6488

                    76                     77                     78
                     A                      A                      A
 Frequencies --  1199.0697              1214.9322              1232.9594
 Red. masses --     1.4164                 1.4348                 1.2370
 Frc consts  --     1.1998                 1.2478                 1.1080
 IR Inten    --    18.6878                10.3024                 4.9608
 Raman Activ --     0.5883                 2.0598                 2.3113

                    79                     80                     81
                     A                      A                      A
 Frequencies --  1235.0463              1250.0678              1270.0751
 Red. masses --     1.4987                 1.1387                 1.3511
 Frc consts  --     1.3469                 1.0484                 1.2841
 IR Inten    --     1.5106                 7.2399                 6.3792
 Raman Activ --     1.1676                 1.0612                 1.5765

                    82                     83                     84
                     A                      A                      A
 Frequencies --  1276.0876              1277.6092              1284.7918
 Red. masses --     1.2458                 1.2390                 1.3505
 Frc consts  --     1.1952                 1.1916                 1.3134
 IR Inten    --     0.3131                 9.4465                61.2766
 Raman Activ --     5.6091                 1.7025                 1.8439

                    85                     86                     87
                     A                      A                      A
 Frequencies --  1298.5013              1304.9212              1309.2524
 Red. masses --     1.2984                 1.2139                 1.2361
 Frc consts  --     1.2899                 1.2179                 1.2484
 IR Inten    --     9.3317                 2.6072                31.2233
 Raman Activ --     1.0836                 6.6817                 2.2097

                    88                     89                     90
                     A                      A                      A
 Frequencies --  1324.0112              1333.9044              1339.0708
 Red. masses --     1.3626                 1.2547                 1.2526
 Frc consts  --     1.4073                 1.3153                 1.3233
 IR Inten    --    11.8796                 8.4193                14.2136
 Raman Activ --     3.5573                 9.8563                 8.6731

                    91                     92                     93
                     A                      A                      A
 Frequencies --  1345.5362              1349.2295              1362.0706
 Red. masses --     1.2177                 1.2174                 1.4784
 Frc consts  --     1.2989                 1.3057                 1.6160
 IR Inten    --    22.6114                52.4796                 2.3458
 Raman Activ --     4.1197                 1.8209                 4.5282

                    94                     95                     96
                     A                      A                      A
 Frequencies --  1370.7655              1371.9376              1379.8296
 Red. masses --     1.3750                 1.2899                 1.2960
 Frc consts  --     1.5222                 1.4305                 1.4538
 IR Inten    --     2.4338                11.0111                22.3462
 Raman Activ --     4.2421                 3.3956                 4.4258

                    97                     98                     99
                     A                      A                      A
 Frequencies --  1387.4032              1390.7213              1396.9101
 Red. masses --     1.4091                 1.2252                 1.4002
 Frc consts  --     1.5980                 1.3962                 1.6098
 IR Inten    --     1.2913                29.3547                 4.3550
 Raman Activ --     3.5091                 4.8311                 4.2047

                   100                    101                    102
                     A                      A                      A
 Frequencies --  1419.1803              1444.9988              1447.5522
 Red. masses --     1.4453                 1.3177                 1.3890
 Frc consts  --     1.7150                 1.6211                 1.7149
 IR Inten    --    34.5093                31.6463                28.5783
 Raman Activ --     0.3113                 0.6821                 3.1798

                   103                    104                    105
                     A                      A                      A
 Frequencies --  1465.7584              1475.8773              1482.0394
 Red. masses --     1.0884                 1.0745                 1.2427
 Frc consts  --     1.3777                 1.3790                 1.6082
 IR Inten    --     7.0817                 4.7182                21.6992
 Raman Activ --     4.7771                 4.5195                 1.0462

                   106                    107                    108
                     A                      A                      A
 Frequencies --  1505.0591              1506.1980              3246.7596
 Red. masses --     1.3147                 1.3697                 1.0802
 Frc consts  --     1.7546                 1.8309                 6.7088
 IR Inten    --    33.7255                79.3502                18.4279
 Raman Activ --     0.6004                 1.2853                41.5236

                   109                    110                    111
                     A                      A                      A
 Frequencies --  3253.9994              3258.8339              3263.7113
 Red. masses --     1.0571                 1.0793                 1.0616
 Frc consts  --     6.5949                 6.7533                 6.6622
 IR Inten    --    31.1839                 2.5260                67.3507
 Raman Activ --   108.1736                 4.4450               105.5035

                   112                    113                    114
                     A                      A                      A
 Frequencies --  3267.0986              3277.0990              3278.1254
 Red. masses --     1.0806                 1.0832                 1.0829
 Frc consts  --     6.7957                 6.8538                 6.8563
 IR Inten    --    10.7690                15.9343                 4.4715
 Raman Activ --    64.6535               108.2413                 9.8905

                   115                    116                    117
                     A                      A                      A
 Frequencies --  3279.3035              3283.0717              3293.7253
 Red. masses --     1.0831                 1.0856                 1.0865
 Frc consts  --     6.8624                 6.8942                 6.9445
 IR Inten    --    19.7845                 4.9837                 1.7503
 Raman Activ --   155.6959                66.2364                45.1078

                   118                    119                    120
                     A                      A                      A
 Frequencies --  3297.0353              3299.3062              3311.9632
 Red. masses --     1.0869                 1.0869                 1.0806
 Frc consts  --     6.9615                 6.9708                 6.9837
 IR Inten    --    90.7927                75.5641               101.7970
 Raman Activ --     6.4566                11.3822               204.4870

                   121                    122                    123
                     A                      A                      A
 Frequencies --  3313.1017              3319.6534              3322.1390
 Red. masses --     1.0965                 1.0995                 1.0712
 Frc consts  --     7.0914                 7.1386                 6.9657
 IR Inten    --   130.1348                83.1694               835.7307
 Raman Activ --   105.2668                38.6827                46.6100

                   124                    125                    126
                     A                      A                      A
 Frequencies --  3342.2178              3356.6931              3368.1177
 Red. masses --     1.0640                 1.0661                 1.0665
 Frc consts  --     7.0027                 7.0770                 7.1284
 IR Inten    --    45.2243                33.4034                30.9665
 Raman Activ --    78.3412               132.8089               143.4561

                   127                    128                    129
                     A                      A                      A
 Frequencies --  3378.4034              3890.4156              3892.5288
 Red. masses --     1.0694                 1.0675                 1.0675
 Frc consts  --     7.1912                 9.5191                 9.5302
 IR Inten    --    46.2475                78.1309                80.6790
 Raman Activ --   151.2200               114.1775                96.1824

 - Thermochemistry -
 -------------------
 Temperature   298.150 Kelvin.  Pressure   1.00000 Atm.
 Atom     1 has atomic number  8 and mass  15.99491

 Molecular mass:   342.11621 amu.
 Principal axes and moments of inertia in atomic units:
                           1         2         3
     Eigenvalues --  4397.68634********************
           X            0.99996  -0.00896  -0.00010
           Y            0.00896   0.99996   0.00008
           Z            0.00009  -0.00008   1.00000
 This molecule is an asymmetric top.
 Rotational symmetry number  1.
 Warning -- assumption of classical behavior for rotation
           may cause significant error
 Rotational temperatures (Kelvin)      0.01970     0.00691     0.00526
 Rotational constants (GHZ):           0.41038     0.14402     0.10955
    6 imaginary frequencies ignored.
 Zero-point vibrational energy     974862.3 (Joules/Mol)
                                  232.99767 (Kcal/Mol)
 Warning -- explicit consideration of  33 degrees of freedom as
           vibrations may cause significant error
 Vibrational temperatures:     15.08    83.10    99.58   128.55   164.53
          (Kelvin)            169.78   216.93   246.68   281.69   292.69
                              329.66   378.23   403.22   432.64   438.00
                              449.99   460.38   463.29   479.03   515.14
                              536.75   582.20   596.52   604.93   629.99
                              687.69   703.17   735.48   750.70   813.14
                              846.98   852.66   885.18   906.00   970.81
                              985.42  1000.60  1022.78  1066.57  1135.75
                             1143.28  1232.30  1240.25  1325.90  1365.92
                             1395.29  1397.57  1418.40  1444.92  1451.87
                             1467.35  1484.91  1518.45  1523.50  1537.72
                             1544.43  1557.76  1585.52  1586.64  1596.44
                             1604.51  1628.56  1644.04  1647.10  1654.99
                             1660.39  1678.01  1689.21  1709.99  1725.19
                             1748.01  1773.95  1776.95  1798.57  1827.35
                             1836.00  1838.19  1848.53  1868.25  1877.49
                             1883.72  1904.95  1919.19  1926.62  1935.92
                             1941.24  1959.71  1972.22  1973.91  1985.26
                             1996.16  2000.94  2009.84  2041.88  2079.03
                             2082.70  2108.90  2123.46  2132.32  2165.44
                             2167.08  4671.36  4681.77  4688.73  4695.75
                             4700.62  4715.01  4716.49  4718.18  4723.60
                             4738.93  4743.69  4746.96  4765.17  4766.81
                             4776.23  4779.81  4808.70  4829.53  4845.96
                             4860.76  5597.43  5600.47

 Zero-point correction=                           0.371305 (Hartree/Particle)
 Thermal correction to Energy=                    0.390514
 Thermal correction to Enthalpy=                  0.391458
 Thermal correction to Gibbs Free Energy=         0.323412
 Sum of electronic and zero-point Energies=          -1297.616749
 Sum of electronic and thermal Energies=             -1297.597541
 Sum of electronic and thermal Enthalpies=           -1297.596597
 Sum of electronic and thermal Free Energies=        -1297.664643

                     E (Thermal)             CV                S
                      KCal/Mol        Cal/Mol-Kelvin    Cal/Mol-Kelvin
 Total                  245.051             78.069            143.215
 Electronic               0.000              0.000              0.000
 Translational            0.889              2.981             43.384
 Rotational               0.889              2.981             35.161
 Vibrational            243.274             72.108             64.670
 Vibration     1          0.593              1.987              7.918
 Vibration     2          0.596              1.974              4.532
 Vibration     3          0.598              1.969              4.176
 Vibration     4          0.602              1.957              3.674
 Vibration     5          0.607              1.938              3.194
 Vibration     6          0.608              1.934              3.133
 Vibration     7          0.618              1.902              2.662
 Vibration     8          0.626              1.878              2.420
 Vibration     9          0.636              1.846              2.172
 Vibration    10          0.639              1.835              2.102
 Vibration    11          0.652              1.797              1.886
 Vibration    12          0.670              1.741              1.643
 Vibration    13          0.680              1.710              1.532
 Vibration    14          0.693              1.672              1.413
 Vibration    15          0.695              1.665              1.392
 Vibration    16          0.701              1.649              1.348
 Vibration    17          0.706              1.635              1.310
 Vibration    18          0.707              1.631              1.300
 Vibration    19          0.715              1.610              1.246
 Vibration    20          0.733              1.559              1.131
 Vibration    21          0.744              1.527              1.067
 Vibration    22          0.770              1.460              0.946
 Vibration    23          0.778              1.439              0.910
 Vibration    24          0.783              1.426              0.890
 Vibration    25          0.798              1.388              0.833
 Vibration    26          0.834              1.299              0.716
 Vibration    27          0.845              1.275              0.687
 Vibration    28          0.866              1.225              0.631
 Vibration    29          0.877              1.202              0.606
 Vibration    30          0.921              1.107              0.514
 Vibration    31          0.946              1.056              0.470
 Vibration    32          0.950              1.047              0.463
 Vibration    33          0.975              1.000              0.424

 Normal termination of Gaussian 09 at Mon Mar 21 22:32:48 2016.
