 Gaussian 09, Revision B.01,
 Gaussian 09:  EM64L-G09RevB.01 12-Aug-2010

 -------------------------------------------------
 # freq=raman b3lyp/6-31+g(2d,p) geom=connectivity
 -------------------------------------------------

 -----------------
 290 8686/8686.com
 -----------------
 Symbolic Z-matrix:
 Charge =  0 Multiplicity = 1

                         Standard orientation:
 ---------------------------------------------------------------------
 Center     Atomic      Atomic             Coordinates (Angstroms)
 Number     Number       Type             X           Y           Z
 ---------------------------------------------------------------------
      1          8           0       -5.029949   -0.532352    0.366517
      2          6           0       -3.785634   -0.120490   -0.215867
      3          6           0       -3.288313    1.214446    0.315518
      4          8           0       -4.274293    2.156986   -0.129217
      5          1           0       -5.133850    1.799477    0.236638
      6          6           0       -1.894149    1.610690   -0.141924
      7          8           0       -1.369217    2.849528    0.356842
      8          1           0       -0.481602    2.973225   -0.086043
      9          6           0       -2.936493   -2.562318   -0.242334
     10          8           0       -4.098544   -3.272263    0.210559
     11          1           0       -3.928828   -4.245256    0.054666
     12          6           0       -2.761927   -1.138547    0.260157
     13          8           0       -1.436550   -0.774447   -0.150538
     14          6           0       -0.951647    0.500615    0.294875
     15          8           0        0.229182    0.583331   -0.516884
     16          6           0        1.526270    0.233873   -0.011407
     17          6           0        2.099305   -1.118555   -0.402058
     18          8           0        1.170411   -2.208070   -0.305520
     19          1           0        0.305603   -1.963871   -0.745611
     20          6           0        3.403100   -1.505359    0.276823
     21          8           0        3.922645   -2.789498   -0.096699
     22          1           0        4.770642   -2.843418    0.430783
     23          6           0        2.237121    2.623216    0.192492
     24          8           0        1.134546    3.287055   -0.443360
     25          1           0        1.203642    4.273015   -0.288883
     26          6           0        2.607624    1.249493   -0.342150
     27          8           0        3.874887    0.867844    0.212072
     28          6           0        4.369408   -0.421969   -0.175112
     29          8           0        5.495832   -0.507037    0.709102
     30          1           0        6.298272   -0.622391    0.194919
     31          1           0       -5.630373   -0.814118   -0.327528
     32          1           0        3.096869    3.254062    0.104369
     33          1           0        2.005054    2.520733    1.231983
     34          1           0        2.704353    1.311175   -1.405983
     35          1           0        1.435030    0.224547    1.054655
     36          1           0        2.334039   -1.034150   -1.442575
     37          1           0        3.283179   -1.460272    1.339125
     38          1           0        4.637653   -0.484345   -1.209063
     39          1           0       -2.073544   -3.122784    0.051090
     40          1           0       -2.965206   -2.532549   -1.311534
     41          1           0       -2.787093   -1.157845    1.329687
     42          1           0       -3.845672   -0.110687   -1.284136
     43          1           0       -3.300795    1.183530    1.384998
     44          1           0       -1.892393    1.653161   -1.211079
     45          1           0       -0.734561    0.519583    1.342450
 ---------------------------------------------------------------------

 SCF Done:  E(RB3LYP) =  -1297.98725570     A.U. after   13 cycles

 The electronic state is 1-A.
 Alpha  occ. eigenvalues --  -19.18996 -19.17969 -19.17928 -19.17449 -19.16818
 Alpha  occ. eigenvalues --  -19.16816 -19.16555 -19.15875 -19.14606 -19.14170
 Alpha  occ. eigenvalues --  -19.13351 -10.30687 -10.30096 -10.25964 -10.25490
 Alpha  occ. eigenvalues --  -10.25350 -10.24913 -10.24702 -10.24346 -10.24266
 Alpha  occ. eigenvalues --  -10.24155 -10.24126 -10.23518  -1.09650  -1.08986
 Alpha  occ. eigenvalues --   -1.05672  -1.05118  -1.03653  -1.03149  -1.02561
 Alpha  occ. eigenvalues --   -1.02054  -1.01739  -1.00604  -1.00074  -0.82276
 Alpha  occ. eigenvalues --   -0.79763  -0.79706  -0.78152  -0.71774  -0.69770
 Alpha  occ. eigenvalues --   -0.67280  -0.64268  -0.62970  -0.61736  -0.61517
 Alpha  occ. eigenvalues --   -0.60059  -0.56540  -0.55702  -0.54888  -0.54476
 Alpha  occ. eigenvalues --   -0.53649  -0.53411  -0.52726  -0.51350  -0.50867
 Alpha  occ. eigenvalues --   -0.50671  -0.49761  -0.48958  -0.48330  -0.46653
 Alpha  occ. eigenvalues --   -0.45955  -0.44953  -0.44528  -0.43492  -0.43000
 Alpha  occ. eigenvalues --   -0.42286  -0.41894  -0.40991  -0.40434  -0.39284
 Alpha  occ. eigenvalues --   -0.38284  -0.38096  -0.37695  -0.35976  -0.35915
 Alpha  occ. eigenvalues --   -0.35188  -0.34868  -0.34145  -0.33631  -0.33047
 Alpha  occ. eigenvalues --   -0.32626  -0.31310  -0.30965  -0.30507  -0.29709
 Alpha  occ. eigenvalues --   -0.29099  -0.28455  -0.28105  -0.27178  -0.26498
 Alpha  occ. eigenvalues --   -0.25824
 Alpha virt. eigenvalues --   -0.01862  -0.01730  -0.01429   0.00001   0.00343
 Alpha virt. eigenvalues --    0.00811   0.01737   0.02058   0.02982   0.03363
 Alpha virt. eigenvalues --    0.03687   0.03992   0.04631   0.05370   0.05741

 Mulliken atomic charges:
              1
     1  O   -0.542905
     2  C    0.022710
     3  C    0.175812
     4  O   -0.558575
     5  H    0.344253
     6  C   -0.124378
     7  O   -0.577168
     8  H    0.423968
     9  C   -0.243431
    10  O   -0.535371
    11  H    0.336766
    12  C    0.121024
    13  O   -0.220988
    14  C    0.334420
    15  O   -0.254122
    16  C    0.244487
    17  C    0.093946
    18  O   -0.531025
    19  H    0.353833
    20  C   -0.007365
    21  O   -0.524195
    22  H    0.338386
    23  C   -0.243719
    24  O   -0.568216
    25  H    0.362417
    26  C   -0.135603
    27  O   -0.220403
    28  C    0.205331
    29  O   -0.538931
    30  H    0.330519
    31  H    0.342480
    32  H    0.144934
    33  H    0.154091
    34  H    0.123323
    35  H    0.097545
    36  H    0.098832
    37  H    0.132123
    38  H    0.141680
    39  H    0.146260
    40  H    0.135486
    41  H    0.111385
    42  H    0.122994
    43  H    0.123439
    44  H    0.132980
    45  H    0.130970
 Sum of Mulliken atomic charges =   0.00000

 Dipole moment (field-independent basis, Debye):
    X=              3.0481    Y=             -0.0002    Z=             -1.6816  Tot=              3.4812
 Quadrupole moment (field-independent basis, Debye-Ang):
   XX=           -119.8118   YY=           -137.9139   ZZ=           -137.3027
   XY=             16.3397   XZ=              1.2804   YZ=              1.2257

  Exact polarizability: 233.926  -0.829 197.787   1.261   0.779 144.337
 Approx polarizability: 275.095  -0.035 257.423   1.582   0.391 240.660

 ******    6 imaginary frequencies (negative Signs) ******

                     1                      2                      3
                     A                      A                      A
 Frequencies --  -273.1908              -235.8283              -235.3835
 Red. masses --     1.4701                 1.3436                 1.7878
 Frc consts  --     0.0646                 0.0440                 0.0584
 IR Inten    --    52.5800                51.1568                 8.6987
 Raman Activ --     0.3770                 0.6012                 0.1048

                     4                      5                      6
                     A                      A                      A
 Frequencies --  -204.1027               -70.3331               -55.9328
 Red. masses --     1.1867                 6.7414                 6.0027
 Frc consts  --     0.0291                 0.0196                 0.0111
 IR Inten    --   100.4529                 1.0294                 0.1115
 Raman Activ --     0.7759                 0.0623                 0.0423

                     7                      8                      9
                     A                      A                      A
 Frequencies --    30.9515                56.4921                71.6157
 Red. masses --     6.6793                 6.6332                 5.7898
 Frc consts  --     0.0038                 0.0125                 0.0175
 IR Inten    --     0.0259                 1.4432                 2.3684
 Raman Activ --     0.0231                 0.0316                 0.2376

                    10                     11                     12
                     A                      A                      A
 Frequencies --    79.5487                89.8856               119.8587
 Red. masses --     6.3471                 6.6340                 5.7794
 Frc consts  --     0.0237                 0.0316                 0.0489
 IR Inten    --     1.3602                 0.6378                 2.2025
 Raman Activ --     0.1435                 0.1064                 0.0482

                    13                     14                     15
                     A                      A                      A
 Frequencies --   152.6253               158.9165               187.1274
 Red. masses --     6.0414                 6.3187                 7.1966
 Frc consts  --     0.0829                 0.0940                 0.1485
 IR Inten    --     6.1701                 3.1371                 0.1999
 Raman Activ --     0.2280                 0.6338                 0.3360

                    16                     17                     18
                     A                      A                      A
 Frequencies --   210.4426               225.8496               269.1584
 Red. masses --     7.1143                 5.9440                 4.2284
 Frc consts  --     0.1856                 0.1786                 0.1805
 IR Inten    --     0.2157                 1.0820                13.5145
 Raman Activ --     2.8767                 0.6334                 0.2859

                    19                     20                     21
                     A                      A                      A
 Frequencies --   271.6667               282.2527               296.8665
 Red. masses --     5.0225                 5.3929                 5.7931
 Frc consts  --     0.2184                 0.2531                 0.3008
 IR Inten    --     4.7841                 0.8056                 4.1600
 Raman Activ --     0.1763                 0.0313                 1.2686

                    22                     23                     24
                     A                      A                      A
 Frequencies --   300.8847               314.5406               328.9623
 Red. masses --     5.9293                 4.8743                 6.4115
 Frc consts  --     0.3163                 0.2841                 0.4088
 IR Inten    --     4.0991                 2.9511                 0.7679
 Raman Activ --     0.8598                 1.3393                 2.1081

                    25                     26                     27
                     A                      A                      A
 Frequencies --   342.9526               353.7382               374.5917
 Red. masses --     6.8332                 4.0976                 7.1601
 Frc consts  --     0.4735                 0.3021                 0.5920
 IR Inten    --    13.0687                 4.7846                 3.6201
 Raman Activ --     5.5739                 0.0943                 1.2898

                    28                     29                     30
                     A                      A                      A
 Frequencies --   394.0918               411.7893               432.2622
 Red. masses --     3.7720                 6.6690                 5.5775
 Frc consts  --     0.3452                 0.6663                 0.6140
 IR Inten    --    12.8615                 3.6108                 0.9610
 Raman Activ --     1.8801                 3.5618                 6.0530

                    31                     32                     33
                     A                      A                      A
 Frequencies --   439.1296               485.3389               495.0688
 Red. masses --     4.1322                 4.3753                 3.8781
 Frc consts  --     0.4695                 0.6072                 0.5600
 IR Inten    --     0.7807                 4.4342                 7.5101
 Raman Activ --     1.6305                 0.8005                 2.1566

                    34                     35                     36
                     A                      A                      A
 Frequencies --   505.2703               530.0577               570.0327
 Red. masses --     4.0438                 3.4044                 3.8775
 Frc consts  --     0.6083                 0.5636                 0.7423
 IR Inten    --     9.9792                 8.5368                24.0315
 Raman Activ --     1.9573                 4.6012                 1.1765

                    37                     38                     39
                     A                      A                      A
 Frequencies --   588.1100               602.7753               621.7421
 Red. masses --     2.9897                 5.2728                 3.8807
 Frc consts  --     0.6093                 1.1288                 0.8839
 IR Inten    --    42.7498                 8.5703                 2.4956
 Raman Activ --     0.1931                 0.6284                 0.1870

                    40                     41                     42
                     A                      A                      A
 Frequencies --   638.3501               699.8637               714.2497
 Red. masses --     5.5755                 5.5518                 1.0776
 Frc consts  --     1.3386                 1.6022                 0.3239
 IR Inten    --    42.2158                15.5745               104.7078
 Raman Activ --     0.8802                 1.5838                 2.7907

                    43                     44                     45
                     A                      A                      A
 Frequencies --   718.3924               732.9288               761.8116
 Red. masses --     1.0759                 1.0847                 1.1013
 Frc consts  --     0.3271                 0.3433                 0.3766
 IR Inten    --   141.6164               133.0282                94.2980
 Raman Activ --     3.3459                 1.8284                 1.6480

                    46                     47                     48
                     A                      A                      A
 Frequencies --   778.3733               840.0557               852.2598
 Red. masses --     1.0886                 1.2316                 1.7322
 Frc consts  --     0.3886                 0.5121                 0.7413
 IR Inten    --    98.1839                56.3178                 6.1640
 Raman Activ --     1.6163                 0.7262                 1.2842

                    49                     50                     51
                     A                      A                      A
 Frequencies --   871.0819               907.4569               940.8150
 Red. masses --     1.5151                 5.3787                 5.4983
 Frc consts  --     0.6773                 2.6096                 2.8674
 IR Inten    --    20.2739               146.3956                88.0806
 Raman Activ --     0.7762                 2.7464                 0.8095

                    52                     53                     54
                     A                      A                      A
 Frequencies --   971.4965               976.7345               982.4061
 Red. masses --     6.6220                 4.4378                 6.1132
 Frc consts  --     3.6823                 2.4944                 3.4761
 IR Inten    --   106.9457                28.9211                42.7309
 Raman Activ --     1.8944                 0.7146                 1.5749

                    55                     56                     57
                     A                      A                      A
 Frequencies --   994.8922              1014.4441              1020.2900
 Red. masses --     4.8441                 5.7715                 5.6253
 Frc consts  --     2.8250                 3.4994                 3.4502
 IR Inten    --   411.2357                27.6042                72.8964
 Raman Activ --     4.0219                 2.2645                 3.9962

                    58                     59                     60
                     A                      A                      A
 Frequencies --  1042.4607              1053.8831              1062.5281
 Red. masses --     5.1424                 4.2121                 3.9174
 Frc consts  --     3.2926                 2.7563                 2.6057
 IR Inten    --   457.1798                22.2774                59.9121
 Raman Activ --     2.2801                12.1451                 1.7828

                    61                     62                     63
                     A                      A                      A
 Frequencies --  1064.5429              1074.2808              1081.5120
 Red. masses --     4.1913                 3.0544                 2.4506
 Frc consts  --     2.7985                 2.0769                 1.6888
 IR Inten    --    22.0095                 5.2901                23.8751
 Raman Activ --     6.7998                23.7737                 3.9728

                    64                     65                     66
                     A                      A                      A
 Frequencies --  1082.6351              1088.0633              1106.3196
 Red. masses --     4.1162                 3.6553                 3.1129
 Frc consts  --     2.8426                 2.5497                 2.2448
 IR Inten    --     6.0005               191.0476                71.2356
 Raman Activ --     2.0540                 7.7463                 4.4081

                    67                     68                     69
                     A                      A                      A
 Frequencies --  1113.1144              1122.6009              1132.9403
 Red. masses --     2.5768                 2.5289                 2.3706
 Frc consts  --     1.8811                 1.8777                 1.7928
 IR Inten    --    15.2717                28.5475                61.2942
 Raman Activ --     2.0266                10.9352                 1.5964

                    70                     71                     72
                     A                      A                      A
 Frequencies --  1142.8131              1145.6345              1148.1647
 Red. masses --     1.9380                 1.9186                 2.3599
 Frc consts  --     1.4912                 1.4836                 1.8330
 IR Inten    --     3.7100                12.4291                14.6435
 Raman Activ --     7.8294                 3.1127                 3.7221

                    73                     74                     75
                     A                      A                      A
 Frequencies --  1160.4810              1166.4372              1177.4665
 Red. masses --     1.8863                 2.7768                 1.6841
 Frc consts  --     1.4967                 2.2260                 1.3757
 IR Inten    --     5.2767                26.7031                 1.5310
 Raman Activ --     2.9597                 3.1258                 1.0784

                    76                     77                     78
                     A                      A                      A
 Frequencies --  1193.4913              1203.0219              1209.8620
 Red. masses --     1.3474                 1.3900                 1.1887
 Frc consts  --     1.1308                 1.1852                 1.0252
 IR Inten    --    10.1340                19.2126                 1.6975
 Raman Activ --     0.7693                 4.3999                 2.0969

                    79                     80                     81
                     A                      A                      A
 Frequencies --  1214.7950              1217.5112              1256.0725
 Red. masses --     1.3373                 1.3042                 1.3259
 Frc consts  --     1.1628                 1.1390                 1.2325
 IR Inten    --     5.6383                 6.0159                22.0704
 Raman Activ --     1.7582                 0.6872                 1.4339

                    82                     83                     84
                     A                      A                      A
 Frequencies --  1267.8866              1275.9682              1280.4011
 Red. masses --     1.1549                 1.3262                 1.3192
 Frc consts  --     1.0939                 1.2722                 1.2742
 IR Inten    --     6.8688                 1.4412                26.5673
 Raman Activ --     3.3754                 2.8900                 3.0974

                    85                     86                     87
                     A                      A                      A
 Frequencies --  1282.7417              1291.9014              1299.7324
 Red. masses --     1.2069                 1.2417                 1.3664
 Frc consts  --     1.1700                 1.2210                 1.3600
 IR Inten    --     5.7270                 4.4305                13.1406
 Raman Activ --     1.5667                 4.2408                 2.1565

                    88                     89                     90
                     A                      A                      A
 Frequencies --  1306.6161              1319.6364              1333.7140
 Red. masses --     1.4145                 1.3741                 1.2516
 Frc consts  --     1.4229                 1.4099                 1.3117
 IR Inten    --    14.5266                27.2048                34.1634
 Raman Activ --     4.5820                 5.9251                 6.8065

                    91                     92                     93
                     A                      A                      A
 Frequencies --  1334.6817              1339.2294              1346.3970
 Red. masses --     1.1605                 1.1952                 1.2093
 Frc consts  --     1.2180                 1.2630                 1.2916
 IR Inten    --    42.3489                27.4479                37.4079
 Raman Activ --     1.0476                 1.8797                 6.3921

                    94                     95                     96
                     A                      A                      A
 Frequencies --  1353.4236              1359.5321              1368.8059
 Red. masses --     1.2506                 1.4858                 1.6527
 Frc consts  --     1.3497                 1.6181                 1.8244
 IR Inten    --    20.2334                10.1478                16.8125
 Raman Activ --     4.2182                 3.1430                 8.1561

                    97                     98                     99
                     A                      A                      A
 Frequencies --  1374.8540              1386.7743              1388.4143
 Red. masses --     1.5986                 1.3699                 1.4581
 Frc consts  --     1.7804                 1.5523                 1.6561
 IR Inten    --     5.9286                 4.6524                 0.6744
 Raman Activ --     6.7044                 1.7565                 7.6654

                   100                    101                    102
                     A                      A                      A
 Frequencies --  1451.1742              1460.5351              1471.4439
 Red. masses --     1.2713                 1.3746                 1.2863
 Frc consts  --     1.5774                 1.7277                 1.6408
 IR Inten    --    35.0128                34.2402                14.9869
 Raman Activ --     1.8882                 1.7682                 3.0548

                   103                    104                    105
                     A                      A                      A
 Frequencies --  1474.5807              1476.3932              1477.2766
 Red. masses --     1.2170                 1.2301                 1.1939
 Frc consts  --     1.5591                 1.5798                 1.5351
 IR Inten    --    14.9541                35.6019                21.6050
 Raman Activ --     2.0289                 2.0594                 1.7327

                   106                    107                    108
                     A                      A                      A
 Frequencies --  1477.6322              1532.5643              3241.9343
 Red. masses --     1.3113                 1.2232                 1.0680
 Frc consts  --     1.6868                 1.6928                 6.6132
 IR Inten    --    12.6392                36.5073               819.9284
 Raman Activ --     3.3483                 1.5382               123.4472

                   109                    110                    111
                     A                      A                      A
 Frequencies --  3248.3387              3254.3062              3264.5051
 Red. masses --     1.0797                 1.0572                 1.0606
 Frc consts  --     6.7123                 6.5970                 6.6594
 IR Inten    --   116.1200                38.5436                52.1021
 Raman Activ --    44.6186                86.8356               188.9061

                   112                    113                    114
                     A                      A                      A
 Frequencies --  3266.1135              3272.6745              3279.5778
 Red. masses --     1.0811                 1.0827                 1.0829
 Frc consts  --     6.7946                 6.8322                 6.8624
 IR Inten    --     3.8238                28.1708                 6.5796
 Raman Activ --    76.7559                 7.7539               145.0804

                   115                    116                    117
                     A                      A                      A
 Frequencies --  3281.6198              3288.3366              3292.3988
 Red. masses --     1.0845                 1.0846                 1.0855
 Frc consts  --     6.8812                 6.9098                 6.9326
 IR Inten    --    39.1900                 3.7434                 5.6429
 Raman Activ --    42.6730                19.3231                88.7779

                   118                    119                    120
                     A                      A                      A
 Frequencies --  3298.8333              3304.9881              3305.9926
 Red. masses --     1.0876                 1.0900                 1.0880
 Frc consts  --     6.9735                 7.0147                 7.0062
 IR Inten    --     2.3833                29.7935                61.9559
 Raman Activ --    55.8173                16.0634                28.9435

                   121                    122                    123
                     A                      A                      A
 Frequencies --  3311.7089              3318.8699              3352.3664
 Red. masses --     1.1027                 1.1064                 1.0664
 Frc consts  --     7.1252                 7.1804                 7.0610
 IR Inten    --    68.7735                51.5742               171.3061
 Raman Activ --    26.0268                41.5500               131.4318

                   124                    125                    126
                     A                      A                      A
 Frequencies --  3359.1832              3367.5674              3368.2158
 Red. masses --     1.0650                 1.0651                 1.0673
 Frc consts  --     7.0809                 7.1163                 7.1340
 IR Inten    --    35.8651                48.8821                55.2628
 Raman Activ --    94.5960                92.6025               160.6261

                   127                    128                    129
                     A                      A                      A
 Frequencies --  3368.7754              3890.7828              3892.7704
 Red. masses --     1.0673                 1.0673                 1.0675
 Frc consts  --     7.1361                 9.5198                 9.5309
 IR Inten    --    37.5699                65.6521                78.4808
 Raman Activ --   159.8590               129.2984                95.0699

 - Thermochemistry -
 -------------------
 Temperature   298.150 Kelvin.  Pressure   1.00000 Atm.
 Atom     1 has atomic number  8 and mass  15.99491

 Molecular mass:   342.11621 amu.
 Principal axes and moments of inertia in atomic units:
                           1         2         3
     Eigenvalues --  4427.39283********************
           X            0.99997   0.00767   0.00026
           Y           -0.00768   0.99997   0.00276
           Z           -0.00024  -0.00276   1.00000
 This molecule is an asymmetric top.
 Rotational symmetry number  1.
 Warning -- assumption of classical behavior for rotation
           may cause significant error
 Rotational temperatures (Kelvin)      0.01956     0.00695     0.00525
 Rotational constants (GHZ):           0.40763     0.14488     0.10941
    6 imaginary frequencies ignored.
 Zero-point vibrational energy     973959.4 (Joules/Mol)
                                  232.78189 (Kcal/Mol)
 Warning -- explicit consideration of  32 degrees of freedom as
           vibrations may cause significant error
 Vibrational temperatures:     44.53    81.28   103.04   114.45   129.33
          (Kelvin)            172.45   219.59   228.65   269.23   302.78
                              324.95   387.26   390.87   406.10   427.12
                              432.91   452.55   473.30   493.43   508.95
                              538.95   567.01   592.47   621.93   631.81
                              698.29   712.29   726.97   762.63   820.15
                              846.16   867.26   894.55   918.44  1006.95
                             1027.64  1033.61  1054.52  1096.08  1119.90
                             1208.65  1226.21  1253.29  1305.63  1353.62
                             1397.76  1405.30  1413.46  1431.43  1459.56
                             1467.97  1499.87  1516.30  1528.74  1531.64
                             1545.65  1556.05  1557.67  1565.48  1591.75
                             1601.52  1615.17  1630.05  1644.25  1648.31
                             1651.95  1669.67  1678.24  1694.11  1717.17
                             1730.88  1740.72  1747.82  1751.72  1807.21
                             1824.20  1835.83  1842.21  1845.58  1858.76
                             1870.02  1879.93  1898.66  1918.91  1920.31
                             1926.85  1937.16  1947.27  1956.06  1969.40
                             1978.11  1995.26  1997.62  2087.91  2101.38
                             2117.08  2121.59  2124.20  2125.47  2125.98
                             2205.02  4664.41  4673.63  4682.21  4696.89
                             4699.20  4708.64  4718.58  4721.51  4731.18
                             4737.02  4746.28  4755.13  4756.58  4764.80
                             4775.11  4823.30  4833.11  4845.17  4846.11
                             4846.91  5597.96  5600.82

 Zero-point correction=                           0.370962 (Hartree/Particle)
 Thermal correction to Energy=                    0.390192
 Thermal correction to Enthalpy=                  0.391136
 Thermal correction to Gibbs Free Energy=         0.323727
 Sum of electronic and zero-point Energies=          -1297.616294
 Sum of electronic and thermal Energies=             -1297.597064
 Sum of electronic and thermal Enthalpies=           -1297.596120
 Sum of electronic and thermal Free Energies=        -1297.663529

                     E (Thermal)             CV                S
                      KCal/Mol        Cal/Mol-Kelvin    Cal/Mol-Kelvin
 Total                  244.849             78.005            141.874
 Electronic               0.000              0.000              0.000
 Translational            0.889              2.981             43.384
 Rotational               0.889              2.981             35.163
 Vibrational            243.072             72.043             63.327
 Vibration     1          0.594              1.984              5.767
 Vibration     2          0.596              1.975              4.576
 Vibration     3          0.598              1.968              4.108
 Vibration     4          0.600              1.963              3.902
 Vibration     5          0.602              1.956              3.663
 Vibration     6          0.609              1.933              3.103
 Vibration     7          0.619              1.900              2.639
 Vibration     8          0.621              1.893              2.563
 Vibration     9          0.632              1.858              2.256
 Vibration    10          0.643              1.825              2.040
 Vibration    11          0.650              1.802              1.912
 Vibration    12          0.674              1.730              1.602
 Vibration    13          0.675              1.725              1.586
 Vibration    14          0.681              1.707              1.520
 Vibration    15          0.691              1.680              1.435
 Vibration    16          0.693              1.672              1.412
 Vibration    17          0.702              1.646              1.338
 Vibration    18          0.712              1.618              1.265
 Vibration    19          0.722              1.590              1.198
 Vibration    20          0.730              1.568              1.149
 Vibration    21          0.746              1.524              1.061
 Vibration    22          0.761              1.483              0.985
 Vibration    23          0.776              1.445              0.920
 Vibration    24          0.793              1.400              0.851
 Vibration    25          0.799              1.385              0.829
 Vibration    26          0.841              1.283              0.696
 Vibration    27          0.851              1.261              0.671
 Vibration    28          0.861              1.238              0.645
 Vibration    29          0.885              1.183              0.587
 Vibration    30          0.926              1.096              0.504
 Vibration    31          0.945              1.057              0.471
 Vibration    32          0.961              1.026              0.445

 Normal termination of Gaussian 09 at Tue Mar 22 10:42:15 2016.
