 Gaussian 09, Revision B.01,
 Gaussian 09:  EM64L-G09RevB.01 12-Aug-2010

 -------------------------------------------------
 # freq=raman b3lyp/6-31+g(2d,p) geom=connectivity
 -------------------------------------------------

 -----------------
 473 5386/5386.com
 -----------------
 Symbolic Z-matrix:
 Charge =  0 Multiplicity = 1

                         Standard orientation:
 ---------------------------------------------------------------------
 Center     Atomic      Atomic             Coordinates (Angstroms)
 Number     Number       Type             X           Y           Z
 ---------------------------------------------------------------------
      1          8           0        5.020778   -0.442822   -0.359378
      2          6           0        3.812731   -0.121756    0.345445
      3          6           0        3.326538    1.175829   -0.280623
      4          8           0        4.293710    2.186768    0.037681
      5          1           0        5.184921    1.752036   -0.086563
      6          6           0        1.941794    1.591721    0.189349
      7          8           0        1.519856    2.746039   -0.551140
      8          1           0        0.608535    3.054272   -0.280883
      9          6           0        3.077335   -2.575777    0.245087
     10          8           0        4.163473   -3.225537   -0.430069
     11          1           0        3.931519   -4.196918   -0.465377
     12          6           0        2.753283   -1.126843   -0.077381
     13          8           0        1.471571   -0.821520    0.490728
     14          6           0        0.996451    0.424407   -0.038930
     15          8           0       -0.304131    0.591196    0.544350
     16          6           0       -1.544199    0.291008   -0.113644
     17          6           0       -2.021859   -1.073028    0.358951
     18          8           0       -1.128948   -2.170727    0.120172
     19          1           0       -0.183299   -1.845741    0.147630
     20          6           0       -3.366401   -1.521592   -0.189925
     21          8           0       -4.017777   -2.762584    0.117995
     22          1           0       -4.948678   -2.784437   -0.244875
     23          6           0       -2.442857    2.697538   -0.068622
     24          8           0       -1.227446    3.357547    0.313649
     25          1           0       -1.307358    4.354197    0.274127
     26          6           0       -2.696237    1.226468    0.215803
     27          8           0       -3.963899    0.853890   -0.346091
     28          6           0       -4.361163   -0.427828    0.161378
     29          8           0       -5.555256   -0.678316   -0.593864
     30          1           0       -6.264265   -0.929737    0.002537
     31          1           0       -4.560706   -0.393138    1.212035
     32          1           0       -3.262171   -1.507139   -1.254739
     33          1           0       -2.135444   -0.998290    1.420277
     34          1           0       -1.391784    0.269772   -1.172520
     35          1           0       -2.821070    1.157024    1.276224
     36          1           0       -3.242809    3.239956    0.390465
     37          1           0       -2.540811    2.825767   -1.126385
     38          1           0        5.691367   -0.724924    0.266984
     39          1           0        2.194760   -3.149356    0.052815
     40          1           0        3.276983   -2.630897    1.294850
     41          1           0        2.655843   -1.053259   -1.140392
     42          1           0        3.940475   -0.058276    1.405894
     43          1           0        3.300956    1.051753   -1.343097
     44          1           0        1.973776    1.827675    1.232518
     45          1           0        0.871308    0.307312   -1.095116
 ---------------------------------------------------------------------

 SCF Done:  E(RB3LYP) =  -1297.97453997     A.U. after   13 cycles

 The electronic state is 1-A.
 Alpha  occ. eigenvalues --  -19.18799 -19.18565 -19.18439 -19.17970 -19.17852
 Alpha  occ. eigenvalues --  -19.17513 -19.16419 -19.15730 -19.14619 -19.14465
 Alpha  occ. eigenvalues --  -19.14074 -10.30837 -10.30387 -10.26507 -10.26470
 Alpha  occ. eigenvalues --  -10.25369 -10.25340 -10.25299 -10.24839 -10.24487
 Alpha  occ. eigenvalues --  -10.24450 -10.24138 -10.24134  -1.09982  -1.09547
 Alpha  occ. eigenvalues --   -1.05917  -1.04927  -1.04054  -1.03689  -1.02876
 Alpha  occ. eigenvalues --   -1.02212  -1.01976  -1.00576  -1.00321  -0.82697
 Alpha  occ. eigenvalues --   -0.80740  -0.79397  -0.78479  -0.72197  -0.70303
 Alpha  occ. eigenvalues --   -0.67548  -0.64824  -0.63046  -0.62375  -0.61639
 Alpha  occ. eigenvalues --   -0.60945  -0.56450  -0.55664  -0.55122  -0.54860
 Alpha  occ. eigenvalues --   -0.54299  -0.53633  -0.53163  -0.51691  -0.51532
 Alpha  occ. eigenvalues --   -0.50681  -0.49922  -0.49439  -0.49106  -0.46427
 Alpha  occ. eigenvalues --   -0.46047  -0.45493  -0.44532  -0.43692  -0.43218
 Alpha  occ. eigenvalues --   -0.42689  -0.41764  -0.41599  -0.40468  -0.39565
 Alpha  occ. eigenvalues --   -0.39157  -0.38001  -0.37424  -0.37085  -0.36229
 Alpha  occ. eigenvalues --   -0.35250  -0.34217  -0.34165  -0.33977  -0.33523
 Alpha  occ. eigenvalues --   -0.32691  -0.31241  -0.30566  -0.30447  -0.30087
 Alpha  occ. eigenvalues --   -0.29442  -0.28959  -0.28145  -0.27926  -0.26747
 Alpha  occ. eigenvalues --   -0.26439
 Alpha virt. eigenvalues --   -0.02276  -0.01895  -0.01861  -0.00357   0.00204
 Alpha virt. eigenvalues --    0.01151   0.01698   0.02147   0.03321   0.03427
 Alpha virt. eigenvalues --    0.03859   0.04080   0.04588   0.05200   0.05392

 Mulliken atomic charges:
              1
     1  O   -0.535578
     2  C   -0.057502
     3  C    0.270688
     4  O   -0.573197
     5  H    0.344980
     6  C   -0.160748
     7  O   -0.559223
     8  H    0.389890
     9  C   -0.319225
    10  O   -0.516153
    11  H    0.339960
    12  C    0.253293
    13  O   -0.257569
    14  C    0.166787
    15  O   -0.253604
    16  C    0.166106
    17  C    0.393221
    18  O   -0.585529
    19  H    0.371785
    20  C    0.020681
    21  O   -0.559022
    22  H    0.347058
    23  C   -0.346790
    24  O   -0.564969
    25  H    0.364913
    26  C   -0.004782
    27  O   -0.250863
    28  C    0.168293
    29  O   -0.554603
    30  H    0.337312
    31  H    0.135188
    32  H    0.124206
    33  H    0.115595
    34  H    0.118720
    35  H    0.115660
    36  H    0.145630
    37  H    0.152744
    38  H    0.341094
    39  H    0.141164
    40  H    0.140329
    41  H    0.116618
    42  H    0.133716
    43  H    0.130818
    44  H    0.132252
    45  H    0.120654
 Sum of Mulliken atomic charges =   0.00000

 Dipole moment (field-independent basis, Debye):
    X=             -1.8817    Y=              0.2840    Z=              2.2394  Tot=              2.9388
 Quadrupole moment (field-independent basis, Debye-Ang):
   XX=           -119.2064   YY=           -136.2402   ZZ=           -139.8035
   XY=            -17.9591   XZ=              1.0842   YZ=              2.2249

  Exact polarizability: 235.166   2.508 198.305   0.130   0.061 143.744
 Approx polarizability: 276.847   2.963 258.049  -0.209   0.120 239.012

 ******    6 imaginary frequencies (negative Signs) ******

                     1                      2                      3
                     A                      A                      A
 Frequencies --  -307.8545              -292.9662              -174.6372
 Red. masses --     1.7535                 1.6899                 1.2414
 Frc consts  --     0.0979                 0.0855                 0.0223
 IR Inten    --     3.0812                 6.5944                42.5865
 Raman Activ --     0.0653                 0.1298                 0.8484

                     4                      5                      6
                     A                      A                      A
 Frequencies --  -172.9629               -79.2013               -41.9015
 Red. masses --     1.2208                 6.3342                 6.0872
 Frc consts  --     0.0215                 0.0234                 0.0063
 IR Inten    --   176.7464                 3.8564                 0.5094
 Raman Activ --     0.8535                 0.0535                 0.0078

                     7                      8                      9
                     A                      A                      A
 Frequencies --    44.0507                52.4304                67.3081
 Red. masses --     7.1898                 6.8456                 5.5687
 Frc consts  --     0.0082                 0.0111                 0.0149
 IR Inten    --     0.6802                 1.2169                 6.7838
 Raman Activ --     0.0541                 0.0637                 0.3439

                    10                     11                     12
                     A                      A                      A
 Frequencies --    91.5812               103.2414               128.2340
 Red. masses --     7.0945                 6.2203                 5.3563
 Frc consts  --     0.0351                 0.0391                 0.0519
 IR Inten    --     1.1337                 3.6109                 2.5951
 Raman Activ --     0.0353                 0.0838                 0.0584

                    13                     14                     15
                     A                      A                      A
 Frequencies --   146.3111               167.0748               181.8261
 Red. masses --     6.3153                 6.6128                 7.1357
 Frc consts  --     0.0797                 0.1088                 0.1390
 IR Inten    --     2.9024                 0.8301                 1.3012
 Raman Activ --     0.5556                 1.7226                 0.1220

                    16                     17                     18
                     A                      A                      A
 Frequencies --   185.7809               221.7716               278.4289
 Red. masses --     5.9200                 6.2191                 4.6327
 Frc consts  --     0.1204                 0.1802                 0.2116
 IR Inten    --     3.4189                 0.3175                13.7328
 Raman Activ --     0.3210                 1.1125                 0.4356

                    19                     20                     21
                     A                      A                      A
 Frequencies --   283.4423               287.2566               302.2863
 Red. masses --     4.7227                 5.3963                 5.7839
 Frc consts  --     0.2235                 0.2624                 0.3114
 IR Inten    --     6.9319                 0.3941                 6.1290
 Raman Activ --     0.3893                 0.4209                 0.7713

                    22                     23                     24
                     A                      A                      A
 Frequencies --   305.3902               319.2999               326.5681
 Red. masses --     5.7544                 6.1324                 6.0845
 Frc consts  --     0.3162                 0.3684                 0.3823
 IR Inten    --     3.6591                 1.9713                 0.9629
 Raman Activ --     0.9478                 4.3098                 5.4175

                    25                     26                     27
                     A                      A                      A
 Frequencies --   343.9893               349.4458               363.4183
 Red. masses --     4.6216                 6.0305                 6.1884
 Frc consts  --     0.3222                 0.4339                 0.4816
 IR Inten    --    11.8951                11.5893                 1.5369
 Raman Activ --     0.6423                 0.1010                 1.3048

                    28                     29                     30
                     A                      A                      A
 Frequencies --   403.9889               420.1713               430.4907
 Red. masses --     4.2018                 6.0160                 5.0500
 Frc consts  --     0.4040                 0.6258                 0.5514
 IR Inten    --    14.6403                 6.0629                 1.3456
 Raman Activ --     1.9908                 4.1333                 2.6606

                    31                     32                     33
                     A                      A                      A
 Frequencies --   437.9711               480.1896               488.1484
 Red. masses --     4.6560                 3.6431                 4.9532
 Frc consts  --     0.5262                 0.4949                 0.6954
 IR Inten    --     1.3130                 8.7768                 3.1229
 Raman Activ --     2.1774                 1.6912                 0.8997

                    34                     35                     36
                     A                      A                      A
 Frequencies --   498.7300               530.9704               569.2957
 Red. masses --     4.1440                 3.4347                 3.7772
 Frc consts  --     0.6073                 0.5705                 0.7213
 IR Inten    --    12.1928                14.1469                 8.9324
 Raman Activ --     4.8402                 4.2573                 0.5466

                    37                     38                     39
                     A                      A                      A
 Frequencies --   582.6705               588.2237               605.6244
 Red. masses --     3.4605                 4.3758                 3.9570
 Frc consts  --     0.6922                 0.8921                 0.8551
 IR Inten    --    26.2504                18.7190                 1.1140
 Raman Activ --     0.4522                 1.0288                 0.1896

                    40                     41                     42
                     A                      A                      A
 Frequencies --   617.9386               675.8939               688.0719
 Red. masses --     6.0160                 5.4287                 1.0671
 Frc consts  --     1.3535                 1.4612                 0.2977
 IR Inten    --    36.8047                20.7235               105.2189
 Raman Activ --     1.3615                 0.7801                 1.8429

                    43                     44                     45
                     A                      A                      A
 Frequencies --   700.9008               717.7639               777.4979
 Red. masses --     1.0781                 1.0417                 1.0646
 Frc consts  --     0.3121                 0.3162                 0.3792
 IR Inten    --    97.1088                78.7523                76.6496
 Raman Activ --     1.4098                 1.6345                 1.2690

                    46                     47                     48
                     A                      A                      A
 Frequencies --   786.0004               805.0659               849.6041
 Red. masses --     1.0642                 1.0696                 1.7598
 Frc consts  --     0.3874                 0.4084                 0.7484
 IR Inten    --    61.4749                81.6381                 1.3573
 Raman Activ --     0.5270                 0.7213                 1.1620

                    49                     50                     51
                     A                      A                      A
 Frequencies --   865.2308               918.0793               958.4418
 Red. masses --     1.7475                 5.7406                 4.7379
 Frc consts  --     0.7708                 2.8508                 2.5643
 IR Inten    --     3.3120                67.6079                19.3644
 Raman Activ --     0.5602                 3.1177                 1.2969

                    52                     53                     54
                     A                      A                      A
 Frequencies --   972.0988               982.9127               986.2466
 Red. masses --     5.8292                 6.5366                 6.1116
 Frc consts  --     3.2455                 3.7208                 3.5025
 IR Inten    --     6.9059               499.2547                66.6023
 Raman Activ --     1.0885                 0.8419                 1.2789

                    55                     56                     57
                     A                      A                      A
 Frequencies --   998.9611              1009.7836              1019.3047
 Red. masses --     5.2468                 5.7996                 5.7801
 Frc consts  --     3.0849                 3.4842                 3.5383
 IR Inten    --   195.1611                86.2590               151.3111
 Raman Activ --     3.0982                 1.9807                 2.3194

                    58                     59                     60
                     A                      A                      A
 Frequencies --  1021.8957              1042.1249              1049.2492
 Red. masses --     6.6083                 5.8082                 5.7693
 Frc consts  --     4.0658                 3.7165                 3.7422
 IR Inten    --   255.3509               148.7516                68.0028
 Raman Activ --     2.6297                 3.1727                 2.9337

                    61                     62                     63
                     A                      A                      A
 Frequencies --  1059.1326              1065.5213              1078.8500
 Red. masses --     4.6490                 2.8830                 3.2644
 Frc consts  --     3.0726                 1.9285                 2.2386
 IR Inten    --    16.2102                13.8423                 9.0283
 Raman Activ --     0.5497                11.2684                13.3053

                    64                     65                     66
                     A                      A                      A
 Frequencies --  1086.5687              1101.5985              1103.5924
 Red. masses --     2.4289                 3.8249                 2.4919
 Frc consts  --     1.6896                 2.7347                 1.7881
 IR Inten    --    67.0813                17.4449                75.0899
 Raman Activ --    14.9718                 9.1162                 7.0065

                    67                     68                     69
                     A                      A                      A
 Frequencies --  1120.6866              1124.4415              1124.9193
 Red. masses --     2.4373                 2.1715                 2.6506
 Frc consts  --     1.8036                 1.6177                 1.9762
 IR Inten    --    20.6171                54.4667                12.7500
 Raman Activ --     1.2274                 6.9121                 4.6525

                    70                     71                     72
                     A                      A                      A
 Frequencies --  1141.0386              1148.9393              1151.7832
 Red. masses --     1.7418                 2.3040                 2.4522
 Frc consts  --     1.3361                 1.7919                 1.9167
 IR Inten    --    12.6143                18.0871                45.3848
 Raman Activ --     2.7726                 2.9809                 3.2209

                    73                     74                     75
                     A                      A                      A
 Frequencies --  1161.0746              1182.2881              1191.9739
 Red. masses --     2.6880                 1.8733                 1.3709
 Frc consts  --     2.1350                 1.5428                 1.1476
 IR Inten    --     1.5583                14.5421                 9.3829
 Raman Activ --     3.3068                 1.5025                 0.1372

                    76                     77                     78
                     A                      A                      A
 Frequencies --  1195.1167              1216.9823              1224.5704
 Red. masses --     1.9827                 1.5135                 1.3531
 Frc consts  --     1.6685                 1.3207                 1.1955
 IR Inten    --    11.4009                 9.9832                 8.8307
 Raman Activ --     3.1172                 2.4614                 0.8954

                    79                     80                     81
                     A                      A                      A
 Frequencies --  1236.4785              1257.1051              1259.7168
 Red. masses --     1.2848                 1.1796                 1.2015
 Frc consts  --     1.1574                 1.0983                 1.1233
 IR Inten    --    22.4793                 6.9368                14.8639
 Raman Activ --     1.1021                 0.7720                 1.1808

                    82                     83                     84
                     A                      A                      A
 Frequencies --  1274.3530              1285.9847              1288.8650
 Red. masses --     1.3172                 1.3231                 1.2727
 Frc consts  --     1.2603                 1.2892                 1.2456
 IR Inten    --    19.2046                23.9153                16.9860
 Raman Activ --     1.0083                 4.1449                 5.0561

                    85                     86                     87
                     A                      A                      A
 Frequencies --  1292.4022              1297.5900              1310.8089
 Red. masses --     1.2640                 1.2521                 1.2457
 Frc consts  --     1.2440                 1.2421                 1.2611
 IR Inten    --    41.7775                19.1271                12.6765
 Raman Activ --     4.9158                 1.4228                13.5612

                    88                     89                     90
                     A                      A                      A
 Frequencies --  1322.0044              1326.6383              1334.3923
 Red. masses --     1.1450                 1.2351                 1.2471
 Frc consts  --     1.1790                 1.2808                 1.3084
 IR Inten    --    16.6889                14.8615                32.0641
 Raman Activ --     8.0354                 5.8779                 0.6019

                    91                     92                     93
                     A                      A                      A
 Frequencies --  1343.3405              1347.3930              1355.8630
 Red. masses --     1.2103                 1.3018                 1.2425
 Frc consts  --     1.2868                 1.3925                 1.3457
 IR Inten    --    43.9812                11.8493                37.5400
 Raman Activ --     6.1517                 4.7184                 1.1570

                    94                     95                     96
                     A                      A                      A
 Frequencies --  1360.5703              1365.2929              1370.4085
 Red. masses --     1.2659                 1.3785                 1.4046
 Frc consts  --     1.3807                 1.5139                 1.5542
 IR Inten    --    12.0983                22.9491                 7.2433
 Raman Activ --     2.2513                 3.4642                 8.2827

                    97                     98                     99
                     A                      A                      A
 Frequencies --  1374.3461              1393.4001              1402.2102
 Red. masses --     1.3154                 1.5612                 1.4464
 Frc consts  --     1.4638                 1.7859                 1.6755
 IR Inten    --     3.1793                 6.5619                 5.4227
 Raman Activ --     4.1350                 4.1863                 4.8167

                   100                    101                    102
                     A                      A                      A
 Frequencies --  1415.4097              1435.0006              1458.4807
 Red. masses --     1.4354                 1.3300                 1.4318
 Frc consts  --     1.6942                 1.6137                 1.7945
 IR Inten    --    12.4153                20.3356                39.1294
 Raman Activ --     0.8563                 1.5424                 0.6014

                   103                    104                    105
                     A                      A                      A
 Frequencies --  1466.3676              1470.4724              1475.1231
 Red. masses --     1.0946                 1.3447                 1.2886
 Frc consts  --     1.3868                 1.7131                 1.6521
 IR Inten    --     6.3480                40.7538                39.6696
 Raman Activ --     4.8649                 1.6892                 2.5587

                   106                    107                    108
                     A                      A                      A
 Frequencies --  1477.0527              1484.7518              3252.8916
 Red. masses --     1.1520                 1.2997                 1.0623
 Frc consts  --     1.4808                 1.6881                 6.6228
 IR Inten    --    11.3896                22.3444                21.0294
 Raman Activ --     2.9715                 0.8263                59.6117

                   109                    110                    111
                     A                      A                      A
 Frequencies --  3253.0134              3258.6630              3263.4117
 Red. masses --     1.0759                 1.0600                 1.0797
 Frc consts  --     6.7079                 6.6317                 6.7747
 IR Inten    --     7.2953                72.3489                16.3870
 Raman Activ --    46.0620               105.5030               137.1737

                   112                    113                    114
                     A                      A                      A
 Frequencies --  3270.1485              3274.6232              3275.8109
 Red. masses --     1.0825                 1.0835                 1.0832
 Frc consts  --     6.8207                 6.8457                 6.8483
 IR Inten    --    17.1903                16.7724                 0.8667
 Raman Activ --     8.3190                55.5042                14.1469

                   115                    116                    117
                     A                      A                      A
 Frequencies --  3284.1980              3288.8712              3296.7060
 Red. masses --     1.0830                 1.0857                 1.0856
 Frc consts  --     6.8824                 6.9193                 6.9517
 IR Inten    --     8.4012                 2.3843                15.4899
 Raman Activ --   173.0854                64.5396                 8.6502

                   118                    119                    120
                     A                      A                      A
 Frequencies --  3297.4030              3305.8059              3309.9019
 Red. masses --     1.0874                 1.0997                 1.1034
 Frc consts  --     6.9662                 7.0809                 7.1220
 IR Inten    --    85.7008                10.6876                45.0275
 Raman Activ --    18.9985                43.2016                90.5476

                   121                    122                    123
                     A                      A                      A
 Frequencies --  3311.2929              3314.1474              3321.5364
 Red. masses --     1.0914                 1.0711                 1.0690
 Frc consts  --     7.0507                 6.9316                 6.9490
 IR Inten    --    47.6300               154.2855               735.4333
 Raman Activ --    46.9065               284.0775                71.5064

                   124                    125                    126
                     A                      A                      A
 Frequencies --  3362.7667              3367.3950              3372.2006
 Red. masses --     1.0674                 1.0647                 1.0654
 Frc consts  --     7.1115                 7.1135                 7.1385
 IR Inten    --    72.8392                39.3585                63.7984
 Raman Activ --   140.0524                94.0567               115.4828

                   127                    128                    129
                     A                      A                      A
 Frequencies --  3378.1931              3889.1998              3891.3664
 Red. masses --     1.0678                 1.0674                 1.0674
 Frc consts  --     7.1798                 9.5123                 9.5235
 IR Inten    --    43.6703                69.5805                70.2369
 Raman Activ --   142.2982               111.2063               102.8323

 - Thermochemistry -
 -------------------
 Temperature   298.150 Kelvin.  Pressure   1.00000 Atm.
 Atom     1 has atomic number  8 and mass  15.99491

 Molecular mass:   342.11621 amu.
 Principal axes and moments of inertia in atomic units:
                           1         2         3
     Eigenvalues --  4415.98725********************
           X            0.99997  -0.00809  -0.00030
           Y            0.00809   0.99997  -0.00031
           Z            0.00030   0.00031   1.00000
 This molecule is an asymmetric top.
 Rotational symmetry number  1.
 Warning -- assumption of classical behavior for rotation
           may cause significant error
 Rotational temperatures (Kelvin)      0.01961     0.00678     0.00515
 Rotational constants (GHZ):           0.40868     0.14119     0.10736
    6 imaginary frequencies ignored.
 Zero-point vibrational energy     973934.4 (Joules/Mol)
                                  232.77592 (Kcal/Mol)
 Warning -- explicit consideration of  34 degrees of freedom as
           vibrations may cause significant error
 Vibrational temperatures:     63.38    75.44    96.84   131.76   148.54
          (Kelvin)            184.50   210.51   240.38   261.61   267.30
                              319.08   400.60   407.81   413.30   434.92
                              439.39   459.40   469.86   494.92   502.77
                              522.88   581.25   604.53   619.38   630.14
                              690.88   702.34   717.56   763.95   819.09
                              838.33   846.32   871.36   889.07   972.46
                              989.98  1008.44  1032.70  1118.64  1130.88
                             1158.31  1222.39  1244.87  1320.91  1378.98
                             1398.63  1414.19  1418.99  1437.28  1452.85
                             1466.55  1470.28  1499.38  1509.63  1523.85
                             1533.05  1552.22  1563.33  1584.95  1587.82
                             1612.42  1617.82  1618.51  1641.70  1653.07
                             1657.16  1670.53  1701.05  1714.98  1719.50
                             1750.96  1761.88  1779.01  1808.69  1812.45
                             1833.51  1850.24  1854.39  1859.48  1866.94
                             1885.96  1902.07  1908.73  1919.89  1932.76
                             1938.60  1950.78  1957.55  1964.35  1971.71
                             1977.38  2004.79  2017.47  2036.46  2064.64
                             2098.43  2109.77  2115.68  2122.37  2125.15
                             2136.22  4680.18  4680.35  4688.48  4695.32
                             4705.01  4711.45  4713.16  4725.22  4731.95
                             4743.22  4744.22  4756.31  4762.20  4764.21
                             4768.31  4778.94  4838.27  4844.92  4851.84
                             4860.46  5595.68  5598.80

 Zero-point correction=                           0.370952 (Hartree/Particle)
 Thermal correction to Energy=                    0.390177
 Thermal correction to Enthalpy=                  0.391122
 Thermal correction to Gibbs Free Energy=         0.324078
 Sum of electronic and zero-point Energies=          -1297.603588
 Sum of electronic and thermal Energies=             -1297.584363
 Sum of electronic and thermal Enthalpies=           -1297.583418
 Sum of electronic and thermal Free Energies=        -1297.650462

                     E (Thermal)             CV                S
                      KCal/Mol        Cal/Mol-Kelvin    Cal/Mol-Kelvin
 Total                  244.840             78.193            141.106
 Electronic               0.000              0.000              0.000
 Translational            0.889              2.981             43.384
 Rotational               0.889              2.981             35.205
 Vibrational            243.063             72.231             62.516
 Vibration     1          0.595              1.980              5.068
 Vibration     2          0.596              1.977              4.724
 Vibration     3          0.598              1.970              4.231
 Vibration     4          0.602              1.955              3.626
 Vibration     5          0.605              1.947              3.392
 Vibration     6          0.611              1.925              2.972
 Vibration     7          0.617              1.907              2.720
 Vibration     8          0.624              1.883              2.468
 Vibration     9          0.630              1.864              2.310
 Vibration    10          0.632              1.859              2.270
 Vibration    11          0.648              1.808              1.945
 Vibration    12          0.679              1.713              1.543
 Vibration    13          0.682              1.704              1.513
 Vibration    14          0.684              1.697              1.490
 Vibration    15          0.694              1.669              1.404
 Vibration    16          0.696              1.663              1.387
 Vibration    17          0.705              1.637              1.314
 Vibration    18          0.710              1.622              1.277
 Vibration    19          0.723              1.587              1.194
 Vibration    20          0.727              1.576              1.169
 Vibration    21          0.737              1.548              1.107
 Vibration    22          0.769              1.462              0.948
 Vibration    23          0.783              1.426              0.891
 Vibration    24          0.792              1.404              0.857
 Vibration    25          0.798              1.387              0.833
 Vibration    26          0.837              1.294              0.710
 Vibration    27          0.844              1.276              0.688
 Vibration    28          0.854              1.253              0.661
 Vibration    29          0.886              1.181              0.585
 Vibration    30          0.925              1.098              0.506
 Vibration    31          0.939              1.069              0.480
 Vibration    32          0.945              1.057              0.470
 Vibration    33          0.964              1.020              0.440
 Vibration    34          0.978              0.994              0.420

 Normal termination of Gaussian 09 at Mon Mar 28 19:42:14 2016.
