 Gaussian 09, Revision B.01,
 Gaussian 09:  EM64L-G09RevB.01 12-Aug-2010

 --------------------------------------------------
 # freq=raman b3lyp/6-31+g(2df,p) geom=connectivity
 --------------------------------------------------

 ------------
 400 6000.com
 ------------
 Symbolic Z-matrix:
 Charge =  0 Multiplicity = 1

                         Standard orientation:
 ---------------------------------------------------------------------
 Center     Atomic      Atomic             Coordinates (Angstroms)
 Number     Number       Type             X           Y           Z
 ---------------------------------------------------------------------
      1          8           0       -5.019640   -0.346674    0.502573
      2          6           0       -3.740964   -0.018164   -0.058877
      3          6           0       -3.150619    1.299820    0.416302
      4          8           0       -4.160321    2.262168    0.080387
      5          1           0       -5.054319    1.869152    0.298671
      6          6           0       -1.810010    1.609708   -0.228108
      7          8           0       -1.074413    2.808290    0.059180
      8          1           0       -0.148026    2.841994   -0.316034
      9          6           0       -3.115160   -2.477827   -0.308053
     10          8           0       -4.411266   -3.003046    0.012373
     11          1           0       -4.424187   -3.984806   -0.176982
     12          6           0       -2.734837   -1.115367    0.248276
     13          8           0       -1.437841   -0.806367   -0.284196
     14          6           0       -0.878081    0.456524    0.105384
     15          8           0        0.412215    0.617002   -0.501452
     16          6           0        1.524388    0.237947    0.322509
     17          6           0        1.919269   -1.144655   -0.170169
     18          8           0        0.845419   -2.093979   -0.237147
     19          1           0       -0.030796   -1.651946   -0.427877
     20          6           0        3.288895   -1.573344    0.331643
     21          8           0        3.595474   -2.852315   -0.243940
     22          1           0        4.560339   -3.039770   -0.059542
     23          6           0        2.445174    2.539576    0.159287
     24          8           0        1.470439    3.277420   -0.591244
     25          1           0        1.658606    4.252420   -0.474724
     26          6           0        2.635968    1.092696   -0.263163
     27          8           0        3.857018    0.681446    0.368690
     28          6           0        4.324157   -0.571512   -0.152580
     29          8           0        5.515849   -0.723777    0.632997
     30          1           0        6.282688   -0.718431    0.055477
     31          1           0        4.487034   -0.571169   -1.210111
     32          1           0        3.295133   -1.632069    1.400012
     33          1           0        2.113396   -0.967587   -1.207407
     34          1           0        1.377063    0.332869    1.378059
     35          1           0        2.691290    0.995777   -1.327328
     36          1           0        3.386109    3.041086    0.069681
     37          1           0        2.154035    2.551851    1.188844
     38          1           0       -5.666865   -0.428562   -0.201695
     39          1           0       -2.386604   -3.182355    0.035089
     40          1           0       -3.042384   -2.423843   -1.374209
     41          1           0       -2.649003   -1.200434    1.311430
     42          1           0       -3.854453    0.037256   -1.121397
     43          1           0       -3.031783    1.269984    1.479264
     44          1           0       -1.967763    1.592928   -1.286282
     45          1           0       -0.742047    0.441886    1.166600
 ---------------------------------------------------------------------

 SCF Done:  E(RB3LYP) =  -1297.99552551     A.U. after   13 cycles

 The electronic state is 1-A.
 Alpha  occ. eigenvalues --  -19.18836 -19.18705 -19.18369 -19.18158 -19.17448
 Alpha  occ. eigenvalues --  -19.17303 -19.16231 -19.15566 -19.14832 -19.12956
 Alpha  occ. eigenvalues --  -19.12355 -10.30635 -10.30320 -10.25761 -10.25516
 Alpha  occ. eigenvalues --  -10.25419 -10.25242 -10.24854 -10.24779 -10.24535
 Alpha  occ. eigenvalues --  -10.24427 -10.24028 -10.23320  -1.10188  -1.09328
 Alpha  occ. eigenvalues --   -1.05882  -1.05366  -1.04491  -1.02935  -1.02564
 Alpha  occ. eigenvalues --   -1.02314  -1.01620  -0.99786  -0.98959  -0.82344
 Alpha  occ. eigenvalues --   -0.80652  -0.79104  -0.78496  -0.71514  -0.69943
 Alpha  occ. eigenvalues --   -0.67272  -0.64324  -0.63157  -0.62721  -0.61277
 Alpha  occ. eigenvalues --   -0.60672  -0.56954  -0.56266  -0.54877  -0.54372
 Alpha  occ. eigenvalues --   -0.54182  -0.53568  -0.52872  -0.51482  -0.50861
 Alpha  occ. eigenvalues --   -0.50154  -0.49786  -0.49450  -0.48570  -0.46870
 Alpha  occ. eigenvalues --   -0.45705  -0.45425  -0.44654  -0.44016  -0.43083
 Alpha  occ. eigenvalues --   -0.42574  -0.41550  -0.40981  -0.40542  -0.39238
 Alpha  occ. eigenvalues --   -0.38872  -0.38017  -0.37729  -0.36469  -0.35967
 Alpha  occ. eigenvalues --   -0.35412  -0.35213  -0.34259  -0.33160  -0.32854
 Alpha  occ. eigenvalues --   -0.32687  -0.31413  -0.30729  -0.30086  -0.29889
 Alpha  occ. eigenvalues --   -0.29435  -0.28814  -0.27183  -0.27089  -0.26428
 Alpha  occ. eigenvalues --   -0.25537
 Alpha virt. eigenvalues --   -0.02007  -0.01922  -0.01686  -0.00142   0.00238
 Alpha virt. eigenvalues --    0.00875   0.01886   0.02156   0.03245   0.03454
 Alpha virt. eigenvalues --    0.04054   0.04401   0.04903   0.05463   0.05722

 Mulliken atomic charges:
              1
     1  O   -0.450283
     2  C   -0.267783
     3  C    0.204841
     4  O   -0.466498
     5  H    0.350415
     6  C   -0.257811
     7  O   -0.510380
     8  H    0.461986
     9  C   -0.319299
    10  O   -0.463616
    11  H    0.353897
    12  C    0.021444
    13  O   -0.086171
    14  C    0.109191
    15  O   -0.060918
    16  C    0.038498
    17  C    0.051957
    18  O   -0.551793
    19  H    0.443251
    20  C    0.086418
    21  O   -0.445500
    22  H    0.337860
    23  C   -0.402837
    24  O   -0.479228
    25  H    0.362160
    26  C   -0.090749
    27  O   -0.036862
    28  C   -0.076323
    29  O   -0.456089
    30  H    0.341088
    31  H    0.149115
    32  H    0.135733
    33  H    0.096580
    34  H    0.134625
    35  H    0.139314
    36  H    0.150002
    37  H    0.158682
    38  H    0.364630
    39  H    0.159037
    40  H    0.149273
    41  H    0.122109
    42  H    0.133523
    43  H    0.124911
    44  H    0.127795
    45  H    0.113808
 Sum of Mulliken atomic charges =   0.00000

 Dipole moment (field-independent basis, Debye):
    X=              2.5295    Y=              0.0552    Z=             -1.5929  Tot=              2.9898
 Quadrupole moment (field-independent basis, Debye-Ang):
   XX=           -112.4149   YY=           -140.5546   ZZ=           -137.9898
   XY=             18.3900   XZ=             -1.0018   YZ=              0.9329

  Exact polarizability: 236.400   0.819 194.974   0.880   1.096 142.768
 Approx polarizability: 278.302   3.260 254.000   1.971   1.075 239.483

 ******    6 imaginary frequencies (negative Signs) ******

                     1                      2                      3
                     A                      A                      A
 Frequencies --  -276.2199              -225.9190              -180.6525
 Red. masses --     1.7803                 1.8789                 1.1775
 Frc consts  --     0.0800                 0.0565                 0.0226
 IR Inten    --     8.3604                 5.2300                57.1371
 Raman Activ --     0.0707                 0.0993                 1.1419

                     4                      5                      6
                     A                      A                      A
 Frequencies --  -177.1650               -90.7336               -34.3352
 Red. masses --     1.2927                 7.2160                 6.5812
 Frc consts  --     0.0239                 0.0350                 0.0046
 IR Inten    --   132.0294                 2.8984                 0.5098
 Raman Activ --     0.5485                 0.0392                 0.0603

                     7                      8                      9
                     A                      A                      A
 Frequencies --    32.7750                49.8771                54.3385
 Red. masses --     6.4315                 6.4143                 7.1693
 Frc consts  --     0.0041                 0.0094                 0.0125
 IR Inten    --     2.6519                 0.5451                 0.6075
 Raman Activ --     0.0177                 0.0351                 0.0638

                    10                     11                     12
                     A                      A                      A
 Frequencies --    79.5763                87.5719               144.9020
 Red. masses --     5.9557                 5.2533                 5.6839
 Frc consts  --     0.0222                 0.0237                 0.0703
 IR Inten    --     7.0592                 8.4040                 0.8601
 Raman Activ --     0.0634                 0.3154                 0.0302

                    13                     14                     15
                     A                      A                      A
 Frequencies --   171.8701               187.6761               204.1003
 Red. masses --     6.3416                 6.5319                 5.8534
 Frc consts  --     0.1104                 0.1356                 0.1437
 IR Inten    --     5.5301                 4.1365                 1.9438
 Raman Activ --     0.5990                 0.5782                 0.1631

                    16                     17                     18
                     A                      A                      A
 Frequencies --   216.3385               242.0139               260.1239
 Red. masses --     6.8316                 5.8189                 4.4584
 Frc consts  --     0.1884                 0.2008                 0.1777
 IR Inten    --     0.1761                 2.4673                17.0288
 Raman Activ --     2.7202                 0.6146                 0.1439

                    19                     20                     21
                     A                      A                      A
 Frequencies --   275.2166               298.4068               315.9847
 Red. masses --     5.0437                 4.9075                 5.5860
 Frc consts  --     0.2251                 0.2575                 0.3286
 IR Inten    --     4.3443                 1.5304                 1.8065
 Raman Activ --     0.3855                 0.2555                 0.8825

                    22                     23                     24
                     A                      A                      A
 Frequencies --   321.4036               327.8702               340.2812
 Red. masses --     5.4676                 4.6135                 5.5897
 Frc consts  --     0.3328                 0.2922                 0.3813
 IR Inten    --     3.4374                 1.9668                 9.0621
 Raman Activ --     2.3910                 2.8383                 2.4481

                    25                     26                     27
                     A                      A                      A
 Frequencies --   347.0330               369.8246               395.9163
 Red. masses --     6.1936                 4.6580                 5.3608
 Frc consts  --     0.4395                 0.3754                 0.4951
 IR Inten    --     5.0732                 6.2845                 2.5414
 Raman Activ --     1.5515                 0.5289                 2.3300

                    28                     29                     30
                     A                      A                      A
 Frequencies --   405.2767               427.3794               440.8283
 Red. masses --     7.4956                 5.8483                 4.6312
 Frc consts  --     0.7254                 0.6294                 0.5303
 IR Inten    --     8.5522                 9.9581                11.5507
 Raman Activ --     2.9364                 4.1727                 4.5759

                    31                     32                     33
                     A                      A                      A
 Frequencies --   450.3072               488.9528               503.9124
 Red. masses --     5.3170                 3.9488                 4.3352
 Frc consts  --     0.6352                 0.5562                 0.6486
 IR Inten    --     4.5805                 5.1409                13.6197
 Raman Activ --     1.5373                 1.4773                 0.7641

                    34                     35                     36
                     A                      A                      A
 Frequencies --   524.3504               538.9586               570.3676
 Red. masses --     3.5625                 3.4003                 3.7136
 Frc consts  --     0.5771                 0.5819                 0.7118
 IR Inten    --     2.3859                19.4524                15.8955
 Raman Activ --     6.2017                 1.2926                 1.2312

                    37                     38                     39
                     A                      A                      A
 Frequencies --   586.6459               616.7492               636.3826
 Red. masses --     4.8999                 3.7738                 3.7384
 Frc consts  --     0.9935                 0.8458                 0.8920
 IR Inten    --    10.2481                18.7260                 7.3795
 Raman Activ --     0.9192                 0.3022                 1.3960

                    40                     41                     42
                     A                      A                      A
 Frequencies --   639.8221               697.6707               707.2127
 Red. masses --     6.2376                 3.9994                 1.0897
 Frc consts  --     1.5045                 1.1469                 0.3211
 IR Inten    --    36.6638                30.2698                88.0129
 Raman Activ --     1.5666                 0.1280                 1.8084

                    43                     44                     45
                     A                      A                      A
 Frequencies --   715.7077               740.2870               763.9230
 Red. masses --     1.1412                 1.0863                 1.0734
 Frc consts  --     0.3444                 0.3507                 0.3691
 IR Inten    --    96.0792               129.9978               101.2530
 Raman Activ --     1.8438                 1.9098                 1.8661

                    46                     47                     48
                     A                      A                      A
 Frequencies --   783.7713               817.3455               851.9185
 Red. masses --     1.0551                 1.0728                 1.7816
 Frc consts  --     0.3819                 0.4222                 0.7618
 IR Inten    --    84.7407                67.0365                 2.1774
 Raman Activ --     1.5460                 0.2751                 1.4284

                    49                     50                     51
                     A                      A                      A
 Frequencies --   880.5943               927.4445               940.5009
 Red. masses --     1.6447                 5.9860                 5.5403
 Frc consts  --     0.7514                 3.0336                 2.8874
 IR Inten    --     5.9469               213.8342                20.0588
 Raman Activ --     0.6730                 3.8689                 0.3001

                    52                     53                     54
                     A                      A                      A
 Frequencies --   965.3791               983.7887               988.7848
 Red. masses --     4.5902                 5.5040                 4.2101
 Frc consts  --     2.5204                 3.1385                 2.4252
 IR Inten    --    99.8815                 8.3907                73.0177
 Raman Activ --     0.7222                 0.8066                 4.0774

                    55                     56                     57
                     A                      A                      A
 Frequencies --  1006.2221              1010.0640              1027.7251
 Red. masses --     5.0829                 8.1648                 6.5134
 Frc consts  --     3.0321                 4.9079                 4.0533
 IR Inten    --    43.1930               253.3582               124.9740
 Raman Activ --     2.7771                 0.8936                 4.4843

                    58                     59                     60
                     A                      A                      A
 Frequencies --  1036.8688              1052.8132              1060.2973
 Red. masses --     5.4159                 2.3799                 4.5396
 Frc consts  --     3.4306                 1.5542                 3.0070
 IR Inten    --   414.8684                54.0617                38.9929
 Raman Activ --     2.7833                 6.9559                 6.7370

                    61                     62                     63
                     A                      A                      A
 Frequencies --  1065.0366              1071.5348              1077.7831
 Red. masses --     3.3405                 4.7399                 3.8331
 Frc consts  --     2.2325                 3.2065                 2.6234
 IR Inten    --    16.9196                25.4471                 5.6607
 Raman Activ --     9.1033                 4.2935                11.3889

                    64                     65                     66
                     A                      A                      A
 Frequencies --  1079.1561              1090.1977              1096.3076
 Red. masses --     4.4755                 2.2968                 2.3625
 Frc consts  --     3.0708                 1.6083                 1.6730
 IR Inten    --   142.3313                 8.9447                79.3432
 Raman Activ --     1.8776                 3.9424                15.9417

                    67                     68                     69
                     A                      A                      A
 Frequencies --  1105.5275              1110.2572              1128.5408
 Red. masses --     1.9713                 2.6637                 2.4456
 Frc consts  --     1.4195                 1.9345                 1.8352
 IR Inten    --    10.6672                89.4362                66.8875
 Raman Activ --    11.4328                 1.9051                 6.8348

                    70                     71                     72
                     A                      A                      A
 Frequencies --  1142.6615              1144.3026              1154.7342
 Red. masses --     2.5615                 2.3155                 2.3138
 Frc consts  --     1.9705                 1.7864                 1.8178
 IR Inten    --    68.1494                21.7966                 4.5464
 Raman Activ --     2.3999                 2.2124                 3.2062

                    73                     74                     75
                     A                      A                      A
 Frequencies --  1163.6389              1167.6304              1174.9556
 Red. masses --     1.8666                 1.8729                 1.6519
 Frc consts  --     1.4891                 1.5045                 1.3436
 IR Inten    --     1.1752                18.0996                24.8916
 Raman Activ --     4.1894                 2.1379                 1.8878

                    76                     77                     78
                     A                      A                      A
 Frequencies --  1196.1930              1201.8161              1206.3423
 Red. masses --     1.5487                 1.3493                 1.3852
 Frc consts  --     1.3056                 1.1482                 1.1877
 IR Inten    --    10.9351                27.8015                10.8368
 Raman Activ --     3.1774                 1.1472                 1.3753

                    79                     80                     81
                     A                      A                      A
 Frequencies --  1226.5336              1242.8224              1250.9981
 Red. masses --     1.3306                 1.3745                 1.2834
 Frc consts  --     1.1794                 1.2509                 1.1833
 IR Inten    --     4.2594                29.5597                 3.0700
 Raman Activ --     4.1144                 5.2378                 1.5904

                    82                     83                     84
                     A                      A                      A
 Frequencies --  1255.7165              1260.9973              1279.7456
 Red. masses --     1.2607                 1.3048                 1.4047
 Frc consts  --     1.1712                 1.2225                 1.3554
 IR Inten    --    31.6495                 4.7331                31.1781
 Raman Activ --     1.0664                 1.4534                 4.5871

                    85                     86                     87
                     A                      A                      A
 Frequencies --  1280.1866              1289.6191              1292.2659
 Red. masses --     1.2259                 1.3461                 1.2804
 Frc consts  --     1.1838                 1.3190                 1.2598
 IR Inten    --    32.0371                 8.1778                 7.8149
 Raman Activ --     0.3851                 3.7031                 2.4846

                    88                     89                     90
                     A                      A                      A
 Frequencies --  1303.7930              1311.8024              1322.9822
 Red. masses --     1.1488                 1.3389                 1.1613
 Frc consts  --     1.1506                 1.3574                 1.1976
 IR Inten    --    20.8024                47.2893                36.6136
 Raman Activ --    13.0828                 7.7502                 3.9666

                    91                     92                     93
                     A                      A                      A
 Frequencies --  1333.5640              1338.6524              1343.7748
 Red. masses --     1.2684                 1.3135                 1.1720
 Frc consts  --     1.3290                 1.3869                 1.2469
 IR Inten    --    19.9052                18.0496                39.3846
 Raman Activ --     0.6096                 9.1437                 1.7230

                    94                     95                     96
                     A                      A                      A
 Frequencies --  1351.9943              1359.8453              1368.0254
 Red. masses --     1.5958                 1.5941                 1.5729
 Frc consts  --     1.7186                 1.7368                 1.7344
 IR Inten    --     7.1097                 7.1770                 8.6944
 Raman Activ --     2.7781                 5.1349                 6.8824

                    97                     98                     99
                     A                      A                      A
 Frequencies --  1383.1631              1396.6842              1406.6253
 Red. masses --     1.2670                 1.4410                 1.4603
 Frc consts  --     1.4282                 1.6562                 1.7023
 IR Inten    --     3.0702                 2.1044                43.2233
 Raman Activ --     3.5567                 6.3305                 0.8921

                   100                    101                    102
                     A                      A                      A
 Frequencies --  1432.5619              1436.7137              1443.4498
 Red. masses --     1.3936                 1.4251                 1.0961
 Frc consts  --     1.6851                 1.7331                 1.3456
 IR Inten    --    44.0563                57.3121                22.4701
 Raman Activ --     1.4052                 2.8461                 1.3117

                   103                    104                    105
                     A                      A                      A
 Frequencies --  1457.3158              1463.6885              1470.1906
 Red. masses --     1.3453                 1.2938                 1.1195
 Frc consts  --     1.6834                 1.6332                 1.4257
 IR Inten    --    13.5945                15.9011                 2.2789
 Raman Activ --     2.4307                 3.4783                 2.9929

                   106                    107                    108
                     A                      A                      A
 Frequencies --  1472.6126              1496.5592              3217.3306
 Red. masses --     1.1355                 1.2780                 1.0714
 Frc consts  --     1.4508                 1.6864                 6.5342
 IR Inten    --     8.1220                40.5055               239.4259
 Raman Activ --     2.5912                 2.6342               279.7713

                   109                    110                    111
                     A                      A                      A
 Frequencies --  3230.1478              3247.8610              3254.7763
 Red. masses --     1.0761                 1.0736                 1.0572
 Frc consts  --     6.6152                 6.6726                 6.5985
 IR Inten    --   942.7925               837.3046                48.3663
 Raman Activ --    19.5698                67.6095                82.6525

                   112                    113                    114
                     A                      A                      A
 Frequencies --  3260.1153              3265.7857              3268.3812
 Red. masses --     1.0588                 1.0810                 1.0819
 Frc consts  --     6.6300                 6.7926                 6.8094
 IR Inten    --    40.0888                47.3481                 1.8698
 Raman Activ --   163.8960                 7.7753                38.0328

                   115                    116                    117
                     A                      A                      A
 Frequencies --  3272.7372              3279.9296              3287.3478
 Red. masses --     1.0816                 1.0857                 1.0851
 Frc consts  --     6.8258                 6.8816                 6.9092
 IR Inten    --    74.6631                 5.5029                 7.3867
 Raman Activ --   173.7884                 8.7555                82.0555

                   118                    119                    120
                     A                      A                      A
 Frequencies --  3292.4003              3294.2529              3303.4070
 Red. masses --     1.0859                 1.0880                 1.0879
 Frc consts  --     6.9350                 6.9563                 6.9948
 IR Inten    --     8.5102                64.1601                12.8166
 Raman Activ --    47.3882                10.6389                78.3131

                   121                    122                    123
                     A                      A                      A
 Frequencies --  3307.4634              3310.7806              3318.1148
 Red. masses --     1.0902                 1.1044                 1.1038
 Frc consts  --     7.0269                 7.1326                 7.1605
 IR Inten    --    34.0800                61.6238                48.5433
 Raman Activ --    17.8409                32.6421                35.7493

                   124                    125                    126
                     A                      A                      A
 Frequencies --  3335.0125              3352.0810              3357.0803
 Red. masses --     1.0654                 1.0658                 1.0677
 Frc consts  --     6.9813                 7.0557                 7.0897
 IR Inten    --    44.6810                25.0415                44.5923
 Raman Activ --    94.8765               140.8740               178.9643

                   127                    128                    129
                     A                      A                      A
 Frequencies --  3364.7211              3876.3897              3877.1052
 Red. masses --     1.0673                 1.0677                 1.0674
 Frc consts  --     7.1196                 9.4527                 9.4532
 IR Inten    --    57.5482                96.2814                57.8940
 Raman Activ --   157.2164                73.2520               146.0568

 - Thermochemistry -
 -------------------
 Temperature   298.150 Kelvin.  Pressure   1.00000 Atm.
 Atom     1 has atomic number  8 and mass  15.99491

 Molecular mass:   342.11621 amu.
 Principal axes and moments of inertia in atomic units:
                           1         2         3
     Eigenvalues --  4284.11609********************
           X            0.99997   0.00816  -0.00009
           Y           -0.00815   0.99996   0.00290
           Z            0.00011  -0.00290   1.00000
 This molecule is an asymmetric top.
 Rotational symmetry number  1.
 Warning -- assumption of classical behavior for rotation
           may cause significant error
 Rotational temperatures (Kelvin)      0.02022     0.00702     0.00534
 Rotational constants (GHZ):           0.42126     0.14628     0.11123
    6 imaginary frequencies ignored.
 Zero-point vibrational energy     973365.9 (Joules/Mol)
                                  232.64004 (Kcal/Mol)
 Warning -- explicit consideration of  32 degrees of freedom as
           vibrations may cause significant error
 Vibrational temperatures:     47.16    71.76    78.18   114.49   126.00
          (Kelvin)            208.48   247.28   270.02   293.65   311.26
                              348.20   374.26   395.97   429.34   454.63
                              462.43   471.73   489.59   499.30   532.09
                              569.63   583.10   614.90   634.25   647.89
                              703.49   725.02   754.42   775.44   820.63
                              844.05   887.36   915.61   920.56  1003.79
                             1017.52  1029.74  1065.11  1099.11  1127.67
                             1175.98  1225.72  1266.98  1334.38  1353.17
                             1388.96  1415.45  1422.64  1447.73  1453.25
                             1478.67  1491.82  1514.76  1525.53  1532.35
                             1541.70  1550.69  1552.66  1568.55  1577.34
                             1590.61  1597.41  1623.72  1644.03  1646.39
                             1661.40  1674.21  1679.96  1690.50  1721.05
                             1729.14  1735.66  1764.71  1788.14  1799.90
                             1806.69  1814.29  1841.27  1841.90  1855.47
                             1859.28  1875.86  1887.39  1903.47  1918.70
                             1926.02  1933.39  1945.22  1956.51  1968.28
                             1990.06  2009.51  2023.82  2061.13  2067.11
                             2076.80  2096.75  2105.92  2115.27  2118.76
                             2153.21  4629.02  4647.46  4672.94  4682.89
                             4690.57  4698.73  4702.47  4708.73  4719.08
                             4729.75  4737.02  4739.69  4752.86  4758.70
                             4763.47  4774.02  4798.33  4822.89  4830.08
                             4841.08  5577.25  5578.28

 Zero-point correction=                           0.370735 (Hartree/Particle)
 Thermal correction to Energy=                    0.389615
 Thermal correction to Enthalpy=                  0.390560
 Thermal correction to Gibbs Free Energy=         0.323823
 Sum of electronic and zero-point Energies=          -1297.624790
 Sum of electronic and thermal Energies=             -1297.605910
 Sum of electronic and thermal Enthalpies=           -1297.604966
 Sum of electronic and thermal Free Energies=        -1297.671703

                     E (Thermal)             CV                S
                      KCal/Mol        Cal/Mol-Kelvin    Cal/Mol-Kelvin
 Total                  244.487             77.445            140.459
 Electronic               0.000              0.000              0.000
 Translational            0.889              2.981             43.384
 Rotational               0.889              2.981             35.105
 Vibrational            242.710             71.483             61.970
 Vibration     1          0.594              1.983              5.654
 Vibration     2          0.595              1.978              4.822
 Vibration     3          0.596              1.976              4.653
 Vibration     4          0.600              1.963              3.901
 Vibration     5          0.601              1.958              3.714
 Vibration     6          0.616              1.908              2.738
 Vibration     7          0.626              1.877              2.415
 Vibration     8          0.632              1.857              2.251
 Vibration     9          0.640              1.834              2.096
 Vibration    10          0.645              1.816              1.990
 Vibration    11          0.658              1.776              1.788
 Vibration    12          0.668              1.746              1.661
 Vibration    13          0.677              1.719              1.563
 Vibration    14          0.691              1.677              1.426
 Vibration    15          0.703              1.643              1.331
 Vibration    16          0.707              1.633              1.303
 Vibration    17          0.711              1.620              1.271
 Vibration    18          0.720              1.595              1.211
 Vibration    19          0.725              1.581              1.180
 Vibration    20          0.742              1.534              1.081
 Vibration    21          0.763              1.479              0.978
 Vibration    22          0.770              1.459              0.943
 Vibration    23          0.789              1.411              0.867
 Vibration    24          0.801              1.381              0.824
 Vibration    25          0.809              1.360              0.795
 Vibration    26          0.845              1.275              0.686
 Vibration    27          0.859              1.241              0.648
 Vibration    28          0.879              1.196              0.600
 Vibration    29          0.894              1.164              0.568
 Vibration    30          0.926              1.095              0.504
 Vibration    31          0.944              1.060              0.473
 Vibration    32          0.976              0.996              0.422

 Normal termination of Gaussian 09 at Tue Feb 16 09:23:19 2016.
