 Gaussian 09, Revision B.01,
 Gaussian 09:  EM64L-G09RevB.01 12-Aug-2010

 -------------------------------------------------
 # freq=raman b3lyp/6-31+g(2d,p) geom=connectivity
 -------------------------------------------------

 -----------------
 320 6887/6887.com
 -----------------
 Symbolic Z-matrix:
 Charge =  0 Multiplicity = 1

                         Standard orientation:
 ---------------------------------------------------------------------
 Center     Atomic      Atomic             Coordinates (Angstroms)
 Number     Number       Type             X           Y           Z
 ---------------------------------------------------------------------
      1          8           0       -5.132032   -0.311798    0.550459
      2          6           0       -3.861438   -0.135489   -0.092941
      3          6           0       -3.308306    1.227084    0.291177
      4          8           0       -4.258184    2.232371   -0.090144
      5          1           0       -5.199591    1.942737    0.082572
      6          6           0       -1.918074    1.475043   -0.270528
      7          8           0       -1.389578    2.763706    0.077210
      8          1           0       -0.516465    2.938293   -0.377656
      9          6           0       -3.057282   -2.557631   -0.144668
     10          8           0       -4.304067   -3.159505    0.236404
     11          1           0       -4.372127   -4.130686    0.007324
     12          6           0       -2.766901   -1.124901    0.270836
     13          8           0       -1.500567   -0.865017   -0.352358
     14          6           0       -0.953912    0.371291    0.132166
     15          8           0        0.296485    0.445339   -0.568529
     16          6           0        1.540748    0.144414    0.078807
     17          6           0        2.183896   -1.111910   -0.487072
     18          8           0        1.329197   -2.236809   -0.236127
     19          1           0        0.392490   -1.910897   -0.109167
     20          6           0        3.525483   -1.519593    0.099726
     21          8           0        4.124990   -2.711280   -0.428638
     22          1           0        5.021761   -2.841023   -0.005390
     23          6           0        2.309552    2.628950    0.259427
     24          8           0        1.275443    3.219589   -0.541238
     25          1           0        1.463861    4.195921   -0.648830
     26          6           0        2.599442    1.203078   -0.180912
     27          8           0        3.713464    0.869210    0.660145
     28          6           0        4.333469   -0.237014   -0.011749
     29          8           0        5.496862   -0.440466    0.802085
     30          1           0        6.243545   -0.665736    0.242337
     31          1           0        3.201437    3.212689    0.166202
     32          1           0        1.999683    2.623301    1.283560
     33          1           0        2.896398    1.186195   -1.208741
     34          1           0        1.387313    0.032811    1.131851
     35          1           0        2.294395   -0.992878   -1.544674
     36          1           0        3.367091   -1.697018    1.142957
     37          1           0        4.589551   -0.003778   -1.024134
     38          1           0       -5.797851   -0.522243   -0.108327
     39          1           0       -2.273394   -3.169702    0.250032
     40          1           0       -2.995639   -2.599294   -1.212078
     41          1           0       -2.632509   -1.101328    1.332101
     42          1           0       -4.008066   -0.161095   -1.152537
     43          1           0       -3.228904    1.250766    1.357964
     44          1           0       -2.001063    1.447094   -1.336939
     45          1           0       -0.808077    0.343221    1.191809
 ---------------------------------------------------------------------

 SCF Done:  E(RB3LYP) =  -1297.98220837     A.U. after   13 cycles

 The electronic state is 1-A.
 Alpha  occ. eigenvalues --  -19.18479 -19.18416 -19.18315 -19.18075 -19.17242
 Alpha  occ. eigenvalues --  -19.17078 -19.16924 -19.15771 -19.14469 -19.14043
 Alpha  occ. eigenvalues --  -19.13405 -10.30740 -10.30287 -10.26245 -10.25765
 Alpha  occ. eigenvalues --  -10.25417 -10.25117 -10.25072 -10.24561 -10.24372
 Alpha  occ. eigenvalues --  -10.24322 -10.24135 -10.23749  -1.10135  -1.09588
 Alpha  occ. eigenvalues --   -1.05283  -1.04997  -1.04029  -1.03757  -1.02633
 Alpha  occ. eigenvalues --   -1.02011  -1.01382  -1.00733  -0.99722  -0.82249
 Alpha  occ. eigenvalues --   -0.80463  -0.79418  -0.78323  -0.72080  -0.69820
 Alpha  occ. eigenvalues --   -0.67087  -0.65062  -0.63305  -0.62207  -0.61877
 Alpha  occ. eigenvalues --   -0.60650  -0.56606  -0.55629  -0.54982  -0.54508
 Alpha  occ. eigenvalues --   -0.54108  -0.53459  -0.53160  -0.51516  -0.51301
 Alpha  occ. eigenvalues --   -0.50740  -0.49900  -0.48951  -0.48749  -0.46601
 Alpha  occ. eigenvalues --   -0.45749  -0.45075  -0.44096  -0.43695  -0.43116
 Alpha  occ. eigenvalues --   -0.42437  -0.41471  -0.41401  -0.40439  -0.39513
 Alpha  occ. eigenvalues --   -0.38979  -0.38146  -0.37864  -0.36060  -0.35703
 Alpha  occ. eigenvalues --   -0.35364  -0.34567  -0.34540  -0.33616  -0.33506
 Alpha  occ. eigenvalues --   -0.32592  -0.31600  -0.30981  -0.30453  -0.29685
 Alpha  occ. eigenvalues --   -0.29203  -0.28668  -0.28372  -0.27069  -0.26535
 Alpha  occ. eigenvalues --   -0.26266
 Alpha virt. eigenvalues --   -0.02122  -0.01860  -0.01749  -0.00364   0.00064
 Alpha virt. eigenvalues --    0.00899   0.01807   0.02341   0.03190   0.03384
 Alpha virt. eigenvalues --    0.03744   0.04296   0.04524   0.05284   0.05671

 Mulliken atomic charges:
              1
     1  O   -0.541831
     2  C   -0.129721
     3  C    0.303924
     4  O   -0.571391
     5  H    0.347204
     6  C   -0.108487
     7  O   -0.562988
     8  H    0.397551
     9  C   -0.170557
    10  O   -0.552229
    11  H    0.343436
    12  C    0.146821
    13  O   -0.224550
    14  C    0.145769
    15  O   -0.224794
    16  C    0.115885
    17  C    0.355113
    18  O   -0.572827
    19  H    0.357705
    20  C    0.035939
    21  O   -0.555085
    22  H    0.334148
    23  C   -0.248013
    24  O   -0.559600
    25  H    0.356888
    26  C   -0.101004
    27  O   -0.227675
    28  C    0.160276
    29  O   -0.551858
    30  H    0.330185
    31  H    0.147574
    32  H    0.159631
    33  H    0.121977
    34  H    0.123385
    35  H    0.123952
    36  H    0.132343
    37  H    0.132333
    38  H    0.344562
    39  H    0.141873
    40  H    0.142981
    41  H    0.109777
    42  H    0.122366
    43  H    0.117560
    44  H    0.127073
    45  H    0.124377
 Sum of Mulliken atomic charges =   0.00000

 Dipole moment (field-independent basis, Debye):
    X=              2.3566    Y=              0.0607    Z=             -1.7883  Tot=              2.9589
 Quadrupole moment (field-independent basis, Debye-Ang):
   XX=           -114.6752   YY=           -136.9431   ZZ=           -140.7362
   XY=             18.7911   XZ=              0.3004   YZ=             -2.9198

  Exact polarizability: 235.576  -1.581 196.222   0.753   0.111 144.019
 Approx polarizability: 276.111  -1.243 255.497   0.385   0.242 240.563

 ******    6 imaginary frequencies (negative Signs) ******

                     1                      2                      3
                     A                      A                      A
 Frequencies --  -287.0029              -279.5620              -211.0335
 Red. masses --     1.1930                 1.7967                 1.1741
 Frc consts  --     0.0579                 0.0827                 0.0308
 IR Inten    --   121.8730                11.3764               103.2160
 Raman Activ --     1.3662                 0.0721                 0.5832

                     4                      5                      6
                     A                      A                      A
 Frequencies --  -182.9341               -84.2301               -58.8480
 Red. masses --     1.9250                 6.3553                 6.8301
 Frc consts  --     0.0380                 0.0266                 0.0139
 IR Inten    --     3.0591                 0.7483                 0.8078
 Raman Activ --     0.1254                 0.0308                 0.0246

                     7                      8                      9
                     A                      A                      A
 Frequencies --    36.5464                56.0558                78.5921
 Red. masses --     6.4533                 6.5613                 6.5874
 Frc consts  --     0.0051                 0.0121                 0.0240
 IR Inten    --     2.2706                 2.1158                 0.6018
 Raman Activ --     0.0412                 0.2675                 0.0507

                    10                     11                     12
                     A                      A                      A
 Frequencies --    88.3873                94.7790               140.3824
 Red. masses --     7.0218                 6.6634                 5.4499
 Frc consts  --     0.0323                 0.0353                 0.0633
 IR Inten    --     1.8720                 1.0413                 1.3891
 Raman Activ --     0.0215                 0.0223                 0.0343

                    13                     14                     15
                     A                      A                      A
 Frequencies --   152.1689               179.5201               186.6702
 Red. masses --     6.5399                 7.2469                 6.2364
 Frc consts  --     0.0892                 0.1376                 0.1280
 IR Inten    --     2.1841                 0.4931                 0.9126
 Raman Activ --     0.5873                 0.9186                 1.4440

                    16                     17                     18
                     A                      A                      A
 Frequencies --   200.4300               240.4068               282.6730
 Red. masses --     5.5595                 6.5165                 4.4645
 Frc consts  --     0.1316                 0.2219                 0.2102
 IR Inten    --     1.3600                 3.2190                24.5100
 Raman Activ --     0.0429                 1.1344                 0.1968

                    19                     20                     21
                     A                      A                      A
 Frequencies --   285.9850               295.5252               305.4513
 Red. masses --     5.3628                 4.6392                 5.7927
 Frc consts  --     0.2584                 0.2387                 0.3184
 IR Inten    --     3.3077                 1.1503                 0.6919
 Raman Activ --     0.2713                 0.4988                 0.4763

                    22                     23                     24
                     A                      A                      A
 Frequencies --   307.0778               322.2372               325.9588
 Red. masses --     4.9043                 6.7418                 5.5821
 Frc consts  --     0.2725                 0.4125                 0.3494
 IR Inten    --     1.1234                 6.5197                 1.3630
 Raman Activ --     0.7117                 1.4964                 2.4994

                    25                     26                     27
                     A                      A                      A
 Frequencies --   346.8016               352.8441               372.7966
 Red. masses --     6.5704                 5.5506                 5.3976
 Frc consts  --     0.4656                 0.4072                 0.4420
 IR Inten    --     8.6965                 3.0651                 1.8758
 Raman Activ --     2.2459                 2.1423                 2.7210

                    28                     29                     30
                     A                      A                      A
 Frequencies --   408.0429               424.7325               434.9274
 Red. masses --     5.0744                 4.4908                 5.8410
 Frc consts  --     0.4978                 0.4773                 0.6510
 IR Inten    --    11.7320                11.0514                 1.2521
 Raman Activ --     1.7938                 1.2180                 4.7864

                    31                     32                     33
                     A                      A                      A
 Frequencies --   447.4672               481.2464               495.0722
 Red. masses --     4.5064                 4.2610                 6.0801
 Frc consts  --     0.5316                 0.5814                 0.8780
 IR Inten    --     2.2125                 4.2510                12.7525
 Raman Activ --     2.7123                 3.5792                 0.7095

                    34                     35                     36
                     A                      A                      A
 Frequencies --   518.8700               533.1638               567.9893
 Red. masses --     3.0636                 3.2263                 4.2073
 Frc consts  --     0.4860                 0.5404                 0.7997
 IR Inten    --    14.9441                11.6103                15.0127
 Raman Activ --     3.0406                 3.2113                 2.0492

                    37                     38                     39
                     A                      A                      A
 Frequencies --   585.6650               591.5968               613.7874
 Red. masses --     2.9290                 5.4056                 3.6903
 Frc consts  --     0.5919                 1.1147                 0.8191
 IR Inten    --    33.3180                 7.8210                 1.5575
 Raman Activ --     0.3413                 0.7736                 0.4236

                    40                     41                     42
                     A                      A                      A
 Frequencies --   630.5573               664.1434               695.2553
 Red. masses --     6.2620                 1.0526                 4.7308
 Frc consts  --     1.4669                 0.2735                 1.3473
 IR Inten    --    30.5576               110.6479                27.1838
 Raman Activ --     1.5912                 2.1756                 0.8065

                    43                     44                     45
                     A                      A                      A
 Frequencies --   716.5163               717.9642               725.8289
 Red. masses --     1.0644                 1.1096                 1.0463
 Frc consts  --     0.3220                 0.3370                 0.3248
 IR Inten    --    32.8765               137.0548                86.9912
 Raman Activ --     2.2756                 1.2386                 1.7874

                    46                     47                     48
                     A                      A                      A
 Frequencies --   741.5512               791.7689               855.9266
 Red. masses --     1.0721                 1.0652                 1.7643
 Frc consts  --     0.3473                 0.3935                 0.7615
 IR Inten    --    63.3481               125.4783                 0.6666
 Raman Activ --     0.7726                 1.8538                 1.5108

                    49                     50                     51
                     A                      A                      A
 Frequencies --   865.7358               920.6115               965.9719
 Red. masses --     1.6833                 5.8436                 4.0796
 Frc consts  --     0.7433                 2.9180                 2.2428
 IR Inten    --     0.7818               105.2019                93.3340
 Raman Activ --     1.0841                 2.3325                 0.8682

                    52                     53                     54
                     A                      A                      A
 Frequencies --   973.3802               981.9415               990.5536
 Red. masses --     5.0496                 5.6615                 6.9528
 Frc consts  --     2.8189                 3.2162                 4.0195
 IR Inten    --    17.7526               214.8388                86.4794
 Raman Activ --     1.7488                 1.2952                 0.8108

                    55                     56                     57
                     A                      A                      A
 Frequencies --   994.9174              1008.3574              1022.2407
 Red. masses --     5.9690                 6.4672                 5.5866
 Frc consts  --     3.4812                 3.8743                 3.4396
 IR Inten    --   348.5827                94.6472                92.3402
 Raman Activ --     1.6794                 4.2235                 2.3546

                    58                     59                     60
                     A                      A                      A
 Frequencies --  1033.2310              1053.5140              1057.8460
 Red. masses --     5.8464                 4.9989                 8.7711
 Frc consts  --     3.6773                 3.2689                 5.7829
 IR Inten    --   149.5890                 8.7391               181.8525
 Raman Activ --     1.4865                 4.3851                 3.9074

                    61                     62                     63
                     A                      A                      A
 Frequencies --  1062.0197              1072.2933              1075.1364
 Red. masses --     5.1347                 3.3994                 4.3962
 Frc consts  --     3.4122                 2.3029                 2.9940
 IR Inten    --    84.7046                27.2752                89.8158
 Raman Activ --    14.3777                11.7501                15.1960

                    64                     65                     66
                     A                      A                      A
 Frequencies --  1091.7086              1095.8986              1106.5857
 Red. masses --     2.2959                 2.5146                 3.1183
 Frc consts  --     1.6122                 1.7793                 2.2497
 IR Inten    --    63.4813                 5.5150               115.3871
 Raman Activ --     4.1576                 9.9032                 2.6184

                    67                     68                     69
                     A                      A                      A
 Frequencies --  1113.9094              1124.0553              1136.6770
 Red. masses --     2.5334                 2.3535                 2.2240
 Frc consts  --     1.8520                 1.7520                 1.6930
 IR Inten    --    13.1932                12.5589                34.8504
 Raman Activ --     5.3934                 4.0475                 7.0408

                    70                     71                     72
                     A                      A                      A
 Frequencies --  1139.0653              1140.6691              1145.7799
 Red. masses --     2.5994                 1.9460                 2.0720
 Frc consts  --     1.9871                 1.4918                 1.6027
 IR Inten    --    61.1971                 4.4143                 5.2351
 Raman Activ --     2.7280                 3.4091                 1.0545

                    73                     74                     75
                     A                      A                      A
 Frequencies --  1156.5983              1175.3735              1177.0892
 Red. masses --     1.9715                 1.6276                 1.8301
 Frc consts  --     1.5538                 1.3248                 1.4939
 IR Inten    --     7.6176                24.5023                 9.8697
 Raman Activ --     4.9163                 2.2682                 3.9794

                    76                     77                     78
                     A                      A                      A
 Frequencies --  1195.1374              1214.1298              1224.3746
 Red. masses --     1.5158                 1.2232                 1.2726
 Frc consts  --     1.2757                 1.0624                 1.1240
 IR Inten    --    18.6638                17.3316                14.8679
 Raman Activ --     2.5927                 1.4715                 1.5336

                    79                     80                     81
                     A                      A                      A
 Frequencies --  1227.1989              1237.9360              1258.4752
 Red. masses --     1.3070                 1.1883                 1.3247
 Frc consts  --     1.1597                 1.0729                 1.2361
 IR Inten    --     7.7534                13.7563                 7.8595
 Raman Activ --     0.8655                 1.0263                 6.2086

                    82                     83                     84
                     A                      A                      A
 Frequencies --  1266.7403              1271.3765              1281.3442
 Red. masses --     1.2504                 1.2341                 1.3414
 Frc consts  --     1.1822                 1.1753                 1.2976
 IR Inten    --    23.2023                21.6154                13.3752
 Raman Activ --     2.5813                 1.3372                 2.3385

                    85                     86                     87
                     A                      A                      A
 Frequencies --  1290.9321              1293.5614              1297.4497
 Red. masses --     1.3365                 1.2482                 1.2198
 Frc consts  --     1.3123                 1.2305                 1.2098
 IR Inten    --     7.7078                53.2064                 6.6937
 Raman Activ --     2.8001                 1.7482                 3.7633

                    88                     89                     90
                     A                      A                      A
 Frequencies --  1301.7960              1310.3782              1319.7318
 Red. masses --     1.1831                 1.2357                 1.2494
 Frc consts  --     1.1813                 1.2501                 1.2822
 IR Inten    --    21.8635                 5.5846                45.9773
 Raman Activ --     3.8480                12.3951                 7.9040

                    91                     92                     93
                     A                      A                      A
 Frequencies --  1327.1647              1334.2320              1339.3443
 Red. masses --     1.2854                 1.2368                 1.2680
 Frc consts  --     1.3339                 1.2972                 1.3401
 IR Inten    --     9.2779                15.1477                75.6543
 Raman Activ --     1.9462                 3.1636                 3.1867

                    94                     95                     96
                     A                      A                      A
 Frequencies --  1354.9842              1360.4322              1365.1874
 Red. masses --     1.4315                 1.3344                 1.3727
 Frc consts  --     1.5485                 1.4551                 1.5073
 IR Inten    --     8.0779                14.5917                13.7448
 Raman Activ --     9.1266                 3.1548                 4.4421

                    97                     98                     99
                     A                      A                      A
 Frequencies --  1368.3053              1384.3560              1395.9004
 Red. masses --     1.4858                 1.5743                 1.4283
 Frc consts  --     1.6390                 1.7776                 1.6397
 IR Inten    --     4.7233                 7.7927                20.7765
 Raman Activ --     5.1933                 5.7273                 3.7263

                   100                    101                    102
                     A                      A                      A
 Frequencies --  1406.5565              1423.5641              1440.6229
 Red. masses --     1.5606                 1.4215                 1.4175
 Frc consts  --     1.8191                 1.6973                 1.7333
 IR Inten    --    20.6859                19.0423                 8.8884
 Raman Activ --     2.8274                 1.6359                 1.7283

                   103                    104                    105
                     A                      A                      A
 Frequencies --  1451.3369              1468.7070              1474.6983
 Red. masses --     1.4272                 1.0844                 1.0967
 Frc consts  --     1.7712                 1.3782                 1.4052
 IR Inten    --    38.0267                 4.9225                 1.3249
 Raman Activ --     1.3609                 5.2584                 3.6619

                   106                    107                    108
                     A                      A                      A
 Frequencies --  1481.2932              1486.5383              3256.6796
 Red. masses --     1.2836                 1.2715                 1.0572
 Frc consts  --     1.6595                 1.6554                 6.6060
 IR Inten    --    23.3791                60.0211                35.6010
 Raman Activ --     0.9007                 2.0333                81.4807

                   109                    110                    111
                     A                      A                      A
 Frequencies --  3264.1604              3266.7233              3271.5186
 Red. masses --     1.0574                 1.0814                 1.0819
 Frc consts  --     6.6378                 6.7991                 6.8222
 IR Inten    --    58.5779                 8.6792                 7.6928
 Raman Activ --    44.6485                44.0495               138.6653

                   112                    113                    114
                     A                      A                      A
 Frequencies --  3272.3381              3277.3820              3278.9195
 Red. masses --     1.0823                 1.0845                 1.0834
 Frc consts  --     6.8283                 6.8630                 6.8625
 IR Inten    --    11.4537                 1.1464                17.4378
 Raman Activ --    79.6718                 2.5783                60.6175

                   115                    116                    117
                     A                      A                      A
 Frequencies --  3284.3058              3288.7020              3291.7752
 Red. masses --     1.0839                 1.0866                 1.0860
 Frc consts  --     6.8886                 6.9245                 6.9335
 IR Inten    --     4.6795                 0.9010                14.1133
 Raman Activ --   161.7452                27.9252                41.0285

                   118                    119                    120
                     A                      A                      A
 Frequencies --  3298.0969              3301.6383              3303.2941
 Red. masses --     1.0852                 1.0747                 1.0846
 Frc consts  --     6.9551                 6.9023                 6.9728
 IR Inten    --   123.8335               327.1267               207.7289
 Raman Activ --    31.6572               170.7624                31.1355

                   121                    122                    123
                     A                      A                      A
 Frequencies --  3311.2854              3328.3960              3341.0412
 Red. masses --     1.1047                 1.1079                 1.0675
 Frc consts  --     7.1362                 7.2313                 7.0206
 IR Inten    --    64.0032                53.5023               269.6529
 Raman Activ --    31.2143                30.8749               162.1887

                   124                    125                    126
                     A                      A                      A
 Frequencies --  3365.0674              3366.6804              3369.4917
 Red. masses --     1.0677                 1.0657                 1.0660
 Frc consts  --     7.1237                 7.1169                 7.1307
 IR Inten    --    47.5823                51.9524                44.8870
 Raman Activ --   173.3920               127.7394               135.9096

                   127                    128                    129
                     A                      A                      A
 Frequencies --  3370.5614              3890.4492              3890.5518
 Red. masses --     1.0688                 1.0675                 1.0673
 Frc consts  --     7.1537                 9.5194                 9.5179
 IR Inten    --    38.4148               121.2064                17.3807
 Raman Activ --   161.1610                31.7636               168.5370

 - Thermochemistry -
 -------------------
 Temperature   298.150 Kelvin.  Pressure   1.00000 Atm.
 Atom     1 has atomic number  8 and mass  15.99491

 Molecular mass:   342.11621 amu.
 Principal axes and moments of inertia in atomic units:
                           1         2         3
     Eigenvalues --  4324.40847********************
           X            0.99997   0.00775  -0.00025
           Y           -0.00775   0.99997  -0.00022
           Z            0.00025   0.00022   1.00000
 This molecule is an asymmetric top.
 Rotational symmetry number  1.
 Warning -- assumption of classical behavior for rotation
           may cause significant error
 Rotational temperatures (Kelvin)      0.02003     0.00672     0.00517
 Rotational constants (GHZ):           0.41734     0.13999     0.10778
    6 imaginary frequencies ignored.
 Zero-point vibrational energy     973266.0 (Joules/Mol)
                                  232.61615 (Kcal/Mol)
 Warning -- explicit consideration of  33 degrees of freedom as
           vibrations may cause significant error
 Vibrational temperatures:     52.58    80.65   113.08   127.17   136.37
          (Kelvin)            201.98   218.94   258.29   268.58   288.37
                              345.89   406.70   411.47   425.19   439.48
                              441.82   463.63   468.98   498.97   507.66
                              536.37   587.08   611.09   625.76   643.80
                              692.41   712.30   746.54   767.10   817.21
                              842.64   851.17   883.10   907.23   955.55
                             1000.32  1030.91  1032.99  1044.30  1066.93
                             1139.18  1231.49  1245.60  1324.55  1389.82
                             1400.48  1412.79  1425.18  1431.46  1450.80
                             1470.77  1486.59  1515.77  1522.00  1528.01
                             1542.79  1546.88  1570.72  1576.75  1592.13
                             1602.67  1617.26  1635.42  1638.86  1641.17
                             1648.52  1664.08  1691.10  1693.57  1719.53
                             1746.86  1761.60  1765.66  1781.11  1810.66
                             1822.55  1829.22  1843.57  1857.36  1861.14
                             1866.74  1872.99  1885.34  1898.80  1909.49
                             1919.66  1927.02  1949.52  1957.36  1964.20
                             1968.68  1991.78  2008.39  2023.72  2048.19
                             2072.73  2088.15  2113.14  2121.76  2131.25
                             2138.79  4685.63  4696.39  4700.08  4706.98
                             4708.16  4715.42  4717.63  4725.38  4731.70
                             4736.12  4745.22  4750.32  4752.70  4764.20
                             4788.81  4807.01  4841.58  4843.90  4847.94
                             4849.48  5597.48  5597.63

 Zero-point correction=                           0.370697 (Hartree/Particle)
 Thermal correction to Energy=                    0.389756
 Thermal correction to Enthalpy=                  0.390700
 Thermal correction to Gibbs Free Energy=         0.324058
 Sum of electronic and zero-point Energies=          -1297.611511
 Sum of electronic and thermal Energies=             -1297.592452
 Sum of electronic and thermal Enthalpies=           -1297.591508
 Sum of electronic and thermal Free Energies=        -1297.658150

                     E (Thermal)             CV                S
                      KCal/Mol        Cal/Mol-Kelvin    Cal/Mol-Kelvin
 Total                  244.576             78.114            140.260
 Electronic               0.000              0.000              0.000
 Translational            0.889              2.981             43.384
 Rotational               0.889              2.981             35.189
 Vibrational            242.798             72.152             61.686
 Vibration     1          0.594              1.982              5.438
 Vibration     2          0.596              1.975              4.591
 Vibration     3          0.600              1.964              3.926
 Vibration     4          0.601              1.957              3.695
 Vibration     5          0.603              1.953              3.559
 Vibration     6          0.615              1.913              2.799
 Vibration     7          0.619              1.900              2.645
 Vibration     8          0.629              1.867              2.333
 Vibration     9          0.632              1.858              2.261
 Vibration    10          0.638              1.839              2.129
 Vibration    11          0.657              1.779              1.800
 Vibration    12          0.682              1.706              1.517
 Vibration    13          0.684              1.700              1.498
 Vibration    14          0.690              1.682              1.442
 Vibration    15          0.696              1.663              1.387
 Vibration    16          0.697              1.660              1.378
 Vibration    17          0.707              1.631              1.299
 Vibration    18          0.710              1.624              1.280
 Vibration    19          0.725              1.582              1.181
 Vibration    20          0.729              1.569              1.153
 Vibration    21          0.744              1.528              1.068
 Vibration    22          0.773              1.453              0.934
 Vibration    23          0.787              1.416              0.876
 Vibration    24          0.796              1.394              0.843
 Vibration    25          0.807              1.366              0.803
 Vibration    26          0.838              1.292              0.707
 Vibration    27          0.851              1.261              0.671
 Vibration    28          0.874              1.208              0.613
 Vibration    29          0.888              1.177              0.580
 Vibration    30          0.924              1.100              0.508
 Vibration    31          0.943              1.062              0.475
 Vibration    32          0.949              1.050              0.464
 Vibration    33          0.973              1.003              0.427

 Normal termination of Gaussian 09 at Thu Mar 24 14:49:41 2016.
