 Gaussian 09, Revision B.01,
 Gaussian 09:  EM64L-G09RevB.01 12-Aug-2010

 -------------------------------------------------
 # freq=raman b3lyp/6-31+g(2d,p) geom=connectivity
 -------------------------------------------------

 -----------------
 350 8082/8082.com
 -----------------
 Symbolic Z-matrix:
 Charge =  0 Multiplicity = 1

                         Standard orientation:
 ---------------------------------------------------------------------
 Center     Atomic      Atomic             Coordinates (Angstroms)
 Number     Number       Type             X           Y           Z
 ---------------------------------------------------------------------
      1          8           0       -5.030923   -0.435677    0.378551
      2          6           0       -3.733110   -0.086580   -0.125447
      3          6           0       -3.276603    1.311402    0.259263
      4          8           0       -4.254570    2.310344   -0.062984
      5          1           0       -5.144528    1.859855    0.015808
      6          6           0       -1.816144    1.601412   -0.043966
      7          8           0       -1.300807    2.756858    0.635182
      8          1           0       -0.488325    2.937247    0.081780
      9          6           0       -3.029159   -2.588871   -0.138023
     10          8           0       -4.328011   -3.154786    0.092900
     11          1           0       -4.250751   -4.111870   -0.187065
     12          6           0       -2.733507   -1.158106    0.279319
     13          8           0       -1.410770   -0.859917   -0.192132
     14          6           0       -0.923215    0.409748    0.263427
     15          8           0        0.261009    0.526451   -0.538093
     16          6           0        1.490120    0.089376    0.060171
     17          6           0        2.041581   -1.249988   -0.398359
     18          8           0        1.011165   -2.248592   -0.437618
     19          1           0        0.214684   -1.784816   -0.825341
     20          6           0        3.366860   -1.561609    0.279101
     21          8           0        4.028905   -2.693004   -0.303841
     22          1           0        4.942458   -2.927615    0.030305
     23          6           0        2.285886    2.617500   -0.215825
     24          8           0        1.252455    3.527350   -0.619708
     25          1           0        1.606331    4.429083   -0.367503
     26          6           0        2.527278    1.122285   -0.348597
     27          8           0        3.816386    0.856406    0.224339
     28          6           0        4.390882   -0.452722    0.102715
     29          8           0        5.503692   -0.498599    1.007536
     30          1           0        6.319302   -0.580139    0.507804
     31          1           0       -5.609232   -0.659477   -0.354301
     32          1           0       -2.319059   -3.215674    0.359748
     33          1           0       -2.837820   -2.656844   -1.188579
     34          1           0       -2.692953   -1.150564    1.348524
     35          1           0       -3.797989   -0.107955   -1.193264
     36          1           0       -3.297626    1.290967    1.328861
     37          1           0       -1.743015    1.791575   -1.094390
     38          1           0       -0.675283    0.373267    1.303667
     39          1           0        2.346610    2.777275    0.840435
     40          1           0        3.164279    3.042091   -0.655197
     41          1           0        2.652854    0.965184   -1.399525
     42          1           0        1.388164    0.087882    1.125301
     43          1           0        2.300831   -1.099700   -1.425541
     44          1           0        3.204758   -1.738294    1.321889
     45          1           0        4.782838   -0.539221   -0.889146
 ---------------------------------------------------------------------

 SCF Done:  E(RB3LYP) =  -1297.94787517     A.U. after   13 cycles

 The electronic state is 1-A.
 Alpha  occ. eigenvalues --  -19.18634 -19.18590 -19.18371 -19.18268 -19.17289
 Alpha  occ. eigenvalues --  -19.16987 -19.16416 -19.16290 -19.15360 -19.14973
 Alpha  occ. eigenvalues --  -19.14633 -10.31054 -10.30784 -10.26305 -10.26075
 Alpha  occ. eigenvalues --  -10.25845 -10.25496 -10.25312 -10.25042 -10.24982
 Alpha  occ. eigenvalues --  -10.24872 -10.24388 -10.24155  -1.10343  -1.08875
 Alpha  occ. eigenvalues --   -1.05397  -1.04959  -1.04059  -1.03474  -1.03111
 Alpha  occ. eigenvalues --   -1.02774  -1.02491  -1.01331  -1.01078  -0.82591
 Alpha  occ. eigenvalues --   -0.80405  -0.79845  -0.78416  -0.72126  -0.70357
 Alpha  occ. eigenvalues --   -0.67795  -0.65068  -0.62898  -0.62712  -0.61573
 Alpha  occ. eigenvalues --   -0.59888  -0.56666  -0.55754  -0.55123  -0.54735
 Alpha  occ. eigenvalues --   -0.54191  -0.53317  -0.52695  -0.51774  -0.51328
 Alpha  occ. eigenvalues --   -0.50902  -0.50365  -0.49743  -0.49077  -0.47059
 Alpha  occ. eigenvalues --   -0.46679  -0.45210  -0.44815  -0.44016  -0.43598
 Alpha  occ. eigenvalues --   -0.42965  -0.42529  -0.41429  -0.40452  -0.39159
 Alpha  occ. eigenvalues --   -0.38347  -0.37825  -0.36979  -0.36617  -0.35835
 Alpha  occ. eigenvalues --   -0.35391  -0.34565  -0.34492  -0.34253  -0.33907
 Alpha  occ. eigenvalues --   -0.33481  -0.31705  -0.30814  -0.29966  -0.29618
 Alpha  occ. eigenvalues --   -0.29224  -0.28559  -0.28248  -0.27946  -0.26947
 Alpha  occ. eigenvalues --   -0.26721
 Alpha virt. eigenvalues --   -0.02323  -0.02242  -0.01899  -0.00168   0.00337
 Alpha virt. eigenvalues --    0.00800   0.01681   0.02311   0.03070   0.03258
 Alpha virt. eigenvalues --    0.03836   0.04166   0.04624   0.05253   0.05723

 Mulliken atomic charges:
              1
     1  O   -0.526233
     2  C   -0.005000
     3  C    0.167727
     4  O   -0.559817
     5  H    0.344985
     6  C   -0.037935
     7  O   -0.526290
     8  H    0.394367
     9  C   -0.223044
    10  O   -0.530107
    11  H    0.337117
    12  C    0.044310
    13  O   -0.207287
    14  C    0.221407
    15  O   -0.251463
    16  C    0.327408
    17  C    0.078818
    18  O   -0.540069
    19  H    0.363260
    20  C    0.145213
    21  O   -0.543041
    22  H    0.340190
    23  C   -0.405548
    24  O   -0.554142
    25  H    0.352243
    26  C    0.047282
    27  O   -0.273368
    28  C    0.066149
    29  O   -0.513381
    30  H    0.335882
    31  H    0.346660
    32  H    0.156630
    33  H    0.140052
    34  H    0.108374
    35  H    0.114966
    36  H    0.116493
    37  H    0.137441
    38  H    0.130124
    39  H    0.151508
    40  H    0.146788
    41  H    0.112467
    42  H    0.108027
    43  H    0.106610
    44  H    0.129615
    45  H    0.124611
 Sum of Mulliken atomic charges =   0.00000

 Dipole moment (field-independent basis, Debye):
    X=              3.0691    Y=             -1.0206    Z=             -1.9907  Tot=              3.7979
 Quadrupole moment (field-independent basis, Debye-Ang):
   XX=           -115.5919   YY=           -138.4318   ZZ=           -141.0467
   XY=             14.9811   XZ=              4.5338   YZ=             -1.1794

  Exact polarizability: 234.732  -1.981 199.086   2.186   0.998 144.469
 Approx polarizability: 276.358  -1.618 258.751   1.673   1.848 239.946

 ******    6 imaginary frequencies (negative Signs) ******

                     1                      2                      3
                     A                      A                      A
 Frequencies --  -407.2301              -294.3303              -213.6577
 Red. masses --     1.6048                 1.7490                 1.2013
 Frc consts  --     0.1568                 0.0893                 0.0323
 IR Inten    --     2.5693                 9.3490                99.4166
 Raman Activ --     0.0128                 0.0794                 0.6956

                     4                      5                      6
                     A                      A                      A
 Frequencies --  -168.8342              -101.9421               -62.4856
 Red. masses --     1.2818                 7.2261                 6.4122
 Frc consts  --     0.0215                 0.0442                 0.0148
 IR Inten    --   100.7784                 0.6960                 1.0347
 Raman Activ --     0.8033                 0.0543                 0.1008

                     7                      8                      9
                     A                      A                      A
 Frequencies --     5.5246                39.9525                49.1742
 Red. masses --     6.4742                 6.3457                 6.4774
 Frc consts  --     0.0001                 0.0060                 0.0092
 IR Inten    --     1.7030                 2.0680                 1.1135
 Raman Activ --     0.0410                 0.0211                 0.1493

                    10                     11                     12
                     A                      A                      A
 Frequencies --    67.3634                80.8015                99.6609
 Red. masses --     6.3729                 5.8805                 6.2673
 Frc consts  --     0.0170                 0.0226                 0.0367
 IR Inten    --     3.4613                 1.9352                 0.7740
 Raman Activ --     0.2091                 0.1525                 0.2074

                    13                     14                     15
                     A                      A                      A
 Frequencies --   128.7237               146.9703               181.6661
 Red. masses --     6.3654                 6.1998                 5.9101
 Frc consts  --     0.0621                 0.0789                 0.1149
 IR Inten    --     3.1337                 0.7051                 0.8237
 Raman Activ --     0.3011                 0.2308                 0.2838

                    16                     17                     18
                     A                      A                      A
 Frequencies --   189.7902               226.5083               240.8829
 Red. masses --     7.1626                 6.0927                 4.5465
 Frc consts  --     0.1520                 0.1842                 0.1554
 IR Inten    --     0.0834                 1.8082                10.9748
 Raman Activ --     1.8353                 1.2719                 0.3562

                    19                     20                     21
                     A                      A                      A
 Frequencies --   264.8715               287.6622               294.2147
 Red. masses --     4.8114                 4.7388                 4.9412
 Frc consts  --     0.1989                 0.2310                 0.2520
 IR Inten    --     0.5177                 2.4844                 1.0607
 Raman Activ --     0.1350                 0.2346                 2.0790

                    22                     23                     24
                     A                      A                      A
 Frequencies --   295.1638               305.0597               320.1970
 Red. masses --     5.4576                 5.7670                 5.2982
 Frc consts  --     0.2801                 0.3162                 0.3200
 IR Inten    --     3.8448                 4.5217                 4.7863
 Raman Activ --     0.7205                 1.6091                 1.4252

                    25                     26                     27
                     A                      A                      A
 Frequencies --   322.1399               348.7533               376.9960
 Red. masses --     6.3163                 5.4094                 5.4347
 Frc consts  --     0.3862                 0.3876                 0.4551
 IR Inten    --     4.4154                15.6435                 2.8407
 Raman Activ --     6.6860                 0.7140                 1.4980

                    28                     29                     30
                     A                      A                      A
 Frequencies --   386.9915               399.7048               409.0332
 Red. masses --     5.0277                 5.6633                 6.5386
 Frc consts  --     0.4436                 0.5331                 0.6445
 IR Inten    --    16.8402                 9.9468                 2.4789
 Raman Activ --     1.9871                 8.1056                 1.3479

                    31                     32                     33
                     A                      A                      A
 Frequencies --   431.8225               460.7654               467.0319
 Red. masses --     4.1216                 4.9033                 4.1910
 Frc consts  --     0.4528                 0.6133                 0.5386
 IR Inten    --     1.1156                 6.3081                14.1279
 Raman Activ --     1.4472                 2.6956                 2.8439

                    34                     35                     36
                     A                      A                      A
 Frequencies --   500.3160               513.7896               557.3410
 Red. masses --     4.2859                 3.2038                 3.9811
 Frc consts  --     0.6321                 0.4983                 0.7286
 IR Inten    --     7.2282                 9.1584                25.7127
 Raman Activ --     3.5373                 2.6929                 2.5368

                    37                     38                     39
                     A                      A                      A
 Frequencies --   574.1475               599.7651               606.8257
 Red. masses --     3.0391                 6.3955                 5.8741
 Frc consts  --     0.5902                 1.3555                 1.2744
 IR Inten    --    32.7818                 8.3906                26.8191
 Raman Activ --     0.3869                 0.6072                 0.8411

                    40                     41                     42
                     A                      A                      A
 Frequencies --   623.0385               655.2594               689.6778
 Red. masses --     4.1903                 1.0534                 5.8441
 Frc consts  --     0.9583                 0.2665                 1.6378
 IR Inten    --    28.5550                89.1547                10.7303
 Raman Activ --     0.6619                 2.1961                 1.4142

                    43                     44                     45
                     A                      A                      A
 Frequencies --   724.6984               727.7407               729.3360
 Red. masses --     1.0789                 1.0956                 1.0716
 Frc consts  --     0.3338                 0.3419                 0.3358
 IR Inten    --    77.7583                15.0825                25.7087
 Raman Activ --     1.5140                 3.0707                 1.6762

                    46                     47                     48
                     A                      A                      A
 Frequencies --   730.6322               845.9941               854.7734
 Red. masses --     1.0750                 1.7064                 1.7270
 Frc consts  --     0.3381                 0.7195                 0.7434
 IR Inten    --   334.1904                16.6575                17.5813
 Raman Activ --     3.3523                 0.8015                 1.1059

                    49                     50                     51
                     A                      A                      A
 Frequencies --   861.3991               909.9448               936.6912
 Red. masses --     1.2548                 5.2914                 6.0303
 Frc consts  --     0.5486                 2.5814                 3.1173
 IR Inten    --    48.1532               171.3845                40.4601
 Raman Activ --     0.6180                 2.5326                 0.4889

                    52                     53                     54
                     A                      A                      A
 Frequencies --   955.1830               976.8147               981.6892
 Red. masses --     5.2266                 6.9599                 4.9080
 Frc consts  --     2.8096                 3.9127                 2.7868
 IR Inten    --    40.5725               174.2877                78.3511
 Raman Activ --     3.7853                 0.6571                 0.8788

                    55                     56                     57
                     A                      A                      A
 Frequencies --   990.2299               995.2661              1009.1560
 Red. masses --     5.3853                 5.4711                 6.1788
 Frc consts  --     3.1112                 3.1931                 3.7074
 IR Inten    --   304.5604                72.5884                62.8469
 Raman Activ --     1.9206                 1.9175                 3.4805

                    58                     59                     60
                     A                      A                      A
 Frequencies --  1028.5338              1046.0847              1062.5143
 Red. masses --     6.6340                 3.8352                 4.7032
 Frc consts  --     4.1349                 2.4727                 3.1284
 IR Inten    --   469.5157                52.3010               112.2578
 Raman Activ --     2.6860                 3.7207                 3.9571

                    61                     62                     63
                     A                      A                      A
 Frequencies --  1068.8387              1074.1622              1087.1593
 Red. masses --     3.6536                 7.2879                 4.7863
 Frc consts  --     2.4592                 4.9544                 3.3330
 IR Inten    --     8.0006                34.4045                25.7702
 Raman Activ --    17.9526                 3.0716                 2.0729

                    64                     65                     66
                     A                      A                      A
 Frequencies --  1106.8631              1109.7497              1119.4767
 Red. masses --     3.5375                 3.0471                 2.8398
 Frc consts  --     2.5535                 2.2110                 2.0969
 IR Inten    --    37.2321                18.3409                64.2119
 Raman Activ --    17.6895                 6.1402                 7.9146

                    67                     68                     69
                     A                      A                      A
 Frequencies --  1124.8525              1128.4785              1139.7335
 Red. masses --     2.8237                 3.1735                 3.2102
 Frc consts  --     2.1051                 2.3811                 2.4569
 IR Inten    --    89.1064                25.5196                10.0578
 Raman Activ --     0.7062                 3.4546                 3.5851

                    70                     71                     72
                     A                      A                      A
 Frequencies --  1158.2849              1163.9880              1176.0504
 Red. masses --     2.8111                 2.0133                 1.7701
 Frc consts  --     2.2221                 1.6072                 1.4424
 IR Inten    --    62.7238                13.7139                 2.2379
 Raman Activ --     6.5095                 2.9503                 2.7428

                    73                     74                     75
                     A                      A                      A
 Frequencies --  1179.6579              1197.5396              1210.4776
 Red. masses --     2.0448                 1.5744                 1.7861
 Frc consts  --     1.6765                 1.3303                 1.5420
 IR Inten    --    25.2369                11.7255                30.7264
 Raman Activ --     1.6382                 1.3108                 2.9744

                    76                     77                     78
                     A                      A                      A
 Frequencies --  1221.3460              1235.8549              1237.9371
 Red. masses --     1.2893                 1.1927                 1.4752
 Frc consts  --     1.1332                 1.0733                 1.3320
 IR Inten    --    10.5932                 7.7734                 4.0397
 Raman Activ --     2.9138                 2.5621                 1.6944

                    79                     80                     81
                     A                      A                      A
 Frequencies --  1249.3982              1260.2349              1279.4147
 Red. masses --     1.4365                 1.4007                 1.2301
 Frc consts  --     1.3212                 1.3107                 1.1864
 IR Inten    --     6.2597                22.7019                41.3374
 Raman Activ --     0.8480                 2.0323                 4.2667

                    82                     83                     84
                     A                      A                      A
 Frequencies --  1286.2080              1292.0940              1302.6181
 Red. masses --     1.2453                 1.2700                 1.2040
 Frc consts  --     1.2138                 1.2492                 1.2037
 IR Inten    --    20.3809                 1.3786                 9.5385
 Raman Activ --     1.1184                 1.6583                 2.5612

                    85                     86                     87
                     A                      A                      A
 Frequencies --  1306.6807              1320.0783              1325.2735
 Red. masses --     1.2978                 1.2590                 1.2820
 Frc consts  --     1.3055                 1.2926                 1.3267
 IR Inten    --    10.4289                15.0565                21.0541
 Raman Activ --     2.1888                 3.3936                 2.6088

                    88                     89                     90
                     A                      A                      A
 Frequencies --  1327.6536              1341.0001              1348.7211
 Red. masses --     1.3283                 1.2335                 1.1569
 Frc consts  --     1.3794                 1.3069                 1.2400
 IR Inten    --    19.8131                32.5388                14.4053
 Raman Activ --     4.2372                11.7368                 1.9776

                    91                     92                     93
                     A                      A                      A
 Frequencies --  1354.1821              1372.4904              1374.3647
 Red. masses --     1.3743                 1.2244                 1.1835
 Frc consts  --     1.4849                 1.3589                 1.3171
 IR Inten    --     5.6264                 0.2604                23.8385
 Raman Activ --     5.5356                 3.9073                 5.4203

                    94                     95                     96
                     A                      A                      A
 Frequencies --  1379.5216              1387.0202              1390.5335
 Red. masses --     1.2895                 1.5017                 1.1841
 Frc consts  --     1.4459                 1.7021                 1.3489
 IR Inten    --     8.4167                25.6614                11.3241
 Raman Activ --     8.3576                 4.1560                 0.7965

                    97                     98                     99
                     A                      A                      A
 Frequencies --  1394.9710              1408.1751              1412.2202
 Red. masses --     1.3949                 1.4043                 1.1871
 Frc consts  --     1.5993                 1.6407                 1.3949
 IR Inten    --     4.3803                17.5223                21.9987
 Raman Activ --     6.1631                 2.4937                 2.2308

                   100                    101                    102
                     A                      A                      A
 Frequencies --  1432.7552              1456.2097              1462.1848
 Red. masses --     1.1837                 1.3888                 1.1351
 Frc consts  --     1.4316                 1.7352                 1.4298
 IR Inten    --     6.9708                58.2556                 2.0024
 Raman Activ --     4.4308                 1.7314                 2.9576

                   103                    104                    105
                     A                      A                      A
 Frequencies --  1476.2780              1488.6757              1503.5354
 Red. masses --     1.0839                 1.3757                 1.2815
 Frc consts  --     1.3918                 1.7963                 1.7069
 IR Inten    --     6.6408                18.9577                39.7923
 Raman Activ --     5.4781                 0.7297                 2.1139

                   106                    107                    108
                     A                      A                      A
 Frequencies --  1509.1414              1527.5409              3239.7749
 Red. masses --     1.2904                 1.2315                 1.0749
 Frc consts  --     1.7315                 1.6931                 6.6471
 IR Inten    --    11.9329                52.8094                 0.9397
 Raman Activ --     0.7311                 1.3556                37.2636

                   109                    110                    111
                     A                      A                      A
 Frequencies --  3245.4963              3247.1853              3256.0247
 Red. masses --     1.0651                 1.0784                 1.0585
 Frc consts  --     6.6099                 6.6998                 6.6115
 IR Inten    --    60.4734                 9.6827                31.4454
 Raman Activ --    60.0582               110.7106               133.3427

                   112                    113                    114
                     A                      A                      A
 Frequencies --  3257.2286              3261.3089              3273.2297
 Red. masses --     1.0790                 1.0808                 1.0844
 Frc consts  --     6.7448                 6.7733                 6.8451
 IR Inten    --    13.2515                 6.7225                21.3460
 Raman Activ --    80.5911                59.0900               122.2853

                   115                    116                    117
                     A                      A                      A
 Frequencies --  3276.9098              3281.8364              3285.5236
 Red. masses --     1.0849                 1.0859                 1.0852
 Frc consts  --     6.8636                 6.8910                 6.9016
 IR Inten    --    13.9510                13.9459                24.8219
 Raman Activ --    27.7161                14.7739                40.1659

                   118                    119                    120
                     A                      A                      A
 Frequencies --  3294.7659              3298.5446              3302.4543
 Red. masses --     1.0873                 1.0887                 1.1001
 Frc consts  --     6.9542                 6.9790                 7.0693
 IR Inten    --    16.1378                38.6801                84.4400
 Raman Activ --    17.2748                26.2473                50.2232

                   121                    122                    123
                     A                      A                      A
 Frequencies --  3309.0863              3315.0880              3342.5504
 Red. masses --     1.1052                 1.0675                 1.0663
 Frc consts  --     7.1305                 6.9118                 7.0192
 IR Inten    --    50.1598               427.0833               350.7185
 Raman Activ --    31.5615               191.0317               103.0505

                   124                    125                    126
                     A                      A                      A
 Frequencies --  3356.0491              3358.6865              3361.0872
 Red. masses --     1.0654                 1.0667                 1.0674
 Frc consts  --     7.0700                 7.0899                 7.1047
 IR Inten    --    42.8992                83.5175                42.8280
 Raman Activ --    87.7226               113.2254               185.2654

                   127                    128                    129
                     A                      A                      A
 Frequencies --  3364.9277              3889.9690              3890.8276
 Red. masses --     1.0665                 1.0676                 1.0677
 Frc consts  --     7.1147                 9.5185                 9.5228
 IR Inten    --    42.1726                91.1408                79.0468
 Raman Activ --   162.9129                70.0503               121.2203

 - Thermochemistry -
 -------------------
 Temperature   298.150 Kelvin.  Pressure   1.00000 Atm.
 Atom     1 has atomic number  8 and mass  15.99491

 Molecular mass:   342.11621 amu.
 Principal axes and moments of inertia in atomic units:
                           1         2         3
     Eigenvalues --  4544.82260********************
           X            0.99997   0.00781  -0.00006
           Y           -0.00781   0.99997   0.00035
           Z            0.00006  -0.00035   1.00000
 This molecule is an asymmetric top.
 Rotational symmetry number  1.
 Warning -- assumption of classical behavior for rotation
           may cause significant error
 Rotational temperatures (Kelvin)      0.01906     0.00687     0.00520
 Rotational constants (GHZ):           0.39710     0.14321     0.10840
    6 imaginary frequencies ignored.
 Zero-point vibrational energy     974552.5 (Joules/Mol)
                                  232.92363 (Kcal/Mol)
 Warning -- explicit consideration of  33 degrees of freedom as
           vibrations may cause significant error
 Vibrational temperatures:      7.95    57.48    70.75    96.92   116.26
          (Kelvin)            143.39   185.20   211.46   261.38   273.07
                              325.89   346.58   381.09   413.88   423.31
                              424.67   438.91   460.69   463.49   501.78
                              542.41   556.79   575.09   588.51   621.30
                              662.94   671.95   719.84   739.23   801.89
                              826.07   862.93   873.09   896.41   942.77
                              992.29  1042.68  1047.06  1049.35  1051.22
                             1217.20  1229.83  1239.36  1309.21  1347.69
                             1374.29  1405.42  1412.43  1424.72  1431.96
                             1451.95  1479.83  1505.08  1528.72  1537.82
                             1545.48  1564.18  1592.53  1596.68  1610.68
                             1618.41  1623.63  1639.82  1666.51  1674.72
                             1692.07  1697.26  1722.99  1741.61  1757.24
                             1778.12  1781.11  1797.60  1813.19  1840.79
                             1850.56  1859.03  1874.17  1880.02  1899.30
                             1906.77  1910.19  1929.40  1940.51  1948.36
                             1974.71  1977.40  1984.82  1995.61  2000.67
                             2007.05  2026.05  2031.87  2061.41  2095.16
                             2103.76  2124.03  2141.87  2163.25  2171.32
                             2197.79  4661.31  4669.54  4671.97  4684.69
                             4686.42  4692.29  4709.44  4714.74  4721.82
                             4727.13  4740.43  4745.86  4751.49  4761.03
                             4769.67  4809.18  4828.60  4832.39  4835.85
                             4841.37  5596.79  5598.03

 Zero-point correction=                           0.371187 (Hartree/Particle)
 Thermal correction to Energy=                    0.390994
 Thermal correction to Enthalpy=                  0.391938
 Thermal correction to Gibbs Free Energy=         0.320963
 Sum of electronic and zero-point Energies=          -1297.576688
 Sum of electronic and thermal Energies=             -1297.556881
 Sum of electronic and thermal Enthalpies=           -1297.555937
 Sum of electronic and thermal Free Energies=        -1297.626912

                     E (Thermal)             CV                S
                      KCal/Mol        Cal/Mol-Kelvin    Cal/Mol-Kelvin
 Total                  245.352             78.549            149.380
 Electronic               0.000              0.000              0.000
 Translational            0.889              2.981             43.384
 Rotational               0.889              2.981             35.210
 Vibrational            243.575             72.588             70.786
 Vibration     1          0.593              1.987              9.190
 Vibration     2          0.594              1.981              5.261
 Vibration     3          0.595              1.978              4.850
 Vibration     4          0.598              1.970              4.229
 Vibration     5          0.600              1.962              3.871
 Vibration     6          0.604              1.949              3.461
 Vibration     7          0.611              1.925              2.965
 Vibration     8          0.617              1.906              2.711
 Vibration     9          0.630              1.865              2.311
 Vibration    10          0.633              1.854              2.230
 Vibration    11          0.650              1.801              1.906
 Vibration    12          0.658              1.778              1.796
 Vibration    13          0.671              1.737              1.629
 Vibration    14          0.685              1.697              1.488
 Vibration    15          0.689              1.685              1.450
 Vibration    16          0.689              1.683              1.444
 Vibration    17          0.696              1.664              1.389
 Vibration    18          0.706              1.635              1.309
 Vibration    19          0.707              1.631              1.299
 Vibration    20          0.726              1.578              1.172
 Vibration    21          0.748              1.519              1.051
 Vibration    22          0.755              1.498              1.012
 Vibration    23          0.766              1.471              0.964
 Vibration    24          0.773              1.451              0.930
 Vibration    25          0.793              1.401              0.853
 Vibration    26          0.819              1.337              0.764
 Vibration    27          0.824              1.323              0.746
 Vibration    28          0.856              1.249              0.657
 Vibration    29          0.869              1.219              0.625
 Vibration    30          0.913              1.124              0.529
 Vibration    31          0.930              1.087              0.496
 Vibration    32          0.958              1.032              0.450
 Vibration    33          0.966              1.017              0.438

 Normal termination of Gaussian 09 at Fri Mar 25 20:20:20 2016.
