 Gaussian 09, Revision B.01,
 Gaussian 09:  EM64L-G09RevB.01 12-Aug-2010

 -------------------------------------------------
 # freq=raman b3lyp/6-31+g(2d,p) geom=connectivity
 -------------------------------------------------

 -----------------
 280 9887/9887.com
 -----------------
 Symbolic Z-matrix:
 Charge =  0 Multiplicity = 1

                         Standard orientation:
 ---------------------------------------------------------------------
 Center     Atomic      Atomic             Coordinates (Angstroms)
 Number     Number       Type             X           Y           Z
 ---------------------------------------------------------------------
      1          8           0       -5.101640   -0.226817    0.174559
      2          6           0       -3.750450   -0.088081   -0.289973
      3          6           0       -3.247078    1.296870    0.080304
      4          8           0       -4.031610    2.384002   -0.432081
      5          1           0       -4.956908    2.005613   -0.393958
      6          6           0       -1.769121    1.586423   -0.123654
      7          8           0       -1.230038    2.754036    0.512764
      8          1           0       -0.307701    2.952780    0.182910
      9          6           0       -3.136507   -2.540486   -0.093252
     10          8           0       -4.192225   -3.158272    0.656415
     11          1           0       -3.938757   -4.125751    0.691915
     12          6           0       -2.772839   -1.110083    0.268625
     13          8           0       -1.479520   -0.838131   -0.289751
     14          6           0       -0.914009    0.377701    0.220183
     15          8           0        0.252895    0.318345   -0.611614
     16          6           0        1.515270    0.164680    0.053044
     17          6           0        1.986251   -1.230247   -0.325181
     18          8           0        0.959234   -2.197001   -0.058945
     19          1           0        0.058866   -1.773719   -0.159399
     20          6           0        3.361072   -1.540528    0.243305
     21          8           0        3.704233   -2.713358   -0.509065
     22          1           0        4.694401   -2.817920   -0.418598
     23          6           0        2.392885    2.495879    0.270287
     24          8           0        1.282446    3.353975   -0.028572
     25          1           0        1.591532    4.294621    0.115670
     26          6           0        2.579011    1.148351   -0.407427
     27          8           0        3.865038    0.840806    0.150523
     28          6           0        4.372720   -0.470023   -0.133041
     29          8           0        5.553505   -0.513086    0.682757
     30          1           0        6.325756   -0.619971    0.122574
     31          1           0       -5.686030   -0.358293   -0.575642
     32          1           0        3.279654    3.062331    0.076192
     33          1           0        2.361354    2.308309    1.323247
     34          1           0        2.616254    1.238863   -1.472941
     35          1           0        1.384088    0.233141    1.112763
     36          1           0        2.107963   -1.221005   -1.388196
     37          1           0        3.334106   -1.729204    1.296194
     38          1           0        4.633339   -0.550854   -1.167664
     39          1           0       -2.258327   -3.140899    0.021657
     40          1           0       -3.415450   -2.556332   -1.126131
     41          1           0       -2.727673   -1.013510    1.333300
     42          1           0       -3.751798   -0.172641   -1.356626
     43          1           0       -3.382083    1.346649    1.140585
     44          1           0       -1.647359    1.745482   -1.174736
     45          1           0       -0.677017    0.313584    1.261635
 ---------------------------------------------------------------------

 SCF Done:  E(RB3LYP) =  -1297.97959677     A.U. after   13 cycles

 The electronic state is 1-A.
 Alpha  occ. eigenvalues --  -19.19017 -19.18537 -19.18502 -19.18019 -19.17510
 Alpha  occ. eigenvalues --  -19.17507 -19.16246 -19.16234 -19.15097 -19.13261
 Alpha  occ. eigenvalues --  -19.13037 -10.31096 -10.30307 -10.26199 -10.25433
 Alpha  occ. eigenvalues --  -10.25388 -10.25184 -10.25021 -10.24905 -10.24006
 Alpha  occ. eigenvalues --  -10.23928 -10.23781 -10.23556  -1.10648  -1.09571
 Alpha  occ. eigenvalues --   -1.05797  -1.05568  -1.03936  -1.03775  -1.03096
 Alpha  occ. eigenvalues --   -1.02637  -1.01938  -1.00045  -0.99564  -0.82280
 Alpha  occ. eigenvalues --   -0.80199  -0.79511  -0.77950  -0.71566  -0.69842
 Alpha  occ. eigenvalues --   -0.67570  -0.65208  -0.63476  -0.62527  -0.61266
 Alpha  occ. eigenvalues --   -0.60021  -0.56826  -0.56217  -0.55621  -0.54871
 Alpha  occ. eigenvalues --   -0.53912  -0.53237  -0.52858  -0.51422  -0.51363
 Alpha  occ. eigenvalues --   -0.50893  -0.49764  -0.49526  -0.48816  -0.46665
 Alpha  occ. eigenvalues --   -0.45646  -0.44977  -0.44229  -0.43799  -0.43055
 Alpha  occ. eigenvalues --   -0.42406  -0.41278  -0.40896  -0.40435  -0.39455
 Alpha  occ. eigenvalues --   -0.38776  -0.38500  -0.37597  -0.36576  -0.35982
 Alpha  occ. eigenvalues --   -0.35579  -0.35380  -0.35046  -0.33562  -0.33458
 Alpha  occ. eigenvalues --   -0.33167  -0.31584  -0.31104  -0.30371  -0.29915
 Alpha  occ. eigenvalues --   -0.29315  -0.28812  -0.28130  -0.27117  -0.26651
 Alpha  occ. eigenvalues --   -0.25980
 Alpha virt. eigenvalues --   -0.02512  -0.02177  -0.01848  -0.00354   0.00371
 Alpha virt. eigenvalues --    0.01015   0.01900   0.02319   0.03201   0.03669
 Alpha virt. eigenvalues --    0.03877   0.04304   0.04844   0.05337   0.05522

 Mulliken atomic charges:
              1
     1  O   -0.538666
     2  C   -0.061607
     3  C    0.283311
     4  O   -0.556931
     5  H    0.335520
     6  C   -0.186185
     7  O   -0.582583
     8  H    0.427265
     9  C   -0.191231
    10  O   -0.500918
    11  H    0.332373
    12  C    0.148423
    13  O   -0.207977
    14  C    0.103899
    15  O   -0.231830
    16  C    0.180985
    17  C    0.171270
    18  O   -0.620857
    19  H    0.406698
    20  C    0.226542
    21  O   -0.521154
    22  H    0.319290
    23  C   -0.245830
    24  O   -0.584459
    25  H    0.358692
    26  C   -0.064588
    27  O   -0.195062
    28  C    0.002696
    29  O   -0.501218
    30  H    0.330585
    31  H    0.340713
    32  H    0.140415
    33  H    0.156325
    34  H    0.127850
    35  H    0.108404
    36  H    0.117763
    37  H    0.135198
    38  H    0.134471
    39  H    0.144886
    40  H    0.136121
    41  H    0.115646
    42  H    0.120702
    43  H    0.120268
    44  H    0.132309
    45  H    0.132477
 Sum of Mulliken atomic charges =   0.00000

 Dipole moment (field-independent basis, Debye):
    X=              3.5472    Y=             -0.0133    Z=             -1.9948  Tot=              4.0696
 Quadrupole moment (field-independent basis, Debye-Ang):
   XX=           -114.7487   YY=           -139.1165   ZZ=           -139.1955
   XY=             15.9890   XZ=              1.6976   YZ=             -0.3098

  Exact polarizability: 234.845  -0.581 195.788   1.212   0.921 144.109
 Approx polarizability: 276.364   0.977 255.689   0.926   2.703 239.829

 ******    7 imaginary frequencies (negative Signs) ******

                     1                      2                      3
                     A                      A                      A
 Frequencies --  -268.0988              -245.6479              -217.2751
 Red. masses --     1.7623                 1.8126                 1.2258
 Frc consts  --     0.0746                 0.0644                 0.0341
 IR Inten    --     6.0286                 1.7299                89.1204
 Raman Activ --     0.1560                 0.0222                 0.9567

                     4                      5                      6
                     A                      A                      A
 Frequencies --  -167.2685               -79.0172               -63.5157
 Red. masses --     1.3294                 6.2525                 6.5891
 Frc consts  --     0.0219                 0.0230                 0.0157
 IR Inten    --    95.3033                 0.2814                 0.5567
 Raman Activ --     0.7131                 0.0373                 0.0329

                     7                      8                      9
                     A                      A                      A
 Frequencies --   -14.9600                36.9631                63.3814
 Red. masses --     6.7642                 6.5073                 5.4108
 Frc consts  --     0.0009                 0.0052                 0.0128
 IR Inten    --     0.7563                 0.3721                 8.1184
 Raman Activ --     0.0373                 0.0539                 0.0505

                    10                     11                     12
                     A                      A                      A
 Frequencies --    77.6837                82.2826                99.7336
 Red. masses --     6.6068                 6.6953                 5.7648
 Frc consts  --     0.0235                 0.0267                 0.0338
 IR Inten    --     0.4011                 2.2407                 0.6428
 Raman Activ --     0.2420                 0.0566                 0.0638

                    13                     14                     15
                     A                      A                      A
 Frequencies --   153.9014               172.1449               177.9488
 Red. masses --     6.2420                 5.4066                 7.8190
 Frc consts  --     0.0871                 0.0944                 0.1459
 IR Inten    --     2.6567                 3.5439                 1.5763
 Raman Activ --     0.3933                 0.2674                 0.7802

                    16                     17                     18
                     A                      A                      A
 Frequencies --   211.1976               240.5766               269.6400
 Red. masses --     7.2973                 6.0034                 4.1757
 Frc consts  --     0.1918                 0.2047                 0.1789
 IR Inten    --     0.2439                 0.6009                17.4530
 Raman Activ --     2.7796                 0.1715                 0.5590

                    19                     20                     21
                     A                      A                      A
 Frequencies --   271.9764               288.5042               303.4613
 Red. masses --     4.6911                 3.9521                 5.3928
 Frc consts  --     0.2044                 0.1938                 0.2926
 IR Inten    --     1.9519                 1.8374                 3.8417
 Raman Activ --     0.0684                 0.0381                 0.5199

                    22                     23                     24
                     A                      A                      A
 Frequencies --   314.9406               322.5083               341.4137
 Red. masses --     6.1819                 5.3591                 5.5195
 Frc consts  --     0.3613                 0.3284                 0.3791
 IR Inten    --     5.1875                 1.5711                 9.0547
 Raman Activ --     2.1511                 3.1585                 0.9676

                    25                     26                     27
                     A                      A                      A
 Frequencies --   359.6207               375.3666               378.0647
 Red. masses --     6.2716                 8.0667                 4.7369
 Frc consts  --     0.4779                 0.6697                 0.3989
 IR Inten    --     8.3153                 0.5035                 2.5477
 Raman Activ --     1.3623                 3.0916                 1.4989

                    28                     29                     30
                     A                      A                      A
 Frequencies --   415.5812               417.6648               432.7553
 Red. masses --     3.7388                 6.0460                 5.6025
 Frc consts  --     0.3804                 0.6214                 0.6182
 IR Inten    --     8.7129                 3.7589                 2.9672
 Raman Activ --     3.6546                 6.2723                 1.7066

                    31                     32                     33
                     A                      A                      A
 Frequencies --   446.0100               472.7724               492.9526
 Red. masses --     4.5869                 4.8779                 3.6858
 Frc consts  --     0.5376                 0.6424                 0.5277
 IR Inten    --     3.1883                 2.8893                12.6851
 Raman Activ --     1.1106                 4.7966                 0.6209

                    34                     35                     36
                     A                      A                      A
 Frequencies --   515.5890               522.0987               566.3311
 Red. masses --     3.6912                 3.2484                 3.5243
 Frc consts  --     0.5781                 0.5217                 0.6660
 IR Inten    --     8.5597                10.3233                25.2867
 Raman Activ --     2.0234                 4.6715                 0.8601

                    37                     38                     39
                     A                      A                      A
 Frequencies --   599.3437               612.6425               631.0135
 Red. masses --     3.2020                 6.4742                 5.4161
 Frc consts  --     0.6777                 1.4317                 1.2706
 IR Inten    --    27.1451                13.5414                32.7467
 Raman Activ --     1.1361                 0.8424                 1.8779

                    40                     41                     42
                     A                      A                      A
 Frequencies --   644.1398               700.9985               708.1698
 Red. masses --     3.9651                 1.0959                 4.1703
 Frc consts  --     0.9693                 0.3173                 1.2322
 IR Inten    --    10.7134               110.6322                25.9782
 Raman Activ --     0.1737                 1.7205                 1.2244

                    43                     44                     45
                     A                      A                      A
 Frequencies --   719.7590               749.4025               757.8139
 Red. masses --     1.1236                 1.0803                 1.0842
 Frc consts  --     0.3430                 0.3575                 0.3668
 IR Inten    --    82.8780               103.4140                72.6696
 Raman Activ --     1.6566                 1.9536                 1.3196

                    46                     47                     48
                     A                      A                      A
 Frequencies --   790.0153               822.0339               847.2657
 Red. masses --     1.0657                 1.1121                 1.7765
 Frc consts  --     0.3919                 0.4428                 0.7514
 IR Inten    --    55.1504                61.8673                 2.3747
 Raman Activ --     0.6548                 0.6677                 1.1359

                    49                     50                     51
                     A                      A                      A
 Frequencies --   864.7914               916.5442               937.5441
 Red. masses --     1.5891                 6.0922                 6.0560
 Frc consts  --     0.7002                 3.0153                 3.1363
 IR Inten    --     5.0863               162.7667                38.3149
 Raman Activ --     0.2649                 2.8153                 0.4044

                    52                     53                     54
                     A                      A                      A
 Frequencies --   972.0199               984.0554               998.0931
 Red. masses --     4.8848                 6.6208                 5.0543
 Frc consts  --     2.7192                 3.7774                 2.9666
 IR Inten    --    84.4906               107.5746                47.1958
 Raman Activ --     3.6306                 2.3781                 3.5093

                    55                     56                     57
                     A                      A                      A
 Frequencies --  1009.9102              1015.3650              1018.9586
 Red. masses --     5.2437                 7.8796                 6.0027
 Frc consts  --     3.1510                 4.7863                 3.6720
 IR Inten    --   221.0343               188.7600                71.9232
 Raman Activ --     1.4683                 2.6578                 4.7609

                    58                     59                     60
                     A                      A                      A
 Frequencies --  1040.7386              1057.8528              1062.2540
 Red. masses --     5.6970                 3.4861                 6.5488
 Frc consts  --     3.6357                 2.2985                 4.3538
 IR Inten    --   237.6421                40.9583                50.4258
 Raman Activ --     2.7041                 3.8389                 0.9797

                    61                     62                     63
                     A                      A                      A
 Frequencies --  1066.8927              1072.1417              1081.4281
 Red. masses --     3.6542                 3.8684                 4.0764
 Frc consts  --     2.4507                 2.6199                 2.8088
 IR Inten    --   112.0907                57.7572                13.1687
 Raman Activ --     2.3217                19.6530                11.9791

                    64                     65                     66
                     A                      A                      A
 Frequencies --  1098.4939              1103.9028              1119.3239
 Red. masses --     2.9301                 2.8740                 2.6851
 Frc consts  --     2.0832                 2.0635                 1.9821
 IR Inten    --    54.5813                84.5104                15.4189
 Raman Activ --     8.2184                14.0268                 4.1582

                    67                     68                     69
                     A                      A                      A
 Frequencies --  1122.8961              1125.6515              1129.7365
 Red. masses --     3.0302                 2.6914                 2.0408
 Frc consts  --     2.2512                 2.0093                 1.5346
 IR Inten    --     8.6199                48.4564                21.4560
 Raman Activ --     2.5076                 3.7958                 3.7329

                    70                     71                     72
                     A                      A                      A
 Frequencies --  1136.8622              1137.5906              1153.2227
 Red. masses --     2.2268                 2.6527                 2.0732
 Frc consts  --     1.6957                 2.0226                 1.6245
 IR Inten    --    33.3338                30.3018                10.8489
 Raman Activ --     1.8540                 1.4998                 6.5845

                    73                     74                     75
                     A                      A                      A
 Frequencies --  1154.6377              1170.0848              1185.8241
 Red. masses --     1.8015                 1.6030                 1.8575
 Frc consts  --     1.4151                 1.2930                 1.5390
 IR Inten    --    63.7570                 7.5578                11.8899
 Raman Activ --     2.8130                 1.1386                 2.5185

                    76                     77                     78
                     A                      A                      A
 Frequencies --  1210.2595              1213.4749              1217.9363
 Red. masses --     1.4460                 1.2806                 1.2299
 Frc consts  --     1.2479                 1.1111                 1.0749
 IR Inten    --    11.2862                19.6433                 2.1880
 Raman Activ --     1.4403                 3.5110                 1.0786

                    79                     80                     81
                     A                      A                      A
 Frequencies --  1226.6850              1238.6228              1243.6945
 Red. masses --     1.2430                 1.4561                 1.3696
 Frc consts  --     1.1020                 1.3162                 1.2481
 IR Inten    --     8.6746                17.0021                 3.1068
 Raman Activ --     2.3610                 4.2896                 0.6831

                    82                     83                     84
                     A                      A                      A
 Frequencies --  1273.0941              1278.9178              1283.7616
 Red. masses --     1.3562                 1.2037                 1.3335
 Frc consts  --     1.2951                 1.1600                 1.2948
 IR Inten    --    56.2996                10.1314                22.0185
 Raman Activ --     1.1295                 1.3950                 3.0210

                    85                     86                     87
                     A                      A                      A
 Frequencies --  1292.1896              1297.3754              1301.8933
 Red. masses --     1.3545                 1.3866                 1.2845
 Frc consts  --     1.3326                 1.3751                 1.2828
 IR Inten    --     1.8460                 8.7675                10.9449
 Raman Activ --     1.3379                 2.2664                 1.2967

                    88                     89                     90
                     A                      A                      A
 Frequencies --  1313.2562              1317.9217              1338.9508
 Red. masses --     1.2899                 1.3154                 1.2140
 Frc consts  --     1.3107                 1.3461                 1.2824
 IR Inten    --    21.5955                10.6388                18.1411
 Raman Activ --     6.2200                 5.3978                18.1246

                    91                     92                     93
                     A                      A                      A
 Frequencies --  1353.5330              1355.4386              1356.6821
 Red. masses --     1.2175                 1.3507                 1.4041
 Frc consts  --     1.3142                 1.4620                 1.5226
 IR Inten    --    17.9268                 2.4310                 7.9313
 Raman Activ --     3.3559                 4.5276                 5.5664

                    94                     95                     96
                     A                      A                      A
 Frequencies --  1357.9854              1361.0069              1370.5139
 Red. masses --     1.2720                 1.1508                 1.2795
 Frc consts  --     1.3820                 1.2560                 1.4160
 IR Inten    --    15.9751                40.1095                60.4691
 Raman Activ --     2.8691                 1.4837                 3.7551

                    97                     98                     99
                     A                      A                      A
 Frequencies --  1379.6630              1394.7978              1395.7244
 Red. masses --     1.4450                 1.4259                 1.4402
 Frc consts  --     1.6205                 1.6344                 1.6530
 IR Inten    --     4.3913                12.2754                 1.0257
 Raman Activ --     3.5276                 3.3845                 8.3509

                   100                    101                    102
                     A                      A                      A
 Frequencies --  1457.4018              1459.8739              1468.5456
 Red. masses --     1.3089                 1.2732                 1.0792
 Frc consts  --     1.6379                 1.5987                 1.3712
 IR Inten    --    55.2539                32.9601                 7.1740
 Raman Activ --     0.6892                 1.5460                 4.9804

                   103                    104                    105
                     A                      A                      A
 Frequencies --  1472.7958              1478.5790              1482.6423
 Red. masses --     1.0923                 1.3812                 1.3353
 Frc consts  --     1.3959                 1.7791                 1.7294
 IR Inten    --     6.7951                22.6120                71.7204
 Raman Activ --     4.5996                 1.3265                 2.5631

                   106                    107                    108
                     A                      A                      A
 Frequencies --  1491.1441              1492.3696              3240.6437
 Red. masses --     1.3032                 1.3125                 1.0696
 Frc consts  --     1.7073                 1.7223                 6.6181
 IR Inten    --     2.6856                64.4077               741.3323
 Raman Activ --     2.8634                 0.2719               199.9275

                   109                    110                    111
                     A                      A                      A
 Frequencies --  3253.9604              3255.9684              3263.3145
 Red. masses --     1.0675                 1.0689                 1.0773
 Frc consts  --     6.6597                 6.6763                 6.7593
 IR Inten    --    26.4455                17.2287               282.3192
 Raman Activ --    12.7644               161.5242               128.9430

                   112                    113                    114
                     A                      A                      A
 Frequencies --  3264.0965              3276.0485              3278.9305
 Red. masses --     1.0617                 1.0821                 1.0811
 Frc consts  --     6.6648                 6.8428                 6.8484
 IR Inten    --    57.7378                62.6964               101.6398
 Raman Activ --   112.5668                62.5326                60.6647

                   115                    116                    117
                     A                      A                      A
 Frequencies --  3282.4884              3286.1114              3287.3228
 Red. masses --     1.0834                 1.0791                 1.0842
 Frc consts  --     6.8778                 6.8656                 6.9028
 IR Inten    --    97.8344               430.6636                83.2559
 Raman Activ --    10.6037               161.7785                35.1524

                   118                    119                    120
                     A                      A                      A
 Frequencies --  3291.6903              3294.7441              3303.7272
 Red. masses --     1.0872                 1.0876                 1.0865
 Frc consts  --     6.9405                 6.9559                 6.9872
 IR Inten    --    38.2092                26.9074                45.6587
 Raman Activ --    17.6390                80.5469                26.8880

                   121                    122                    123
                     A                      A                      A
 Frequencies --  3307.1011              3311.4844              3317.6150
 Red. masses --     1.0874                 1.1039                 1.1032
 Frc consts  --     7.0070                 7.1325                 7.1542
 IR Inten    --    52.8463                64.4496                62.7235
 Raman Activ --    39.0447                29.1533                22.7559

                   124                    125                    126
                     A                      A                      A
 Frequencies --  3357.9412              3359.9593              3362.9225
 Red. masses --     1.0644                 1.0657                 1.0686
 Frc consts  --     7.0714                 7.0885                 7.1205
 IR Inten    --    29.1448                11.2975                39.4685
 Raman Activ --    89.4406               150.7248               130.9884

                   127                    128                    129
                     A                      A                      A
 Frequencies --  3367.4062              3888.2801              3891.4949
 Red. masses --     1.0681                 1.0677                 1.0676
 Frc consts  --     7.1361                 9.5108                 9.5253
 IR Inten    --    64.7889                77.4264                73.1323
 Raman Activ --   150.6031                90.9199               123.4552

 - Thermochemistry -
 -------------------
 Temperature   298.150 Kelvin.  Pressure   1.00000 Atm.
 Atom     1 has atomic number  8 and mass  15.99491

 Molecular mass:   342.11621 amu.
 Principal axes and moments of inertia in atomic units:
                           1         2         3
     Eigenvalues --  4381.66533********************
           X            0.99997   0.00741   0.00029
           Y           -0.00742   0.99997   0.00214
           Z           -0.00028  -0.00215   1.00000
 This molecule is an asymmetric top.
 Rotational symmetry number  1.
 Warning -- assumption of classical behavior for rotation
           may cause significant error
 Rotational temperatures (Kelvin)      0.01977     0.00699     0.00531
 Rotational constants (GHZ):           0.41188     0.14570     0.11057
    7 imaginary frequencies ignored.
 Zero-point vibrational energy     975330.1 (Joules/Mol)
                                  233.10949 (Kcal/Mol)
 Warning -- explicit consideration of  31 degrees of freedom as
           vibrations may cause significant error
 Vibrational temperatures:     53.18    91.19   111.77   118.39   143.49
          (Kelvin)            221.43   247.68   256.03   303.87   346.14
                              387.95   391.31   415.09   436.61   453.13
                              464.02   491.22   517.41   540.07   543.95
                              597.93   600.93   622.64   641.71   680.21
                              709.25   741.82   751.18   814.82   862.32
                              881.45   907.89   926.77  1008.58  1018.90
                             1035.57  1078.22  1090.32  1136.65  1182.72
                             1219.02  1244.24  1318.70  1348.92  1398.52
                             1415.83  1436.03  1453.03  1460.88  1466.05
                             1497.39  1522.01  1528.34  1535.02  1542.57
                             1555.93  1580.49  1588.27  1610.46  1615.59
                             1619.56  1625.44  1635.69  1636.74  1659.23
                             1661.26  1683.49  1706.13  1741.29  1745.92
                             1752.34  1764.92  1782.10  1789.40  1831.70
                             1840.08  1847.04  1859.17  1866.63  1873.13
                             1889.48  1896.19  1926.45  1947.43  1950.17
                             1951.96  1953.84  1958.18  1971.86  1985.02
                             2006.80  2008.13  2096.87  2100.43  2112.91
                             2119.02  2127.34  2133.19  2145.42  2147.18
                             4662.56  4681.72  4684.61  4695.18  4696.30
                             4713.50  4717.64  4722.76  4727.98  4729.72
                             4736.00  4740.40  4753.32  4758.17  4764.48
                             4773.30  4831.32  4834.23  4838.49  4844.94
                             5594.36  5598.99

 Zero-point correction=                           0.371484 (Hartree/Particle)
 Thermal correction to Energy=                    0.389758
 Thermal correction to Enthalpy=                  0.390702
 Thermal correction to Gibbs Free Energy=         0.325648
 Sum of electronic and zero-point Energies=          -1297.608113
 Sum of electronic and thermal Energies=             -1297.589839
 Sum of electronic and thermal Enthalpies=           -1297.588895
 Sum of electronic and thermal Free Energies=        -1297.653949

                     E (Thermal)             CV                S
                      KCal/Mol        Cal/Mol-Kelvin    Cal/Mol-Kelvin
 Total                  244.577             75.562            136.919
 Electronic               0.000              0.000              0.000
 Translational            0.889              2.981             43.384
 Rotational               0.889              2.981             35.137
 Vibrational            242.799             69.601             58.397
 Vibration     1          0.594              1.982              5.416
 Vibration     2          0.597              1.972              4.349
 Vibration     3          0.599              1.964              3.949
 Vibration     4          0.600              1.961              3.836
 Vibration     5          0.604              1.949              3.460
 Vibration     6          0.619              1.898              2.623
 Vibration     7          0.626              1.877              2.412
 Vibration     8          0.628              1.869              2.350
 Vibration     9          0.643              1.824              2.033
 Vibration    10          0.658              1.778              1.799
 Vibration    11          0.674              1.729              1.599
 Vibration    12          0.675              1.725              1.584
 Vibration    13          0.685              1.695              1.483
 Vibration    14          0.695              1.667              1.398
 Vibration    15          0.702              1.645              1.336
 Vibration    16          0.708              1.630              1.297
 Vibration    17          0.721              1.593              1.206
 Vibration    18          0.734              1.555              1.124
 Vibration    19          0.746              1.523              1.058
 Vibration    20          0.748              1.517              1.047
 Vibration    21          0.779              1.436              0.907
 Vibration    22          0.781              1.432              0.900
 Vibration    23          0.794              1.399              0.850
 Vibration    24          0.805              1.370              0.808
 Vibration    25          0.830              1.310              0.730
 Vibration    26          0.849              1.266              0.676
 Vibration    27          0.871              1.215              0.620
 Vibration    28          0.877              1.201              0.605
 Vibration    29          0.922              1.104              0.511
 Vibration    30          0.957              1.033              0.451
 Vibration    31          0.972              1.005              0.428

 Normal termination of Gaussian 09 at Mon Mar 21 22:48:29 2016.
