 Gaussian 09, Revision B.01,
 Gaussian 09:  EM64L-G09RevB.01 12-Aug-2010

 ------------------------------------------------
 # freq=raman b3lyp/6-31+g(d,p) geom=connectivity
 ------------------------------------------------

 ------------
 400 7000.com
 ------------
 Symbolic Z-matrix:
 Charge =  0 Multiplicity = 1

                         Standard orientation:
 ---------------------------------------------------------------------
 Center     Atomic      Atomic             Coordinates (Angstroms)
 Number     Number       Type             X           Y           Z
 ---------------------------------------------------------------------
      1          8           0       -5.016818   -0.452028    0.324353
      2          6           0       -3.680009   -0.222802   -0.143284
      3          6           0       -3.209733    1.160422    0.272594
      4          8           0       -4.163884    2.229932    0.197807
      5          1           0       -5.092298    1.889738    0.351065
      6          6           0       -1.860285    1.657859   -0.220039
      7          8           0       -1.540303    2.876683    0.465621
      8          1           0       -0.574624    3.057686    0.281646
      9          6           0       -2.956166   -2.582030   -0.203922
     10          8           0       -4.188647   -3.129525    0.288562
     11          1           0       -4.101881   -4.119195    0.405290
     12          6           0       -2.566855   -1.182861    0.242539
     13          8           0       -1.310597   -0.794275   -0.331752
     14          6           0       -0.876600    0.525176    0.028719
     15          8           0        0.277767    0.604494   -0.820209
     16          6           0        1.510019    0.285104   -0.157339
     17          6           0        1.970088   -1.136787   -0.431820
     18          8           0        0.993781   -2.154429   -0.166847
     19          1           0        0.156680   -1.692489   -0.459756
     20          6           0        3.267200   -1.569721    0.232094
     21          8           0        3.841850   -2.705830   -0.428637
     22          1           0        4.688903   -3.036147   -0.011771
     23          6           0        2.439530    2.567971    0.002540
     24          8           0        1.333586    3.316937   -0.523169
     25          1           0        1.309396    4.259047   -0.188314
     26          6           0        2.728002    1.145947   -0.449627
     27          8           0        3.755659    0.827690    0.499407
     28          6           0        4.270044   -0.439075    0.062719
     29          8           0        5.246804   -0.669351    1.089250
     30          1           0        6.120128   -0.721588    0.694059
     31          1           0        4.702461   -0.401136   -0.915278
     32          1           0        3.108216   -1.778216    1.269473
     33          1           0        2.155275   -1.177700   -1.484878
     34          1           0        1.322043    0.357932    0.893499
     35          1           0        3.060772    1.087205   -1.464868
     36          1           0        3.321922    3.140049   -0.194970
     37          1           0        2.313425    2.534964    1.064571
     38          1           0       -5.620567   -0.456508   -0.422016
     39          1           0       -2.168187   -3.245602    0.085318
     40          1           0       -3.007014   -2.578870   -1.272708
     41          1           0       -2.469003   -1.180177    1.308052
     42          1           0       -3.728554   -0.226486   -1.212175
     43          1           0       -3.054816    1.045418    1.325055
     44          1           0       -1.917715    1.849905   -1.271095
     45          1           0       -0.569548    0.534554    1.053673
 ---------------------------------------------------------------------

 SCF Done:  E(RB3LYP) =  -1297.91401680     A.U. after   14 cycles

 The electronic state is 1-A.
 Alpha  occ. eigenvalues --  -19.20576 -19.19396 -19.19135 -19.18559 -19.18224
 Alpha  occ. eigenvalues --  -19.17998 -19.17047 -19.16980 -19.16237 -19.15447
 Alpha  occ. eigenvalues --  -19.13996 -10.31702 -10.30686 -10.26710 -10.26416
 Alpha  occ. eigenvalues --  -10.26007 -10.25860 -10.25435 -10.25107 -10.24996
 Alpha  occ. eigenvalues --  -10.24564 -10.24174 -10.23945  -1.11074  -1.09981
 Alpha  occ. eigenvalues --   -1.05418  -1.04595  -1.03922  -1.03504  -1.02880
 Alpha  occ. eigenvalues --   -1.02512  -1.02442  -1.00485  -1.00347  -0.82462
 Alpha  occ. eigenvalues --   -0.81115  -0.79212  -0.78836  -0.71872  -0.70268
 Alpha  occ. eigenvalues --   -0.67400  -0.65393  -0.63484  -0.63149  -0.61576
 Alpha  occ. eigenvalues --   -0.60512  -0.56723  -0.56129  -0.55149  -0.54678
 Alpha  occ. eigenvalues --   -0.54250  -0.53792  -0.52654  -0.52021  -0.51557
 Alpha  occ. eigenvalues --   -0.50403  -0.50191  -0.49469  -0.49006  -0.46669
 Alpha  occ. eigenvalues --   -0.45852  -0.45201  -0.44318  -0.43332  -0.42887
 Alpha  occ. eigenvalues --   -0.42335  -0.41613  -0.41228  -0.40054  -0.39857
 Alpha  occ. eigenvalues --   -0.39180  -0.37970  -0.36839  -0.36214  -0.35946
 Alpha  occ. eigenvalues --   -0.35325  -0.35155  -0.34797  -0.34264  -0.34059
 Alpha  occ. eigenvalues --   -0.32647  -0.31484  -0.31235  -0.30413  -0.29877
 Alpha  occ. eigenvalues --   -0.29193  -0.28926  -0.28519  -0.28070  -0.26658
 Alpha  occ. eigenvalues --   -0.25943
 Alpha virt. eigenvalues --   -0.02059  -0.01980  -0.01921  -0.00289   0.00233
 Alpha virt. eigenvalues --    0.01009   0.01813   0.02186   0.03133   0.03350
 Alpha virt. eigenvalues --    0.03997   0.04342   0.04620   0.05265   0.05635

 Mulliken atomic charges:
              1
     1  O   -0.537774
     2  C   -0.198880
     3  C    0.082807
     4  O   -0.524843
     5  H    0.361882
     6  C   -0.032033
     7  O   -0.509223
     8  H    0.394383
     9  C   -0.102587
    10  O   -0.539877
    11  H    0.370223
    12  C    0.280486
    13  O   -0.431039
    14  C    0.137549
    15  O   -0.268004
    16  C    0.064308
    17  C   -0.142915
    18  O   -0.518077
    19  H    0.424283
    20  C    0.206471
    21  O   -0.527037
    22  H    0.355080
    23  C   -0.025584
    24  O   -0.614611
    25  H    0.374898
    26  C    0.044063
    27  O   -0.278251
    28  C    0.070956
    29  O   -0.569009
    30  H    0.355025
    31  H    0.144114
    32  H    0.159661
    33  H    0.142173
    34  H    0.117525
    35  H    0.145861
    36  H    0.136134
    37  H    0.144504
    38  H    0.375029
    39  H    0.140462
    40  H    0.136297
    41  H    0.134855
    42  H    0.125706
    43  H    0.119669
    44  H    0.150476
    45  H    0.124866
 Sum of Mulliken atomic charges =   0.00000

 Dipole moment (field-independent basis, Debye):
    X=              2.9902    Y=             -0.4524    Z=             -1.4094  Tot=              3.3365
 Quadrupole moment (field-independent basis, Debye-Ang):
   XX=           -114.3410   YY=           -136.7227   ZZ=           -142.5050
   XY=             14.5894   XZ=              3.0468   YZ=             -1.7155

  Exact polarizability: 227.294  -2.861 193.482   0.655   0.389 141.555
 Approx polarizability: 265.730  -3.686 249.311  -0.053   0.671 232.547

 ******    6 imaginary frequencies (negative Signs) ******

                     1                      2                      3
                     A                      A                      A
 Frequencies --  -331.2271              -288.9425              -266.0679
 Red. masses --     1.1899                 1.1540                 1.7807
 Frc consts  --     0.0769                 0.0568                 0.0743
 IR Inten    --   116.2399               115.4061                 7.0346
 Raman Activ --     1.0007                 1.4134                 0.1084

                     4                      5                      6
                     A                      A                      A
 Frequencies --  -265.4993               -79.5058               -68.4550
 Red. masses --     1.7944                 6.6801                 6.4376
 Frc consts  --     0.0745                 0.0249                 0.0178
 IR Inten    --     5.8412                 1.6783                 0.1792
 Raman Activ --     0.1206                 0.0525                 0.0162

                     7                      8                      9
                     A                      A                      A
 Frequencies --    19.7487                36.9889                52.7321
 Red. masses --     6.3184                 6.5365                 6.7034
 Frc consts  --     0.0015                 0.0053                 0.0110
 IR Inten    --     1.5429                 0.9555                 2.3581
 Raman Activ --     0.0768                 0.1004                 0.0413

                    10                     11                     12
                     A                      A                      A
 Frequencies --    60.9264                74.0880               112.0721
 Red. masses --     6.8782                 6.3652                 5.9671
 Frc consts  --     0.0150                 0.0206                 0.0442
 IR Inten    --     1.5049                 0.5486                 2.0631
 Raman Activ --     0.1592                 0.0657                 0.1308

                    13                     14                     15
                     A                      A                      A
 Frequencies --   146.6466               187.6273               190.3231
 Red. masses --     6.0151                 6.1418                 7.1700
 Frc consts  --     0.0762                 0.1274                 0.1530
 IR Inten    --     1.1339                 1.2183                 0.4734
 Raman Activ --     0.4258                 1.5504                 0.3638

                    16                     17                     18
                     A                      A                      A
 Frequencies --   198.3154               226.9655               251.0083
 Red. masses --     5.7077                 6.3599                 4.4937
 Frc consts  --     0.1323                 0.1930                 0.1668
 IR Inten    --     1.9814                 3.1562                13.2546
 Raman Activ --     0.2508                 1.0052                 0.7588

                    19                     20                     21
                     A                      A                      A
 Frequencies --   282.0063               293.5519               307.3647
 Red. masses --     4.7797                 5.2236                 5.5505
 Frc consts  --     0.2240                 0.2652                 0.3089
 IR Inten    --     3.9108                 5.6956                 0.5194
 Raman Activ --     0.2977                 0.2256                 0.8919

                    22                     23                     24
                     A                      A                      A
 Frequencies --   308.5743               318.3798               328.8573
 Red. masses --     6.5156                 5.7785                 5.7527
 Frc consts  --     0.3655                 0.3451                 0.3665
 IR Inten    --     1.6509                 6.6443                 2.1623
 Raman Activ --     2.5254                 0.6204                 1.1352

                    25                     26                     27
                     A                      A                      A
 Frequencies --   341.0278               362.2504               379.1051
 Red. masses --     6.9584                 4.2589                 7.2772
 Frc consts  --     0.4768                 0.3293                 0.6162
 IR Inten    --     8.4844                 3.7048                 2.6073
 Raman Activ --     2.6083                 0.5591                 4.2162

                    28                     29                     30
                     A                      A                      A
 Frequencies --   407.7450               416.8299               441.7547
 Red. masses --     5.7362                 4.4423                 5.0320
 Frc consts  --     0.5619                 0.4548                 0.5786
 IR Inten    --    13.0144                 6.4221                 7.7243
 Raman Activ --     3.3803                 3.1043                 1.8278

                    31                     32                     33
                     A                      A                      A
 Frequencies --   445.1374               471.5934               494.8224
 Red. masses --     5.0531                 4.8381                 5.7037
 Frc consts  --     0.5899                 0.6340                 0.8228
 IR Inten    --     2.5262                 7.3585                 3.3025
 Raman Activ --     1.8929                 7.2518                 1.1160

                    34                     35                     36
                     A                      A                      A
 Frequencies --   525.0226               539.6999               568.9728
 Red. masses --     3.0969                 3.1934                 3.9250
 Frc consts  --     0.5030                 0.5480                 0.7486
 IR Inten    --    21.3464                 9.9270                 7.4785
 Raman Activ --     4.9558                 1.4911                 0.7177

                    37                     38                     39
                     A                      A                      A
 Frequencies --   590.3383               603.1011               635.1589
 Red. masses --     2.7093                 5.6355                 4.3898
 Frc consts  --     0.5563                 1.2077                 1.0434
 IR Inten    --    35.0130                 7.0751                 4.6680
 Raman Activ --     0.6192                 1.0266                 0.1741

                    40                     41                     42
                     A                      A                      A
 Frequencies --   645.6943               660.0822               682.7999
 Red. masses --     3.0873                 1.3071                 1.0633
 Frc consts  --     0.7584                 0.3356                 0.2921
 IR Inten    --    44.7679               115.3340                93.9637
 Raman Activ --     1.3826                 2.0978                 1.9183

                    43                     44                     45
                     A                      A                      A
 Frequencies --   697.2954               709.1672               715.0931
 Red. masses --     4.6270                 1.0633                 1.0755
 Frc consts  --     1.3255                 0.3151                 0.3240
 IR Inten    --    11.0247               128.2661               109.1436
 Raman Activ --     2.8044                 1.6060                 2.2409

                    46                     47                     48
                     A                      A                      A
 Frequencies --   785.6763               806.8473               850.4773
 Red. masses --     1.0724                 1.1018                 1.7539
 Frc consts  --     0.3900                 0.4226                 0.7474
 IR Inten    --    85.5165               122.1552                 2.2580
 Raman Activ --     0.5790                 3.0865                 0.5882

                    49                     50                     51
                     A                      A                      A
 Frequencies --   869.9618               938.9391               969.1710
 Red. masses --     1.6868                 6.1235                 4.3324
 Frc consts  --     0.7521                 3.1807                 2.3976
 IR Inten    --     8.6978               115.4062                15.8059
 Raman Activ --     0.5730                 2.3636                 1.0715

                    52                     53                     54
                     A                      A                      A
 Frequencies --   992.7257               999.2655              1004.2454
 Red. masses --     6.1712                 5.9057                 6.7143
 Frc consts  --     3.5833                 3.4744                 3.9896
 IR Inten    --    91.7154               474.8492                76.8979
 Raman Activ --     4.9373                 1.6601                 1.6375

                    55                     56                     57
                     A                      A                      A
 Frequencies --  1007.5389              1018.5205              1030.2754
 Red. masses --     4.4424                 4.7514                 4.6255
 Frc consts  --     2.6570                 2.9041                 2.8928
 IR Inten    --    21.6286                60.3033                64.9570
 Raman Activ --     0.2917                 1.0000                 5.5276

                    58                     59                     60
                     A                      A                      A
 Frequencies --  1049.9092              1061.3858              1064.6545
 Red. masses --     3.7964                 3.0195                 3.8206
 Frc consts  --     2.4656                 2.0041                 2.5515
 IR Inten    --   179.5318                16.6742                39.4441
 Raman Activ --     1.0451                 5.1341                 6.4005

                    61                     62                     63
                     A                      A                      A
 Frequencies --  1066.8589              1076.6634              1081.8215
 Red. masses --     5.6497                 2.7676                 5.7325
 Frc consts  --     3.7887                 1.8902                 3.9528
 IR Inten    --   141.4154                 9.3912                69.7953
 Raman Activ --     0.8142                16.6975                 1.3590

                    64                     65                     66
                     A                      A                      A
 Frequencies --  1100.6924              1106.5151              1115.0064
 Red. masses --     2.2862                 3.0589                 4.0846
 Frc consts  --     1.6319                 2.2067                 2.9920
 IR Inten    --   112.4663                76.7789                89.8448
 Raman Activ --     3.1245                11.7783                 4.9999

                    67                     68                     69
                     A                      A                      A
 Frequencies --  1128.6459              1131.8238              1137.9249
 Red. masses --     1.7779                 2.0920                 2.0083
 Frc consts  --     1.3343                 1.5789                 1.5322
 IR Inten    --    15.7522                41.9469                16.8071
 Raman Activ --     2.1307                10.4780                 4.8550

                    70                     71                     72
                     A                      A                      A
 Frequencies --  1147.8431              1152.8395              1158.1307
 Red. masses --     2.4556                 2.0031                 2.4444
 Frc consts  --     1.9063                 1.5685                 1.9317
 IR Inten    --    52.4196                 3.3800                 8.5899
 Raman Activ --     2.3557                 3.9224                 3.0480

                    73                     74                     75
                     A                      A                      A
 Frequencies --  1164.5234              1177.2590              1185.6328
 Red. masses --     2.0528                 1.9733                 2.3618
 Frc consts  --     1.6402                 1.6113                 1.9561
 IR Inten    --     5.6181                18.6911                 5.4793
 Raman Activ --     3.4491                 6.2662                 2.0831

                    76                     77                     78
                     A                      A                      A
 Frequencies --  1201.1973              1215.6521              1231.6264
 Red. masses --     1.5892                 1.3590                 1.2419
 Frc consts  --     1.3510                 1.1833                 1.1099
 IR Inten    --    33.4614                12.9182                37.7056
 Raman Activ --     4.6358                 4.4152                 0.5525

                    79                     80                     81
                     A                      A                      A
 Frequencies --  1236.1801              1251.4474              1256.4712
 Red. masses --     1.3793                 1.1547                 1.4145
 Frc consts  --     1.2419                 1.0654                 1.3157
 IR Inten    --    12.8793                 5.3130                18.6224
 Raman Activ --     3.3045                 1.4683                 2.1213

                    82                     83                     84
                     A                      A                      A
 Frequencies --  1272.7204              1284.3264              1285.5322
 Red. masses --     1.4348                 1.2273                 1.2007
 Frc consts  --     1.3694                 1.1927                 1.1691
 IR Inten    --    39.4832                 7.5266                39.8893
 Raman Activ --     3.0385                 4.4298                 9.5330

                    85                     86                     87
                     A                      A                      A
 Frequencies --  1295.8427              1301.6661              1304.8242
 Red. masses --     1.2900                 1.4550                 1.1843
 Frc consts  --     1.2763                 1.4525                 1.1880
 IR Inten    --    10.6423                42.2478                43.1876
 Raman Activ --     2.9763                 1.9793                 4.9312

                    88                     89                     90
                     A                      A                      A
 Frequencies --  1312.8794              1322.0626              1322.7106
 Red. masses --     1.3024                 1.2055                 1.1728
 Frc consts  --     1.3227                 1.2415                 1.2090
 IR Inten    --    24.3297                12.2296                24.4360
 Raman Activ --     4.8231                 6.1715                 1.8375

                    91                     92                     93
                     A                      A                      A
 Frequencies --  1340.5825              1346.1486              1353.2934
 Red. masses --     1.2262                 1.1987                 1.3335
 Frc consts  --     1.2984                 1.2798                 1.4389
 IR Inten    --     6.3727                51.1314                 6.1937
 Raman Activ --     4.9771                 3.2479                 2.3057

                    94                     95                     96
                     A                      A                      A
 Frequencies --  1359.6096              1365.0557              1367.0865
 Red. masses --     1.5119                 1.6042                 1.5461
 Frc consts  --     1.6466                 1.7612                 1.7025
 IR Inten    --     3.3926                 0.4394                 9.2668
 Raman Activ --     6.7533                 9.8726                 4.9864

                    97                     98                     99
                     A                      A                      A
 Frequencies --  1384.8253              1396.3965              1405.6423
 Red. masses --     1.7029                 1.2037                 1.4041
 Frc consts  --     1.9241                 1.3829                 1.6345
 IR Inten    --    29.7353                17.4899                12.5763
 Raman Activ --     1.6467                 2.7491                 1.8486

                   100                    101                    102
                     A                      A                      A
 Frequencies --  1417.8019              1427.3170              1445.4755
 Red. masses --     1.4902                 1.3450                 1.4156
 Frc consts  --     1.7649                 1.6144                 1.7426
 IR Inten    --     6.1692                 7.3988                15.2901
 Raman Activ --     6.5068                 8.8555                 1.6340

                   103                    104                    105
                     A                      A                      A
 Frequencies --  1446.6874              1474.0719              1482.0254
 Red. masses --     1.3843                 1.3364                 1.0891
 Frc consts  --     1.7070                 1.7109                 1.4094
 IR Inten    --     8.4911                25.6706                 3.6166
 Raman Activ --     2.8759                 1.3164                 4.2603

                   106                    107                    108
                     A                      A                      A
 Frequencies --  1484.6015              1554.5852              3256.3165
 Red. masses --     1.0959                 1.2158                 1.0798
 Frc consts  --     1.4231                 1.7311                 6.7458
 IR Inten    --     5.3659                53.4014                17.6978
 Raman Activ --     4.3129                 1.2553                73.1135

                   109                    110                    111
                     A                      A                      A
 Frequencies --  3267.6476              3269.3513              3271.8765
 Red. masses --     1.0584                 1.0608                 1.0786
 Frc consts  --     6.6582                 6.6805                 6.8029
 IR Inten    --    28.8093                29.9835                59.3780
 Raman Activ --    88.8608                52.2875               123.3971

                   112                    113                    114
                     A                      A                      A
 Frequencies --  3280.5953              3288.1864              3296.1061
 Red. masses --     1.0828                 1.0855                 1.0861
 Frc consts  --     6.8662                 6.9152                 6.9523
 IR Inten    --    12.8153                 7.7118                37.1994
 Raman Activ --    74.0085                 3.4228                34.0664

                   115                    116                    117
                     A                      A                      A
 Frequencies --  3298.3395              3307.0138              3310.5007
 Red. masses --     1.0828                 1.0895                 1.0848
 Frc consts  --     6.9406                 7.0199                 7.0050
 IR Inten    --    21.0312                 2.3952                60.5255
 Raman Activ --    91.5616                20.9377                33.7862

                   118                    119                    120
                     A                      A                      A
 Frequencies --  3314.1183              3320.5576              3323.1228
 Red. masses --     1.0882                 1.0760                 1.0919
 Frc consts  --     7.0418                 6.9901                 7.1041
 IR Inten    --     4.6819               379.4716                11.4304
 Raman Activ --   141.3759               133.4545                27.1168

                   121                    122                    123
                     A                      A                      A
 Frequencies --  3325.5796              3327.6943              3352.7964
 Red. masses --     1.0985                 1.0970                 1.0680
 Frc consts  --     7.1580                 7.1572                 7.0738
 IR Inten    --   172.9187                99.6118               370.9552
 Raman Activ --   103.4003                31.2321               189.0114

                   124                    125                    126
                     A                      A                      A
 Frequencies --  3382.6740              3386.0483              3386.6272
 Red. masses --     1.0659                 1.0671                 1.0690
 Frc consts  --     7.1857                 7.2082                 7.2239
 IR Inten    --    35.2508                70.8895                44.3769
 Raman Activ --   117.1358               125.9061               162.5218

                   127                    128                    129
                     A                      A                      A
 Frequencies --  3388.2861              3917.9795              3918.2937
 Red. masses --     1.0670                 1.0680                 1.0676
 Frc consts  --     7.2171                 9.6589                 9.6569
 IR Inten    --    34.6243                99.1337                37.8599
 Raman Activ --   189.0392                62.2200               153.5957

 - Thermochemistry -
 -------------------
 Temperature   298.150 Kelvin.  Pressure   1.00000 Atm.
 Atom     1 has atomic number  8 and mass  15.99491

 Molecular mass:   342.11621 amu.
 Principal axes and moments of inertia in atomic units:
                           1         2         3
     Eigenvalues --  4471.02512********************
           X            0.99997   0.00755   0.00010
           Y           -0.00755   0.99997   0.00142
           Z           -0.00009  -0.00142   1.00000
 This molecule is an asymmetric top.
 Rotational symmetry number  1.
 Warning -- assumption of classical behavior for rotation
           may cause significant error
 Rotational temperatures (Kelvin)      0.01937     0.00713     0.00539
 Rotational constants (GHZ):           0.40365     0.14850     0.11235
    6 imaginary frequencies ignored.
 Zero-point vibrational energy     977628.4 (Joules/Mol)
                                  233.65879 (Kcal/Mol)
 Warning -- explicit consideration of  32 degrees of freedom as
           vibrations may cause significant error
 Vibrational temperatures:     28.41    53.22    75.87    87.66   106.60
          (Kelvin)            161.25   210.99   269.95   273.83   285.33
                              326.55   361.14   405.74   422.36   442.23
                              443.97   458.08   473.15   490.66   521.20
                              545.45   586.65   599.72   635.59   640.45
                              678.52   711.94   755.39   776.51   818.62
                              849.36   867.73   913.85   929.01   949.71
                              982.40  1003.25  1020.33  1028.86  1130.41
                             1160.87  1223.65  1251.68  1350.92  1394.42
                             1428.31  1437.72  1444.88  1449.62  1465.42
                             1482.33  1510.58  1527.10  1531.80  1534.97
                             1549.08  1556.50  1583.65  1592.03  1604.24
                             1623.87  1628.44  1637.22  1651.49  1658.68
                             1666.29  1675.49  1693.81  1705.86  1728.25
                             1749.05  1772.03  1778.59  1800.55  1807.78
                             1831.16  1847.86  1849.59  1864.43  1872.80
                             1877.35  1888.94  1902.15  1903.08  1928.80
                             1936.81  1947.08  1956.17  1964.01  1966.93
                             1992.45  2009.10  2022.40  2039.90  2053.59
                             2079.71  2081.46  2120.86  2132.30  2136.01
                             2236.70  4685.11  4701.41  4703.86  4707.49
                             4720.04  4730.96  4742.36  4745.57  4758.05
                             4763.07  4768.27  4777.54  4781.23  4784.76
                             4787.80  4823.92  4866.91  4871.76  4872.60
                             4874.98  5637.09  5637.54

 Zero-point correction=                           0.372359 (Hartree/Particle)
 Thermal correction to Energy=                    0.391683
 Thermal correction to Enthalpy=                  0.392627
 Thermal correction to Gibbs Free Energy=         0.323844
 Sum of electronic and zero-point Energies=          -1297.541658
 Sum of electronic and thermal Energies=             -1297.522334
 Sum of electronic and thermal Enthalpies=           -1297.521390
 Sum of electronic and thermal Free Energies=        -1297.590173

                     E (Thermal)             CV                S
                      KCal/Mol        Cal/Mol-Kelvin    Cal/Mol-Kelvin
 Total                  245.785             77.783            144.767
 Electronic               0.000              0.000              0.000
 Translational            0.889              2.981             43.384
 Rotational               0.889              2.981             35.122
 Vibrational            244.007             71.821             66.261
 Vibration     1          0.593              1.986              6.659
 Vibration     2          0.594              1.982              5.414
 Vibration     3          0.596              1.977              4.712
 Vibration     4          0.597              1.973              4.427
 Vibration     5          0.599              1.966              4.042
 Vibration     6          0.607              1.939              3.233
 Vibration     7          0.617              1.906              2.715
 Vibration     8          0.632              1.857              2.251
 Vibration     9          0.634              1.853              2.225
 Vibration    10          0.637              1.842              2.149
 Vibration    11          0.651              1.800              1.903
 Vibration    12          0.663              1.761              1.723
 Vibration    13          0.681              1.707              1.521
 Vibration    14          0.688              1.686              1.453
 Vibration    15          0.697              1.660              1.376
 Vibration    16          0.698              1.657              1.370
 Vibration    17          0.705              1.638              1.318
 Vibration    18          0.712              1.618              1.266
 Vibration    19          0.721              1.593              1.207
 Vibration    20          0.736              1.550              1.112
 Vibration    21          0.749              1.515              1.043
 Vibration    22          0.772              1.453              0.935
 Vibration    23          0.780              1.434              0.903
 Vibration    24          0.802              1.379              0.821
 Vibration    25          0.805              1.372              0.811
 Vibration    26          0.829              1.313              0.733
 Vibration    27          0.850              1.262              0.671
 Vibration    28          0.880              1.195              0.598
 Vibration    29          0.895              1.162              0.566
 Vibration    30          0.925              1.098              0.506
 Vibration    31          0.948              1.052              0.467
 Vibration    32          0.961              1.025              0.444

 Normal termination of Gaussian 09 at Thu Jan 21 18:10:38 2016.
