 Gaussian 09, Revision B.01,
 Gaussian 09:  EM64L-G09RevB.01 12-Aug-2010

 -------------------------------------------------
 # freq=raman b3lyp/6-31+g(2d,p) geom=connectivity
 -------------------------------------------------

 -----------------
 400 8366/8366.com
 -----------------
 Symbolic Z-matrix:
 Charge =  0 Multiplicity = 1

                         Standard orientation:
 ---------------------------------------------------------------------
 Center     Atomic      Atomic             Coordinates (Angstroms)
 Number     Number       Type             X           Y           Z
 ---------------------------------------------------------------------
      1          8           0       -5.118948   -0.401057    0.328224
      2          6           0       -3.794877   -0.119104   -0.149506
      3          6           0       -3.245055    1.217677    0.320452
      4          8           0       -4.179973    2.279771    0.080041
      5          1           0       -5.115509    1.938490    0.164699
      6          6           0       -1.865445    1.561457   -0.216591
      7          8           0       -1.343521    2.862720    0.088304
      8          1           0       -0.344849    2.846347    0.037522
      9          6           0       -3.025022   -2.503619   -0.322457
     10          8           0       -4.303689   -3.122565   -0.120271
     11          1           0       -4.278769   -4.120229   -0.181684
     12          6           0       -2.745244   -1.134240    0.274245
     13          8           0       -1.404986   -0.792404   -0.108459
     14          6           0       -0.961019    0.487114    0.365219
     15          8           0        0.287877    0.453011   -0.339962
     16          6           0        1.580322    0.213011    0.235765
     17          6           0        1.997892   -1.162916   -0.258426
     18          8           0        1.083203   -2.146518    0.245212
     19          1           0        0.141665   -1.850711    0.081781
     20          6           0        3.366759   -1.619275    0.218719
     21          8           0        3.801997   -2.815562   -0.444868
     22          1           0        4.678573   -3.022677   -0.009815
     23          6           0        2.476621    2.674779    0.055211
     24          8           0        1.349610    3.314464   -0.560829
     25          1           0        1.488028    4.286458   -0.373059
     26          6           0        2.614993    1.199160   -0.281423
     27          8           0        3.938110    0.907839    0.190793
     28          6           0        4.280426   -0.451386   -0.114009
     29          8           0        5.481673   -0.690037    0.635010
     30          1           0       -5.731281   -0.407487   -0.411105
     31          1           0       -2.284339   -3.173795    0.061149
     32          1           0       -2.874114   -2.425802   -1.378900
     33          1           0       -2.776725   -1.220477    1.340299
     34          1           0       -3.828434   -0.105289   -1.218891
     35          1           0       -3.141969    1.141790    1.382768
     36          1           0       -1.882019    1.448935   -1.280529
     37          1           0       -0.851029    0.532849    1.428568
     38          1           0        6.235424   -0.686931    0.040494
     39          1           0        4.518207   -0.505660   -1.155841
     40          1           0        3.348837   -1.776268    1.276988
     41          1           0        1.975282   -1.174976   -1.328119
     42          1           0        1.532281    0.234772    1.304464
     43          1           0        2.626452    1.114358   -1.347996
     44          1           0        3.366580    3.179394   -0.258215
     45          1           0        2.384768    2.773675    1.116664
 ---------------------------------------------------------------------

 SCF Done:  E(RB3LYP) =  -1297.98326582     A.U. after   13 cycles

 The electronic state is 1-A.
 Alpha  occ. eigenvalues --  -19.18802 -19.18533 -19.18211 -19.17450 -19.17431
 Alpha  occ. eigenvalues --  -19.17244 -19.16753 -19.15962 -19.14782 -19.14061
 Alpha  occ. eigenvalues --  -19.13520 -10.31182 -10.29828 -10.26034 -10.25750
 Alpha  occ. eigenvalues --  -10.25494 -10.25461 -10.25048 -10.24722 -10.24621
 Alpha  occ. eigenvalues --  -10.24273 -10.24014 -10.23995  -1.10565  -1.09065
 Alpha  occ. eigenvalues --   -1.05407  -1.05252  -1.03795  -1.03690  -1.02494
 Alpha  occ. eigenvalues --   -1.02168  -1.01812  -1.00457  -1.00035  -0.82549
 Alpha  occ. eigenvalues --   -0.80890  -0.79207  -0.78569  -0.72075  -0.69898
 Alpha  occ. eigenvalues --   -0.67272  -0.64822  -0.62892  -0.62417  -0.61496
 Alpha  occ. eigenvalues --   -0.60550  -0.56207  -0.56028  -0.54961  -0.54655
 Alpha  occ. eigenvalues --   -0.53969  -0.53762  -0.52595  -0.51873  -0.51268
 Alpha  occ. eigenvalues --   -0.50922  -0.49792  -0.49426  -0.48947  -0.46593
 Alpha  occ. eigenvalues --   -0.45926  -0.45135  -0.44424  -0.43435  -0.43149
 Alpha  occ. eigenvalues --   -0.42287  -0.41752  -0.41219  -0.40617  -0.39667
 Alpha  occ. eigenvalues --   -0.39230  -0.38315  -0.37008  -0.36096  -0.35582
 Alpha  occ. eigenvalues --   -0.35330  -0.34714  -0.34414  -0.33848  -0.33743
 Alpha  occ. eigenvalues --   -0.32356  -0.31169  -0.30844  -0.30468  -0.29793
 Alpha  occ. eigenvalues --   -0.29451  -0.28814  -0.28605  -0.27413  -0.26803
 Alpha  occ. eigenvalues --   -0.26383
 Alpha virt. eigenvalues --   -0.01988  -0.01807  -0.01498  -0.00352   0.00234
 Alpha virt. eigenvalues --    0.01000   0.01864   0.02147   0.02729   0.03230
 Alpha virt. eigenvalues --    0.03915   0.04464   0.04529   0.05043   0.05730

 Mulliken atomic charges:
              1
     1  O   -0.541399
     2  C   -0.249991
     3  C    0.349423
     4  O   -0.576155
     5  H    0.339871
     6  C    0.148451
     7  O   -0.570949
     8  H    0.401810
     9  C   -0.251840
    10  O   -0.551221
    11  H    0.348671
    12  C    0.199884
    13  O   -0.177952
    14  C   -0.047091
    15  O   -0.259382
    16  C    0.272934
    17  C    0.244609
    18  O   -0.591076
    19  H    0.382427
    20  C   -0.027915
    21  O   -0.522182
    22  H    0.335943
    23  C   -0.226796
    24  O   -0.537458
    25  H    0.351158
    26  C   -0.147304
    27  O   -0.244518
    28  C    0.184852
    29  O   -0.540809
    30  H    0.348194
    31  H    0.139039
    32  H    0.142693
    33  H    0.112405
    34  H    0.116623
    35  H    0.105061
    36  H    0.125938
    37  H    0.142358
    38  H    0.330590
    39  H    0.126545
    40  H    0.142200
    41  H    0.130501
    42  H    0.119529
    43  H    0.121773
    44  H    0.149518
    45  H    0.151040
 Sum of Mulliken atomic charges =   0.00000

 Dipole moment (field-independent basis, Debye):
    X=              2.1094    Y=             -0.3464    Z=             -1.1063  Tot=              2.4070
 Quadrupole moment (field-independent basis, Debye-Ang):
   XX=           -119.8167   YY=           -138.1786   ZZ=           -138.1010
   XY=             16.7457   XZ=              1.2081   YZ=              1.4049

  Exact polarizability: 235.636  -0.633 198.370   1.103   0.929 143.681
 Approx polarizability: 277.220   0.600 258.808   2.593   1.053 238.194

 ******    6 imaginary frequencies (negative Signs) ******

                     1                      2                      3
                     A                      A                      A
 Frequencies --  -282.1686              -240.9804              -224.1237
 Red. masses --     1.7189                 1.2329                 1.8826
 Frc consts  --     0.0806                 0.0422                 0.0557
 IR Inten    --    14.6884                96.9677                 3.0218
 Raman Activ --     0.0800                 0.7964                 0.1602

                     4                      5                      6
                     A                      A                      A
 Frequencies --  -122.2166               -68.4729               -57.9172
 Red. masses --     1.2553                 5.6000                 6.6620
 Frc consts  --     0.0110                 0.0155                 0.0132
 IR Inten    --    86.5050                 2.9287                 1.2743
 Raman Activ --     0.9405                 0.0677                 0.0202

                     7                      8                      9
                     A                      A                      A
 Frequencies --    41.3809                58.1659                69.7403
 Red. masses --     6.3781                 6.9734                 5.9840
 Frc consts  --     0.0064                 0.0139                 0.0171
 IR Inten    --     4.8965                 0.5241                 3.7463
 Raman Activ --     0.0859                 0.0625                 0.3336

                    10                     11                     12
                     A                      A                      A
 Frequencies --    90.3388                92.0716               100.7589
 Red. masses --     6.1982                 6.5650                 5.5498
 Frc consts  --     0.0298                 0.0328                 0.0332
 IR Inten    --     1.0098                 3.0255                 6.3168
 Raman Activ --     0.0907                 0.0378                 0.0594

                    13                     14                     15
                     A                      A                      A
 Frequencies --   144.2885               164.0782               184.8901
 Red. masses --     5.9252                 6.5098                 6.3154
 Frc consts  --     0.0727                 0.1033                 0.1272
 IR Inten    --     4.5840                 1.7814                 0.1118
 Raman Activ --     0.3282                 0.2345                 1.0178

                    16                     17                     18
                     A                      A                      A
 Frequencies --   191.9348               231.6496               269.1393
 Red. masses --     7.5743                 6.2001                 4.2250
 Frc consts  --     0.1644                 0.1960                 0.1803
 IR Inten    --     0.0793                 1.5429                19.6741
 Raman Activ --     1.6310                 1.0989                 0.2547

                    19                     20                     21
                     A                      A                      A
 Frequencies --   274.3729               295.5175               303.8668
 Red. masses --     4.8799                 4.5101                 5.7718
 Frc consts  --     0.2164                 0.2321                 0.3140
 IR Inten    --     0.1270                 0.2448                 1.9038
 Raman Activ --     0.1389                 0.0621                 0.6227

                    22                     23                     24
                     A                      A                      A
 Frequencies --   311.7074               316.1243               318.7453
 Red. masses --     5.3133                 5.0411                 6.4513
 Frc consts  --     0.3042                 0.2968                 0.3862
 IR Inten    --     1.2607                 2.3825                 4.6340
 Raman Activ --     0.5625                 2.0611                 1.8796

                    25                     26                     27
                     A                      A                      A
 Frequencies --   328.9644               352.7507               370.7307
 Red. masses --     6.7698                 4.6143                 7.1612
 Frc consts  --     0.4316                 0.3383                 0.5799
 IR Inten    --     6.4209                 4.0413                 1.2195
 Raman Activ --     2.8153                 0.1980                 4.6262

                    28                     29                     30
                     A                      A                      A
 Frequencies --   386.3875               409.7315               433.3637
 Red. masses --     3.8146                 5.9061                 5.5549
 Frc consts  --     0.3355                 0.5842                 0.6147
 IR Inten    --    10.9784                 2.5947                 2.5512
 Raman Activ --     0.9660                 6.5884                 2.1937

                    31                     32                     33
                     A                      A                      A
 Frequencies --   450.3151               472.8823               483.2191
 Red. masses --     4.9143                 4.0196                 4.3135
 Frc consts  --     0.5871                 0.5296                 0.5934
 IR Inten    --     0.6602                 4.0357                15.3370
 Raman Activ --     1.9834                 4.5157                 0.8498

                    34                     35                     36
                     A                      A                      A
 Frequencies --   507.8585               518.6938               569.6700
 Red. masses --     4.1203                 3.2105                 3.7494
 Frc consts  --     0.6261                 0.5089                 0.7169
 IR Inten    --     9.9012                 2.3094                24.7644
 Raman Activ --     0.4692                 4.8276                 1.4896

                    37                     38                     39
                     A                      A                      A
 Frequencies --   588.0992               594.5844               613.7469
 Red. masses --     2.8933                 5.3275                 3.7676
 Frc consts  --     0.5896                 1.1097                 0.8362
 IR Inten    --    34.3944                14.0091                 1.0178
 Raman Activ --     0.3659                 0.7331                 0.3202

                    40                     41                     42
                     A                      A                      A
 Frequencies --   626.5032               651.0489               700.1533
 Red. masses --     4.5770                 1.1257                 4.9055
 Frc consts  --     1.0585                 0.2811                 1.4168
 IR Inten    --    34.1345               112.7715                 9.4316
 Raman Activ --     2.3501                 2.1195                 2.2309

                    43                     44                     45
                     A                      A                      A
 Frequencies --   731.3761               756.4967               761.4600
 Red. masses --     1.0619                 1.0974                 1.0824
 Frc consts  --     0.3347                 0.3700                 0.3698
 IR Inten    --    76.1565                88.4258                 1.2599
 Raman Activ --     1.5475                 1.7498                 0.3753

                    46                     47                     48
                     A                      A                      A
 Frequencies --   784.3854               844.6364               849.1283
 Red. masses --     1.0941                 1.1746                 1.5436
 Frc consts  --     0.3966                 0.4937                 0.6557
 IR Inten    --   171.0278                70.1362                20.9978
 Raman Activ --     1.2864                 1.3418                 0.8554

                    49                     50                     51
                     A                      A                      A
 Frequencies --   868.5998               894.4933               965.1042
 Red. masses --     1.6910                 5.7878                 5.5211
 Frc consts  --     0.7517                 2.7285                 3.0299
 IR Inten    --    27.4073                57.2775                58.2233
 Raman Activ --     1.2544                 1.7408                 1.9799

                    52                     53                     54
                     A                      A                      A
 Frequencies --   973.2153               975.1681               985.3738
 Red. masses --     5.6537                 4.7001                 7.1939
 Frc consts  --     3.1550                 2.6334                 4.1154
 IR Inten    --   170.5882                47.8846                44.8093
 Raman Activ --     0.6973                 2.3168                 1.2348

                    55                     56                     57
                     A                      A                      A
 Frequencies --  1003.6146              1008.2062              1025.7785
 Red. masses --     5.1879                 5.4624                 6.7303
 Frc consts  --     3.0788                 3.2714                 4.1724
 IR Inten    --   368.2329                69.3331               132.9748
 Raman Activ --     1.3851                 5.6029                 1.6270

                    58                     59                     60
                     A                      A                      A
 Frequencies --  1036.1459              1055.3784              1060.7728
 Red. masses --     4.9509                 5.8307                 4.9639
 Frc consts  --     3.1317                 3.8264                 3.2909
 IR Inten    --   221.9640               150.8145                95.9313
 Raman Activ --     2.3873                 8.6322                 6.0114

                    61                     62                     63
                     A                      A                      A
 Frequencies --  1068.2489              1070.5513              1082.9105
 Red. masses --     3.9513                 3.2446                 3.5178
 Frc consts  --     2.6566                 2.1909                 2.4305
 IR Inten    --    40.4819                 2.4753                 4.7047
 Raman Activ --     3.3756                20.7964                 8.0278

                    64                     65                     66
                     A                      A                      A
 Frequencies --  1093.6280              1102.0261              1105.2657
 Red. masses --     2.3293                 2.3038                 2.9185
 Frc consts  --     1.6414                 1.6484                 2.1006
 IR Inten    --   130.1225                13.4558                28.9873
 Raman Activ --     3.0053                 6.9287                 3.5595

                    67                     68                     69
                     A                      A                      A
 Frequencies --  1107.2437              1113.7362              1130.6466
 Red. masses --     2.8350                 2.6902                 3.3437
 Frc consts  --     2.0478                 1.9661                 2.5185
 IR Inten    --     4.7033                84.5169                54.6281
 Raman Activ --    11.8115                 1.8934                13.0504

                    70                     71                     72
                     A                      A                      A
 Frequencies --  1144.0603              1153.5287              1158.5184
 Red. masses --     2.2228                 1.9688                 2.6043
 Frc consts  --     1.7142                 1.5435                 2.0594
 IR Inten    --     2.7960                 2.0785                21.3347
 Raman Activ --     1.3217                 4.7119                 4.2720

                    73                     74                     75
                     A                      A                      A
 Frequencies --  1160.2137              1172.0628              1174.0691
 Red. masses --     2.0339                 1.8065                 1.6637
 Frc consts  --     1.6131                 1.4622                 1.3512
 IR Inten    --    25.9067                 3.5273                 8.2400
 Raman Activ --     3.2570                 2.4151                 1.8187

                    76                     77                     78
                     A                      A                      A
 Frequencies --  1195.5924              1200.3932              1209.6704
 Red. masses --     1.3981                 1.2422                 1.4079
 Frc consts  --     1.1775                 1.0546                 1.2138
 IR Inten    --     2.4784                22.8231                16.1251
 Raman Activ --     2.3344                 2.2046                 0.5985

                    79                     80                     81
                     A                      A                      A
 Frequencies --  1229.9919              1238.8651              1259.5625
 Red. masses --     1.2554                 1.2635                 1.2325
 Frc consts  --     1.1190                 1.1425                 1.1521
 IR Inten    --     7.2811                16.9821                10.9175
 Raman Activ --     1.6621                 0.9938                 0.1908

                    82                     83                     84
                     A                      A                      A
 Frequencies --  1265.6802              1273.3732              1284.6625
 Red. masses --     1.3029                 1.1815                 1.3431
 Frc consts  --     1.2297                 1.1288                 1.3060
 IR Inten    --    12.8542                 9.1901                18.9115
 Raman Activ --     3.1105                 5.5038                 6.0168

                    85                     86                     87
                     A                      A                      A
 Frequencies --  1286.7502              1289.7515              1305.0701
 Red. masses --     1.3179                 1.2909                 1.2187
 Frc consts  --     1.2857                 1.2651                 1.2229
 IR Inten    --     9.4648                33.8320                18.3086
 Raman Activ --     1.2143                 1.4326                 3.3155

                    88                     89                     90
                     A                      A                      A
 Frequencies --  1310.6622              1315.1646              1327.1730
 Red. masses --     1.2661                 1.3495                 1.2204
 Frc consts  --     1.2815                 1.3753                 1.2665
 IR Inten    --     0.6506                27.7558                41.9343
 Raman Activ --     3.4455                 2.0314                11.6877

                    91                     92                     93
                     A                      A                      A
 Frequencies --  1329.4658              1331.9344              1339.3432
 Red. masses --     1.2099                 1.1823                 1.3933
 Frc consts  --     1.2600                 1.2358                 1.4726
 IR Inten    --    37.2784                31.1228                 8.2989
 Raman Activ --     5.4956                 2.7108                10.0803

                    94                     95                     96
                     A                      A                      A
 Frequencies --  1347.6288              1357.6160              1364.9115
 Red. masses --     1.2998                 1.1849                 1.5083
 Frc consts  --     1.3908                 1.2867                 1.6555
 IR Inten    --    16.2033                36.1167                11.5951
 Raman Activ --     3.0320                 2.1796                 5.2947

                    97                     98                     99
                     A                      A                      A
 Frequencies --  1383.2485              1392.9440              1402.2385
 Red. masses --     1.4669                 1.6293                 1.4391
 Frc consts  --     1.6537                 1.8626                 1.6672
 IR Inten    --     4.8940                 5.0334                 8.1688
 Raman Activ --     1.8912                 8.8429                 4.7329

                   100                    101                    102
                     A                      A                      A
 Frequencies --  1422.5188              1440.3417              1456.9469
 Red. masses --     1.4705                 1.4006                 1.2886
 Frc consts  --     1.7532                 1.7119                 1.6116
 IR Inten    --    41.2858                10.7671                18.0834
 Raman Activ --     1.2860                 2.5318                 1.5434

                   103                    104                    105
                     A                      A                      A
 Frequencies --  1469.3327              1473.3077              1476.9196
 Red. masses --     1.3519                 1.0975                 1.0790
 Frc consts  --     1.7196                 1.4036                 1.3868
 IR Inten    --    46.0805                 5.5539                11.8400
 Raman Activ --     1.4409                 3.5111                 5.6897

                   106                    107                    108
                     A                      A                      A
 Frequencies --  1486.8686              1491.4832              3255.2273
 Red. masses --     1.3627                 1.3472                 1.0639
 Frc consts  --     1.7750                 1.7657                 6.6424
 IR Inten    --    38.0334                30.8908                26.6084
 Raman Activ --     2.0259                 0.5809                18.1922

                   109                    110                    111
                     A                      A                      A
 Frequencies --  3256.9216              3259.2037              3269.4298
 Red. masses --     1.0731                 1.0591                 1.0819
 Frc consts  --     6.7068                 6.6286                 6.8134
 IR Inten    --    19.3947                85.5064                 7.1679
 Raman Activ --   112.1827               101.9307                80.6729

                   112                    113                    114
                     A                      A                      A
 Frequencies --  3271.7212              3275.6318              3278.8405
 Red. masses --     1.0816                 1.0844                 1.0800
 Frc consts  --     6.8213                 6.8552                 6.8410
 IR Inten    --    28.4248                14.9790               169.1868
 Raman Activ --    12.3585                21.5739               176.0106

                   115                    116                    117
                     A                      A                      A
 Frequencies --  3283.2298              3286.5845              3292.8033
 Red. masses --     1.0821                 1.0817                 1.0797
 Frc consts  --     6.8726                 6.8839                 6.8974
 IR Inten    --    17.9048               114.0083                82.6716
 Raman Activ --   246.2675                97.6041               103.0417

                   118                    119                    120
                     A                      A                      A
 Frequencies --  3294.6765              3302.6946              3305.4988
 Red. masses --     1.0856                 1.0760                 1.0872
 Frc consts  --     6.9428                 6.9150                 6.9988
 IR Inten    --    10.4774               530.3877                21.7347
 Raman Activ --     7.7269                34.1199                11.1550

                   121                    122                    123
                     A                      A                      A
 Frequencies --  3308.6937              3310.8776              3320.2577
 Red. masses --     1.0879                 1.0955                 1.1079
 Frc consts  --     7.0172                 7.0752                 7.1963
 IR Inten    --   169.5488               179.7893                35.4777
 Raman Activ --    62.1671                68.6977                54.7535

                   124                    125                    126
                     A                      A                      A
 Frequencies --  3369.2476              3369.3242              3369.7877
 Red. masses --     1.0652                 1.0666                 1.0678
 Frc consts  --     7.1245                 7.1341                 7.1441
 IR Inten    --    41.0270                19.5482                67.1416
 Raman Activ --   110.0856                74.7734               239.3697

                   127                    128                    129
                     A                      A                      A
 Frequencies --  3378.5839              3886.2901              3890.3269
 Red. masses --     1.0661                 1.0674                 1.0677
 Frc consts  --     7.1697                 9.4986                 9.5211
 IR Inten    --    53.0637                66.1091                85.9460
 Raman Activ --   125.5534               116.3863                90.3916

 - Thermochemistry -
 -------------------
 Temperature   298.150 Kelvin.  Pressure   1.00000 Atm.
 Atom     1 has atomic number  8 and mass  15.99491

 Molecular mass:   342.11621 amu.
 Principal axes and moments of inertia in atomic units:
                           1         2         3
     Eigenvalues --  4406.72108********************
           X            0.99997   0.00786   0.00008
           Y           -0.00786   0.99997   0.00234
           Z           -0.00007  -0.00234   1.00000
 This molecule is an asymmetric top.
 Rotational symmetry number  1.
 Warning -- assumption of classical behavior for rotation
           may cause significant error
 Rotational temperatures (Kelvin)      0.01965     0.00691     0.00522
 Rotational constants (GHZ):           0.40954     0.14395     0.10882
    6 imaginary frequencies ignored.
 Zero-point vibrational energy     973334.3 (Joules/Mol)
                                  232.63247 (Kcal/Mol)
 Warning -- explicit consideration of  33 degrees of freedom as
           vibrations may cause significant error
 Vibrational temperatures:     59.54    83.69   100.34   129.98   132.47
          (Kelvin)            144.97   207.60   236.07   266.02   276.15
                              333.29   387.23   394.76   425.18   437.20
                              448.48   454.83   458.60   473.31   507.53
                              533.40   555.92   589.51   623.51   647.90
                              680.37   695.24   730.69   746.28   819.63
                              846.14   855.47   883.04   901.40   936.71
                             1007.36  1052.29  1088.43  1095.57  1128.55
                             1215.24  1221.70  1249.72  1286.97  1388.57
                             1400.24  1403.05  1417.73  1443.98  1450.58
                             1475.86  1490.78  1518.45  1526.21  1536.97
                             1540.28  1558.06  1573.48  1585.57  1590.23
                             1593.07  1602.42  1626.75  1646.05  1659.67
                             1666.85  1669.29  1686.33  1689.22  1720.19
                             1727.10  1740.44  1769.68  1782.45  1812.23
                             1821.03  1832.10  1848.34  1851.34  1855.66
                             1877.70  1885.75  1892.23  1909.50  1912.80
                             1916.35  1927.01  1938.93  1953.30  1963.80
                             1990.18  2004.13  2017.51  2046.68  2072.33
                             2096.22  2114.04  2119.76  2124.96  2139.27
                             2145.91  4683.54  4685.98  4689.26  4703.97
                             4707.27  4712.90  4717.51  4723.83  4728.66
                             4737.60  4740.30  4751.83  4755.87  4760.47
                             4763.61  4777.10  4847.59  4847.70  4848.37
                             4861.02  5591.50  5597.31

 Zero-point correction=                           0.370723 (Hartree/Particle)
 Thermal correction to Energy=                    0.390006
 Thermal correction to Enthalpy=                  0.390951
 Thermal correction to Gibbs Free Energy=         0.323660
 Sum of electronic and zero-point Energies=          -1297.612542
 Sum of electronic and thermal Energies=             -1297.593259
 Sum of electronic and thermal Enthalpies=           -1297.592315
 Sum of electronic and thermal Free Energies=        -1297.659606

                     E (Thermal)             CV                S
                      KCal/Mol        Cal/Mol-Kelvin    Cal/Mol-Kelvin
 Total                  244.733             78.166            141.625
 Electronic               0.000              0.000              0.000
 Translational            0.889              2.981             43.384
 Rotational               0.889              2.981             35.170
 Vibrational            242.955             72.205             63.070
 Vibration     1          0.594              1.981              5.192
 Vibration     2          0.596              1.974              4.518
 Vibration     3          0.598              1.969              4.161
 Vibration     4          0.602              1.956              3.653
 Vibration     5          0.602              1.955              3.616
 Vibration     6          0.604              1.949              3.440
 Vibration     7          0.616              1.909              2.746
 Vibration     8          0.623              1.887              2.502
 Vibration     9          0.631              1.860              2.278
 Vibration    10          0.634              1.851              2.209
 Vibration    11          0.653              1.793              1.866
 Vibration    12          0.674              1.730              1.602
 Vibration    13          0.677              1.721              1.569
 Vibration    14          0.690              1.682              1.442
 Vibration    15          0.695              1.666              1.396
 Vibration    16          0.700              1.651              1.353
 Vibration    17          0.703              1.643              1.330
 Vibration    18          0.705              1.638              1.317
 Vibration    19          0.712              1.618              1.265
 Vibration    20          0.729              1.570              1.154
 Vibration    21          0.743              1.532              1.077
 Vibration    22          0.755              1.499              1.014
 Vibration    23          0.774              1.449              0.928
 Vibration    24          0.794              1.398              0.848
 Vibration    25          0.809              1.360              0.795
 Vibration    26          0.830              1.310              0.730
 Vibration    27          0.839              1.287              0.701
 Vibration    28          0.863              1.233              0.639
 Vibration    29          0.874              1.209              0.613
 Vibration    30          0.926              1.097              0.505
 Vibration    31          0.945              1.057              0.471
 Vibration    32          0.952              1.043              0.459
 Vibration    33          0.973              1.003              0.427

 Normal termination of Gaussian 09 at Sun Mar 27 02:17:29 2016.
