 Gaussian 09, Revision B.01,
 Gaussian 09:  EM64L-G09RevB.01 12-Aug-2010

 -------------------------------------------------
 # freq=raman b3lyp/6-31+g(2d,p) geom=connectivity
 -------------------------------------------------

 -----------------
 550 5794/5794.com
 -----------------
 Symbolic Z-matrix:
 Charge =  0 Multiplicity = 1

                         Standard orientation:
 ---------------------------------------------------------------------
 Center     Atomic      Atomic             Coordinates (Angstroms)
 Number     Number       Type             X           Y           Z
 ---------------------------------------------------------------------
      1          8           0       -4.946088   -0.405477    0.676326
      2          6           0       -3.857168   -0.148674   -0.222297
      3          6           0       -3.326350    1.161046    0.339351
      4          8           0       -4.245226    2.261485    0.375551
      5          1           0       -5.147271    1.948463    0.674297
      6          6           0       -1.982797    1.619972   -0.203305
      7          8           0       -1.604571    2.801539    0.517409
      8          1           0       -2.293498    3.500162    0.319479
      9          6           0       -3.168105   -2.552076   -0.773224
     10          8           0       -2.215247   -3.614550   -0.630827
     11          1           0       -2.715044   -4.473739   -0.743014
     12          6           0       -2.778328   -1.217634   -0.157890
     13          8           0       -1.556887   -0.720205   -0.723134
     14          6           0       -1.052591    0.430356   -0.028915
     15          8           0        0.164647    0.593779   -0.771192
     16          6           0        1.313475    0.425999    0.072712
     17          6           0        1.740359   -1.024967    0.229353
     18          8           0        0.987432   -1.631863    1.289103
     19          1           0        0.009881   -1.436016    1.215756
     20          6           0        3.131770   -1.492263    0.622919
     21          8           0        3.322409   -2.905325    0.464951
     22          1           0        2.597148   -3.071648    1.132691
     23          6           0        2.281972    2.542367    0.183977
     24          8           0        2.941859    3.607590   -0.515581
     25          1           0        2.818027    3.753850   -1.497647
     26          6           0        2.503214    1.192847   -0.479757
     27          8           0        3.819598    0.724605   -0.151918
     28          6           0        3.980219   -0.688361   -0.349228
     29          8           0        5.346846   -0.854883    0.055369
     30          1           0        5.926371   -0.487239   -0.615889
     31          1           0        3.823132   -0.977449   -1.367389
     32          1           0        3.347822   -1.199835    1.629252
     33          1           0        1.483939   -1.526388   -0.680441
     34          1           0        1.079890    0.815797    1.041420
     35          1           0        2.408151    1.292517   -1.540855
     36          1           0        1.231910    2.745756    0.214027
     37          1           0        2.656235    2.501437    1.185552
     38          1           0       -5.758260   -0.054975    0.303331
     39          1           0       -3.340256   -2.398287   -1.818026
     40          1           0       -4.087224   -2.868196   -0.325799
     41          1           0       -2.588003   -1.401115    0.878938
     42          1           0       -4.210698   -0.018451   -1.223775
     43          1           0       -3.135439    0.942140    1.369173
     44          1           0       -2.077326    1.850580   -1.243874
     45          1           0       -0.861674    0.217402    1.002153
 ---------------------------------------------------------------------

 SCF Done:  E(RB3LYP) =  -1297.95644053     A.U. after   14 cycles

 The electronic state is 1-A.
 Alpha  occ. eigenvalues --  -19.19368 -19.18910 -19.18665 -19.18400 -19.17193
 Alpha  occ. eigenvalues --  -19.17113 -19.16175 -19.16148 -19.15446 -19.14599
 Alpha  occ. eigenvalues --  -19.13751 -10.31949 -10.28427 -10.27510 -10.27065
 Alpha  occ. eigenvalues --  -10.26253 -10.25876 -10.25415 -10.25327 -10.23923
 Alpha  occ. eigenvalues --  -10.23780 -10.23706 -10.22729  -1.10851  -1.08094
 Alpha  occ. eigenvalues --   -1.07256  -1.05392  -1.04783  -1.04082  -1.03290
 Alpha  occ. eigenvalues --   -1.02968  -1.01624  -1.00522  -0.99374  -0.82684
 Alpha  occ. eigenvalues --   -0.82120  -0.79117  -0.78048  -0.72335  -0.69534
 Alpha  occ. eigenvalues --   -0.67494  -0.65799  -0.64161  -0.63144  -0.62308
 Alpha  occ. eigenvalues --   -0.59590  -0.57362  -0.56664  -0.55464  -0.54964
 Alpha  occ. eigenvalues --   -0.54378  -0.53452  -0.52967  -0.51940  -0.50963
 Alpha  occ. eigenvalues --   -0.50671  -0.49973  -0.48191  -0.47855  -0.46925
 Alpha  occ. eigenvalues --   -0.45533  -0.45414  -0.45138  -0.43930  -0.43440
 Alpha  occ. eigenvalues --   -0.43075  -0.42948  -0.40814  -0.40317  -0.39400
 Alpha  occ. eigenvalues --   -0.38862  -0.38685  -0.37769  -0.37593  -0.37035
 Alpha  occ. eigenvalues --   -0.36054  -0.35788  -0.34721  -0.34231  -0.33763
 Alpha  occ. eigenvalues --   -0.31626  -0.31177  -0.30891  -0.30185  -0.29734
 Alpha  occ. eigenvalues --   -0.29592  -0.29346  -0.29130  -0.27921  -0.26820
 Alpha  occ. eigenvalues --   -0.26287
 Alpha virt. eigenvalues --   -0.04099  -0.02013  -0.00945  -0.00456   0.00299
 Alpha virt. eigenvalues --    0.00893   0.01714   0.02063   0.02800   0.03373
 Alpha virt. eigenvalues --    0.03742   0.03834   0.04638   0.05148   0.05512

 Mulliken atomic charges:
              1
     1  O   -0.543587
     2  C   -0.096528
     3  C    0.377421
     4  O   -0.609954
     5  H    0.325184
     6  C   -0.151731
     7  O   -0.528874
     8  H    0.361302
     9  C   -0.474241
    10  O   -0.483909
    11  H    0.336620
    12  C    0.341898
    13  O   -0.229779
    14  C    0.105593
    15  O   -0.209747
    16  C    0.252122
    17  C    0.519382
    18  O   -0.566433
    19  H    0.323839
    20  C   -0.239415
    21  O   -0.494414
    22  H    0.348941
    23  C   -0.246368
    24  O   -0.536204
    25  H    0.327554
    26  C   -0.241231
    27  O   -0.261604
    28  C    0.258148
    29  O   -0.503690
    30  H    0.319150
    31  H    0.132511
    32  H    0.145867
    33  H    0.150741
    34  H    0.120822
    35  H    0.109888
    36  H    0.173064
    37  H    0.164399
    38  H    0.326791
    39  H    0.142062
    40  H    0.154910
    41  H    0.107318
    42  H    0.126527
    43  H    0.119956
    44  H    0.133024
    45  H    0.112677
 Sum of Mulliken atomic charges =   0.00000

 Dipole moment (field-independent basis, Debye):
    X=             -9.4675    Y=             -0.1860    Z=             -2.5626  Tot=              9.8099
 Quadrupole moment (field-independent basis, Debye-Ang):
   XX=           -123.6026   YY=           -147.0784   ZZ=           -134.1606
   XY=              7.5334   XZ=             -5.2917   YZ=             -2.6297

  Exact polarizability: 222.052  -2.933 199.873  -3.233  -1.382 148.298
 Approx polarizability: 267.995  -3.837 259.784  -3.445  -2.411 244.933

 ******    7 imaginary frequencies (negative Signs) ******

                     1                      2                      3
                     A                      A                      A
 Frequencies --  -252.1822              -173.9844              -136.3756
 Red. masses --     1.7456                 1.3787                 1.1557
 Frc consts  --     0.0654                 0.0246                 0.0127
 IR Inten    --     3.4183               112.3907               113.2482
 Raman Activ --     0.0910                 1.2059                 1.4814

                     4                      5                      6
                     A                      A                      A
 Frequencies --  -112.7598               -82.5751               -67.6705
 Red. masses --     5.0543                 5.3670                 4.1599
 Frc consts  --     0.0379                 0.0216                 0.0112
 IR Inten    --     2.4142                 0.4447                 0.7109
 Raman Activ --     0.2283                 0.0393                 0.0879

                     7                      8                      9
                     A                      A                      A
 Frequencies --   -35.6155                38.8202                50.9034
 Red. masses --     6.3923                 6.0597                 4.2355
 Frc consts  --     0.0048                 0.0054                 0.0065
 IR Inten    --     0.8532                 2.7128                 2.9426
 Raman Activ --     0.0571                 0.1994                 0.1803

                    10                     11                     12
                     A                      A                      A
 Frequencies --    64.6416                82.8032               100.2724
 Red. masses --     5.7906                 6.1096                 3.9339
 Frc consts  --     0.0143                 0.0247                 0.0233
 IR Inten    --     4.0694                 0.2671                 2.2785
 Raman Activ --     0.2099                 0.0917                 0.2636

                    13                     14                     15
                     A                      A                      A
 Frequencies --   121.8549               138.5019               164.2125
 Red. masses --     4.9425                 5.5175                 5.1544
 Frc consts  --     0.0432                 0.0624                 0.0819
 IR Inten    --     1.3265                 1.7150                 2.7537
 Raman Activ --     0.3504                 0.3354                 0.5140

                    16                     17                     18
                     A                      A                      A
 Frequencies --   200.5077               217.2868               258.7200
 Red. masses --     6.2127                 4.7194                 4.4692
 Frc consts  --     0.1472                 0.1313                 0.1763
 IR Inten    --     1.6632                 0.9702                 6.2176
 Raman Activ --     1.5092                 0.8215                 0.0826

                    19                     20                     21
                     A                      A                      A
 Frequencies --   268.0018               278.4509               301.8080
 Red. masses --     5.6767                 4.9609                 4.8170
 Frc consts  --     0.2402                 0.2266                 0.2585
 IR Inten    --     2.8087                 8.7175                 1.4557
 Raman Activ --     0.1661                 1.7159                 0.2401

                    22                     23                     24
                     A                      A                      A
 Frequencies --   319.6881               333.0603               342.4206
 Red. masses --     5.7454                 5.5968                 6.0000
 Frc consts  --     0.3460                 0.3658                 0.4145
 IR Inten    --    10.1638                 4.2518                 7.2935
 Raman Activ --     1.7271                 2.5497                 1.1611

                    25                     26                     27
                     A                      A                      A
 Frequencies --   354.6908               363.4769               388.4222
 Red. masses --     5.1262                 5.3724                 4.3485
 Frc consts  --     0.3800                 0.4182                 0.3865
 IR Inten    --     8.9334                 4.6206                 1.4700
 Raman Activ --     3.7475                 0.4435                 0.1006

                    28                     29                     30
                     A                      A                      A
 Frequencies --   412.4336               435.5272               440.1457
 Red. masses --     4.0688                 5.0296                 6.5513
 Frc consts  --     0.4078                 0.5621                 0.7478
 IR Inten    --     8.6707                10.3284                 6.5162
 Raman Activ --     4.4304                 5.0673                 0.4425

                    31                     32                     33
                     A                      A                      A
 Frequencies --   452.8734               489.0578               501.1287
 Red. masses --     4.5608                 4.1749                 3.8500
 Frc consts  --     0.5511                 0.5883                 0.5697
 IR Inten    --     3.9031                18.3673                10.7728
 Raman Activ --     1.4790                 0.5121                 1.0488

                    34                     35                     36
                     A                      A                      A
 Frequencies --   537.8385               548.9739               562.7968
 Red. masses --     4.0878                 3.3654                 2.5515
 Frc consts  --     0.6967                 0.5976                 0.4762
 IR Inten    --    29.5151                 6.3518                36.6423
 Raman Activ --     2.1189                 5.7012                 1.8818

                    37                     38                     39
                     A                      A                      A
 Frequencies --   580.3588               592.0413               600.7698
 Red. masses --     1.6545                 3.4608                 2.9040
 Frc consts  --     0.3283                 0.7147                 0.6175
 IR Inten    --    45.8132                 7.8056                23.6506
 Raman Activ --     1.0446                 0.3115                 0.4780

                    40                     41                     42
                     A                      A                      A
 Frequencies --   610.8824               651.9361               692.1548
 Red. masses --     2.7373                 3.9147                 2.7604
 Frc consts  --     0.6019                 0.9803                 0.7792
 IR Inten    --    44.7928                24.1405                14.5486
 Raman Activ --     0.6022                 0.2591                 0.3822

                    43                     44                     45
                     A                      A                      A
 Frequencies --   700.3311               703.5343               706.2969
 Red. masses --     1.0871                 1.0898                 1.2011
 Frc consts  --     0.3141                 0.3178                 0.3530
 IR Inten    --    79.0567               152.1449                63.5558
 Raman Activ --     3.1186                 1.0534                 1.7343

                    46                     47                     48
                     A                      A                      A
 Frequencies --   719.6387               730.9694               836.2295
 Red. masses --     1.0826                 1.2174                 2.7089
 Frc consts  --     0.3303                 0.3833                 1.1161
 IR Inten    --    50.0744                99.9961                 6.2859
 Raman Activ --     1.2309                 1.5113                 4.6890

                    49                     50                     51
                     A                      A                      A
 Frequencies --   854.8560               938.8122               959.3647
 Red. masses --     2.6613                 6.5839                 6.4065
 Frc consts  --     1.1459                 3.4189                 3.4741
 IR Inten    --     7.1722               151.6145               236.7350
 Raman Activ --     2.5741                 1.7639                 3.6844

                    52                     53                     54
                     A                      A                      A
 Frequencies --   974.1962               983.1704               994.2669
 Red. masses --     6.8017                 4.8870                 5.9527
 Frc consts  --     3.8033                 2.7833                 3.4671
 IR Inten    --   138.4749               101.9436                96.4428
 Raman Activ --     7.9346                 3.1275                 1.1855

                    55                     56                     57
                     A                      A                      A
 Frequencies --  1008.1454              1014.0629              1021.3916
 Red. masses --     4.2819                 5.0003                 4.9188
 Frc consts  --     2.5641                 3.0296                 3.0234
 IR Inten    --    11.2138               273.7525                20.8349
 Raman Activ --     2.3197                 1.4285                 2.9370

                    58                     59                     60
                     A                      A                      A
 Frequencies --  1031.5217              1040.8140              1043.9984
 Red. masses --     2.7628                 5.3302                 3.1095
 Frc consts  --     1.7321                 3.4020                 1.9968
 IR Inten    --   118.5127               174.5468               160.4691
 Raman Activ --     1.2922                 4.0313                13.9835

                    61                     62                     63
                     A                      A                      A
 Frequencies --  1056.2248              1061.5175              1070.5877
 Red. masses --     3.5838                 3.5406                 3.2329
 Frc consts  --     2.3556                 2.3506                 2.1831
 IR Inten    --    39.9879                16.6925                32.0442
 Raman Activ --     2.2692                10.0388                 8.9648

                    64                     65                     66
                     A                      A                      A
 Frequencies --  1076.4647              1091.6297              1095.1412
 Red. masses --     2.4581                 3.1253                 2.2288
 Frc consts  --     1.6782                 2.1943                 1.5749
 IR Inten    --    42.3778                44.2394                64.8394
 Raman Activ --     7.3371                 1.1686                 1.3417

                    67                     68                     69
                     A                      A                      A
 Frequencies --  1104.4392              1112.4291              1130.8215
 Red. masses --     3.4574                 2.3236                 3.0178
 Frc consts  --     2.4847                 1.6942                 2.2737
 IR Inten    --     2.9965                 7.8170                21.4918
 Raman Activ --     5.7008                 5.2185                 1.9784

                    70                     71                     72
                     A                      A                      A
 Frequencies --  1134.4093              1137.7150              1152.2721
 Red. masses --     2.5449                 2.2742                 1.7266
 Frc consts  --     1.9296                 1.7344                 1.3506
 IR Inten    --    53.1573                 0.6252                 5.9535
 Raman Activ --     5.2349                 3.9156                 4.7593

                    73                     74                     75
                     A                      A                      A
 Frequencies --  1155.6598              1167.6785              1177.3262
 Red. masses --     1.9653                 1.9557                 1.7210
 Frc consts  --     1.5465                 1.5711                 1.4055
 IR Inten    --    15.1636                13.6113                14.1765
 Raman Activ --     0.7581                 4.1391                 5.2075

                    76                     77                     78
                     A                      A                      A
 Frequencies --  1195.3386              1200.8871              1220.5388
 Red. masses --     2.1048                 1.4451                 1.3052
 Frc consts  --     1.7719                 1.2279                 1.1456
 IR Inten    --     8.1716                11.6380                10.6137
 Raman Activ --     1.9539                 1.7551                 2.1039

                    79                     80                     81
                     A                      A                      A
 Frequencies --  1234.9613              1238.3061              1245.3359
 Red. masses --     1.2183                 1.2086                 1.3814
 Frc consts  --     1.0948                 1.0919                 1.2623
 IR Inten    --    27.3136                18.9217                 1.7880
 Raman Activ --     3.8582                 2.0179                 1.7866

                    82                     83                     84
                     A                      A                      A
 Frequencies --  1251.8779              1267.5920              1269.4940
 Red. masses --     1.2964                 1.1769                 1.2670
 Frc consts  --     1.1971                 1.1142                 1.2031
 IR Inten    --    12.7253                 3.7724                14.1275
 Raman Activ --     0.1612                 2.5131                 3.0639

                    85                     86                     87
                     A                      A                      A
 Frequencies --  1279.2851              1286.9016              1305.5650
 Red. masses --     1.2474                 1.2599                 1.3826
 Frc consts  --     1.2028                 1.2293                 1.3885
 IR Inten    --    11.1734                 7.3972                14.0413
 Raman Activ --     2.2650                 1.1666                 6.8122

                    88                     89                     90
                     A                      A                      A
 Frequencies --  1309.9374              1315.8293              1325.0624
 Red. masses --     1.2823                 1.2837                 1.2129
 Frc consts  --     1.2964                 1.3095                 1.2547
 IR Inten    --    12.6498                35.1644                98.5055
 Raman Activ --     1.6463                 5.4409                 4.5870

                    91                     92                     93
                     A                      A                      A
 Frequencies --  1331.6695              1332.9221              1348.2427
 Red. masses --     1.2488                 1.2591                 1.3124
 Frc consts  --     1.3047                 1.3180                 1.4056
 IR Inten    --    29.1788                23.1472                11.4535
 Raman Activ --     1.1997                 1.7572                 4.7714

                    94                     95                     96
                     A                      A                      A
 Frequencies --  1350.1407              1361.8114              1374.2029
 Red. masses --     1.3760                 1.2305                 1.2540
 Frc consts  --     1.4779                 1.3445                 1.3952
 IR Inten    --     7.7213                27.3196                16.6504
 Raman Activ --     6.6870                 4.5257                 1.5282

                    97                     98                     99
                     A                      A                      A
 Frequencies --  1382.1545              1383.0410              1386.5056
 Red. masses --     1.2809                 1.6952                 1.3331
 Frc consts  --     1.4417                 1.9105                 1.5099
 IR Inten    --    13.2160                 1.7916                23.7748
 Raman Activ --     3.8424                 4.5994                 1.3546

                   100                    101                    102
                     A                      A                      A
 Frequencies --  1402.0063              1430.2924              1438.3241
 Red. masses --     1.3590                 1.5034                 1.4354
 Frc consts  --     1.5739                 1.8121                 1.7496
 IR Inten    --     1.0431                18.6236                22.3793
 Raman Activ --     8.8033                 1.9032                 3.9253

                   103                    104                    105
                     A                      A                      A
 Frequencies --  1455.4785              1456.3561              1464.5522
 Red. masses --     1.0978                 1.0747                 1.3483
 Frc consts  --     1.3702                 1.3430                 1.7039
 IR Inten    --     5.2159                 6.0704                23.5724
 Raman Activ --     4.4942                 3.1800                 3.5913

                   106                    107                    108
                     A                      A                      A
 Frequencies --  1466.7823              1545.9729              3258.2536
 Red. masses --     1.3953                 1.3129                 1.0688
 Frc consts  --     1.7687                 1.8488                 6.6851
 IR Inten    --    64.8485                81.7260                23.5533
 Raman Activ --     1.1617                 1.0664                39.2624

                   109                    110                    111
                     A                      A                      A
 Frequencies --  3261.1994              3263.5820              3268.1883
 Red. masses --     1.0733                 1.0764                 1.0787
 Frc consts  --     6.7254                 6.7546                 6.7887
 IR Inten    --     3.8383                10.8212                20.7136
 Raman Activ --   118.8091                29.1688                75.1436

                   112                    113                    114
                     A                      A                      A
 Frequencies --  3272.2001              3280.7157              3281.3422
 Red. masses --     1.0670                 1.0845                 1.0832
 Frc consts  --     6.7313                 6.8770                 6.8719
 IR Inten    --    13.7499                 5.8840                 7.9027
 Raman Activ --    84.6383                86.4877                99.9528

                   115                    116                    117
                     A                      A                      A
 Frequencies --  3286.4768              3290.1365              3291.8327
 Red. masses --     1.0842                 1.0851                 1.0858
 Frc consts  --     6.8993                 6.9209                 6.9322
 IR Inten    --    14.1368                15.5704                 1.1801
 Raman Activ --    26.5742               141.3907                12.4647

                   118                    119                    120
                     A                      A                      A
 Frequencies --  3300.1070              3304.8785              3314.8371
 Red. masses --     1.0870                 1.0863                 1.1051
 Frc consts  --     6.9750                 6.9906                 7.1547
 IR Inten    --    58.9255                56.3417                39.0374
 Raman Activ --    17.0627                 3.8214                49.3800

                   121                    122                    123
                     A                      A                      A
 Frequencies --  3336.4801              3360.2460              3364.4945
 Red. masses --     1.1031                 1.0735                 1.0654
 Frc consts  --     7.2353                 7.1417                 7.1054
 IR Inten    --    19.2731                34.4489                29.5378
 Raman Activ --    55.1473                60.3696               124.2469

                   124                    125                    126
                     A                      A                      A
 Frequencies --  3366.2149              3368.2618              3370.3570
 Red. masses --     1.0659                 1.0677                 1.0632
 Frc consts  --     7.1163                 7.1368                 7.1157
 IR Inten    --    85.3370                45.4681                38.7993
 Raman Activ --    97.7213               176.7624                26.5250

                   127                    128                    129
                     A                      A                      A
 Frequencies --  3372.9897              3880.5180              3884.7145
 Red. masses --     1.0653                 1.0674                 1.0666
 Frc consts  --     7.1406                 9.4702                 9.4835
 IR Inten    --    45.6511                55.0702                42.4902
 Raman Activ --   179.6092                98.5656               144.7010

 - Thermochemistry -
 -------------------
 Temperature   298.150 Kelvin.  Pressure   1.00000 Atm.
 Atom     1 has atomic number  8 and mass  15.99491

 Molecular mass:   342.11621 amu.
 Principal axes and moments of inertia in atomic units:
                           1         2         3
     Eigenvalues --  4820.81156********************
           X            0.99997   0.00739  -0.00035
           Y           -0.00739   0.99997   0.00117
           Z            0.00036  -0.00116   1.00000
 This molecule is an asymmetric top.
 Rotational symmetry number  1.
 Warning -- assumption of classical behavior for rotation
           may cause significant error
 Rotational temperatures (Kelvin)      0.01797     0.00735     0.00550
 Rotational constants (GHZ):           0.37436     0.15309     0.11455
    7 imaginary frequencies ignored.
 Zero-point vibrational energy     970881.9 (Joules/Mol)
                                  232.04633 (Kcal/Mol)
 Warning -- explicit consideration of  33 degrees of freedom as
           vibrations may cause significant error
 Vibrational temperatures:     55.85    73.24    93.00   119.14   144.27
          (Kelvin)            175.32   199.27   236.26   288.49   312.63
                              372.24   385.59   400.63   434.23   459.96
                              479.20   492.67   510.32   522.96   558.85
                              593.40   626.63   633.27   651.58   703.64
                              721.01   773.83   789.85   809.74   835.01
                              851.81   864.37   878.92   937.99   995.86
                             1007.62  1012.23  1016.20  1035.40  1051.70
                             1203.15  1229.95  1350.74  1380.31  1401.65
                             1414.56  1430.53  1450.49  1459.01  1469.55
                             1484.13  1497.50  1502.08  1519.67  1527.29
                             1540.33  1548.79  1570.61  1575.66  1589.04
                             1600.54  1627.00  1632.16  1636.92  1657.86
                             1662.73  1680.03  1693.91  1719.82  1727.81
                             1756.08  1776.83  1781.64  1791.76  1801.17
                             1823.78  1826.52  1840.60  1851.56  1878.41
                             1884.71  1893.18  1906.47  1915.97  1917.78
                             1939.82  1942.55  1959.34  1977.17  1988.61
                             1989.89  1994.87  2017.17  2057.87  2069.42
                             2094.11  2095.37  2107.16  2110.37  2224.31
                             4687.89  4692.13  4695.56  4702.19  4707.96
                             4720.21  4721.11  4728.50  4733.77  4736.21
                             4748.11  4754.98  4769.31  4800.44  4834.64
                             4840.75  4843.23  4846.17  4849.19  4852.97
                             5583.19  5589.23

 Zero-point correction=                           0.369789 (Hartree/Particle)
 Thermal correction to Energy=                    0.388452
 Thermal correction to Enthalpy=                  0.389397
 Thermal correction to Gibbs Free Energy=         0.323188
 Sum of electronic and zero-point Energies=          -1297.586651
 Sum of electronic and thermal Energies=             -1297.567988
 Sum of electronic and thermal Enthalpies=           -1297.567044
 Sum of electronic and thermal Free Energies=        -1297.633253

                     E (Thermal)             CV                S
                      KCal/Mol        Cal/Mol-Kelvin    Cal/Mol-Kelvin
 Total                  243.758             76.633            139.348
 Electronic               0.000              0.000              0.000
 Translational            0.889              2.981             43.384
 Rotational               0.889              2.981             35.147
 Vibrational            241.980             70.671             60.816
 Vibration     1          0.594              1.981              5.318
 Vibration     2          0.595              1.977              4.782
 Vibration     3          0.597              1.971              4.310
 Vibration     4          0.600              1.961              3.823
 Vibration     5          0.604              1.949              3.449
 Vibration     6          0.609              1.931              3.071
 Vibration     7          0.614              1.915              2.824
 Vibration     8          0.623              1.886              2.501
 Vibration     9          0.638              1.839              2.128
 Vibration    10          0.646              1.815              1.982
 Vibration    11          0.668              1.748              1.670
 Vibration    12          0.673              1.732              1.609
 Vibration    13          0.679              1.713              1.543
 Vibration    14          0.694              1.670              1.407
 Vibration    15          0.706              1.636              1.312
 Vibration    16          0.715              1.609              1.245
 Vibration    17          0.722              1.591              1.201
 Vibration    18          0.731              1.566              1.145
 Vibration    19          0.737              1.547              1.107
 Vibration    20          0.757              1.495              1.006
 Vibration    21          0.776              1.443              0.918
 Vibration    22          0.796              1.393              0.841
 Vibration    23          0.800              1.383              0.826
 Vibration    24          0.811              1.355              0.787
 Vibration    25          0.845              1.274              0.686
 Vibration    26          0.857              1.248              0.655
 Vibration    27          0.893              1.166              0.570
 Vibration    28          0.904              1.142              0.546
 Vibration    29          0.919              1.112              0.518
 Vibration    30          0.937              1.074              0.485
 Vibration    31          0.950              1.049              0.464
 Vibration    32          0.959              1.030              0.448
 Vibration    33          0.970              1.009              0.431

 Normal termination of Gaussian 09 at Sat Apr  2 23:34:48 2016.
