 Gaussian 09, Revision B.01,
 Gaussian 09:  EM64L-G09RevB.01 12-Aug-2010

 ------------------------------------------------
 # freq=raman b3lyp/6-31+g(d,p) geom=connectivity
 ------------------------------------------------

 ------------
 320 6000.com
 ------------
 Symbolic Z-matrix:
 Charge =  0 Multiplicity = 1

                         Standard orientation:
 ---------------------------------------------------------------------
 Center     Atomic      Atomic             Coordinates (Angstroms)
 Number     Number       Type             X           Y           Z
 ---------------------------------------------------------------------
      1          8           0        5.031101   -0.254204   -0.165979
      2          6           0        3.701844   -0.040186    0.332626
      3          6           0        3.206419    1.275098   -0.244851
      4          8           0        4.096636    2.324885    0.164015
      5          1           0        5.035723    1.992409    0.073837
      6          6           0        1.785619    1.573452    0.206866
      7          8           0        1.251855    2.758660   -0.401777
      8          1           0        0.335794    2.915252   -0.030930
      9          6           0        3.270278   -2.505507   -0.080541
     10          8           0        4.539446   -3.083120   -0.420043
     11          1           0        4.411748   -4.035565   -0.695720
     12          6           0        2.731223   -1.088311   -0.186278
     13          8           0        1.394065   -0.881199    0.289460
     14          6           0        0.880482    0.395891   -0.117053
     15          8           0       -0.315833    0.719892    0.605416
     16          6           0       -1.550789    0.255673    0.040889
     17          6           0       -1.915545   -1.168048    0.429650
     18          8           0       -1.000094   -2.214539    0.074203
     19          1           0       -0.115394   -1.783315    0.254383
     20          6           0       -3.242172   -1.610592   -0.164805
     21          8           0       -3.701583   -2.735569    0.598291
     22          1           0       -4.540093   -3.059005    0.159193
     23          6           0       -2.551545    2.571480   -0.155256
     24          8           0       -1.401084    3.392960    0.091121
     25          1           0       -1.642128    4.351485   -0.060705
     26          6           0       -2.736670    1.152542    0.354889
     27          8           0       -3.942242    0.756488   -0.314595
     28          6           0       -4.338261   -0.577024    0.035811
     29          8           0       -5.438982   -0.827407   -0.850002
     30          1           0       -6.225177   -1.024735   -0.335649
     31          1           0       -4.677345   -0.599704    1.050409
     32          1           0       -3.137082   -1.865497   -1.198671
     33          1           0       -2.019950   -1.185845    1.494396
     34          1           0       -1.426355    0.265321   -1.021807
     35          1           0       -2.902888    1.170459    1.411748
     36          1           0       -3.392090    3.126181    0.206255
     37          1           0       -2.651956    2.517148   -1.219148
     38          1           0        5.630366   -0.395073    0.570660
     39          1           0        3.146525   -2.749771    0.953829
     40          1           0        2.566660   -3.089005   -0.636736
     41          1           0        2.671692   -0.903868   -1.238579
     42          1           0        3.695492   -0.011435    1.402221
     43          1           0        3.220545    1.208706   -1.312696
     44          1           0        1.791707    1.712844    1.267730
     45          1           0        0.672640    0.381437   -1.166573
 ---------------------------------------------------------------------

 SCF Done:  E(RB3LYP) =  -1297.92238125     A.U. after   14 cycles

 The electronic state is 1-A.
 Alpha  occ. eigenvalues --  -19.20849 -19.19805 -19.19108 -19.19036 -19.18899
 Alpha  occ. eigenvalues --  -19.18205 -19.17350 -19.17138 -19.15264 -19.14872
 Alpha  occ. eigenvalues --  -19.14203 -10.31487 -10.30848 -10.27025 -10.26769
 Alpha  occ. eigenvalues --  -10.26239 -10.25615 -10.25269 -10.25083 -10.24887
 Alpha  occ. eigenvalues --  -10.24514 -10.24496 -10.24215  -1.10687  -1.09443
 Alpha  occ. eigenvalues --   -1.05971  -1.05231  -1.04646  -1.03919  -1.03146
 Alpha  occ. eigenvalues --   -1.02879  -1.01552  -1.00987  -0.99795  -0.82604
 Alpha  occ. eigenvalues --   -0.81239  -0.79276  -0.78436  -0.72258  -0.70183
 Alpha  occ. eigenvalues --   -0.67508  -0.65213  -0.63367  -0.62976  -0.61529
 Alpha  occ. eigenvalues --   -0.60526  -0.56615  -0.55905  -0.55230  -0.55112
 Alpha  occ. eigenvalues --   -0.54071  -0.53461  -0.52651  -0.52516  -0.51920
 Alpha  occ. eigenvalues --   -0.50805  -0.50061  -0.49566  -0.48796  -0.46726
 Alpha  occ. eigenvalues --   -0.45889  -0.45327  -0.44391  -0.43933  -0.43445
 Alpha  occ. eigenvalues --   -0.42596  -0.42117  -0.41287  -0.40180  -0.39842
 Alpha  occ. eigenvalues --   -0.39158  -0.38171  -0.37450  -0.37107  -0.35944
 Alpha  occ. eigenvalues --   -0.35365  -0.35131  -0.34101  -0.33835  -0.33303
 Alpha  occ. eigenvalues --   -0.33020  -0.31296  -0.30878  -0.30440  -0.30357
 Alpha  occ. eigenvalues --   -0.29668  -0.28841  -0.28392  -0.27493  -0.26720
 Alpha  occ. eigenvalues --   -0.26576
 Alpha virt. eigenvalues --   -0.02334  -0.02059  -0.01921  -0.00496   0.00390
 Alpha virt. eigenvalues --    0.01185   0.01735   0.02424   0.02993   0.03528
 Alpha virt. eigenvalues --    0.03848   0.04293   0.04735   0.05225   0.05529

 Mulliken atomic charges:
              1
     1  O   -0.548013
     2  C   -0.162939
     3  C   -0.058367
     4  O   -0.515358
     5  H    0.356181
     6  C    0.051953
     7  O   -0.531466
     8  H    0.439599
     9  C   -0.260505
    10  O   -0.526811
    11  H    0.366644
    12  C    0.528315
    13  O   -0.416157
    14  C    0.149583
    15  O   -0.317402
    16  C   -0.215572
    17  C   -0.017203
    18  O   -0.527807
    19  H    0.422398
    20  C    0.262101
    21  O   -0.499619
    22  H    0.342568
    23  C   -0.095046
    24  O   -0.621522
    25  H    0.390965
    26  C    0.098918
    27  O   -0.289314
    28  C    0.058910
    29  O   -0.550962
    30  H    0.361016
    31  H    0.136872
    32  H    0.162628
    33  H    0.143905
    34  H    0.123665
    35  H    0.142054
    36  H    0.135458
    37  H    0.154048
    38  H    0.372770
    39  H    0.137016
    40  H    0.129037
    41  H    0.123727
    42  H    0.144472
    43  H    0.137509
    44  H    0.147198
    45  H    0.134555
 Sum of Mulliken atomic charges =   0.00000

 Dipole moment (field-independent basis, Debye):
    X=             -2.8586    Y=             -0.8626    Z=              1.4222  Tot=              3.3073
 Quadrupole moment (field-independent basis, Debye-Ang):
   XX=           -117.4781   YY=           -137.1668   ZZ=           -139.8140
   XY=            -15.5796   XZ=              0.2639   YZ=              4.7269

  Exact polarizability: 228.383   0.271 193.230   1.293   0.580 140.995
 Approx polarizability: 265.382  -0.701 248.881   1.728   1.431 229.966

 ******    7 imaginary frequencies (negative Signs) ******

                     1                      2                      3
                     A                      A                      A
 Frequencies --  -409.1389              -307.4029              -275.5566
 Red. masses --     1.5661                 1.7376                 1.1624
 Frc consts  --     0.1545                 0.0967                 0.0520
 IR Inten    --     2.4940                 2.1853                97.8448
 Raman Activ --     0.1253                 0.0266                 1.0333

                     4                      5                      6
                     A                      A                      A
 Frequencies --  -272.0991               -68.9812               -52.6846
 Red. masses --     1.1878                 6.7767                 6.3350
 Frc consts  --     0.0518                 0.0190                 0.0104
 IR Inten    --   142.4315                 0.2083                 0.8597
 Raman Activ --     0.9987                 0.0492                 0.0175

                     7                      8                      9
                     A                      A                      A
 Frequencies --   -36.8922                17.8539                67.1622
 Red. masses --     6.3495                 6.4452                 7.3846
 Frc consts  --     0.0051                 0.0012                 0.0196
 IR Inten    --     0.2037                 2.4827                 1.9264
 Raman Activ --     0.0056                 0.0481                 0.0234

                    10                     11                     12
                     A                      A                      A
 Frequencies --    76.2310                96.9682               103.4193
 Red. masses --     6.1676                 6.4989                 5.9797
 Frc consts  --     0.0211                 0.0360                 0.0377
 IR Inten    --     1.1662                 1.2108                 1.7436
 Raman Activ --     0.4475                 0.0367                 0.1058

                    13                     14                     15
                     A                      A                      A
 Frequencies --   150.3440               177.4477               178.9059
 Red. masses --     6.4867                 5.9340                 7.6375
 Frc consts  --     0.0864                 0.1101                 0.1440
 IR Inten    --     4.0268                 1.5841                 0.1723
 Raman Activ --     0.4935                 0.2892                 0.4525

                    16                     17                     18
                     A                      A                      A
 Frequencies --   205.9274               226.1905               259.0942
 Red. masses --     7.1012                 6.2602                 4.2312
 Frc consts  --     0.1774                 0.1887                 0.1674
 IR Inten    --     0.3048                 1.3979                22.4580
 Raman Activ --     2.7060                 0.9386                 0.3352

                    19                     20                     21
                     A                      A                      A
 Frequencies --   271.1435               295.7008               301.8145
 Red. masses --     4.9868                 5.9143                 5.4693
 Frc consts  --     0.2160                 0.3047                 0.2935
 IR Inten    --     0.6185                 1.8709                 1.3000
 Raman Activ --     0.2477                 3.5361                 1.4416

                    22                     23                     24
                     A                      A                      A
 Frequencies --   311.2856               321.7868               328.9867
 Red. masses --     4.9214                 6.4364                 5.2301
 Frc consts  --     0.2810                 0.3927                 0.3335
 IR Inten    --     3.0525                 5.4370                 3.7409
 Raman Activ --     0.7371                 1.9980                 0.9913

                    25                     26                     27
                     A                      A                      A
 Frequencies --   340.2346               366.3163               383.7809
 Red. masses --     6.8469                 4.5604                 5.4347
 Frc consts  --     0.4670                 0.3606                 0.4716
 IR Inten    --     6.9949                 2.9469                 2.2496
 Raman Activ --     2.1062                 1.0070                 0.5915

                    28                     29                     30
                     A                      A                      A
 Frequencies --   412.8596               419.7018               431.4127
 Red. masses --     5.6642                 5.6136                 4.8140
 Frc consts  --     0.5688                 0.5826                 0.5279
 IR Inten    --    12.0839                14.9075                 6.1741
 Raman Activ --     5.8924                 1.7418                 2.0983

                    31                     32                     33
                     A                      A                      A
 Frequencies --   440.5105               480.5787               487.5789
 Red. masses --     5.5253                 4.3761                 4.9197
 Frc consts  --     0.6317                 0.5955                 0.6891
 IR Inten    --     7.6175                 3.7896                 5.7177
 Raman Activ --     2.1777                 3.0901                 0.2913

                    34                     35                     36
                     A                      A                      A
 Frequencies --   512.7181               529.1522               565.6624
 Red. masses --     3.5886                 3.3591                 4.2895
 Frc consts  --     0.5558                 0.5542                 0.8087
 IR Inten    --    12.1028                 7.2921                 2.6238
 Raman Activ --     2.3791                 5.9737                 1.1005

                    37                     38                     39
                     A                      A                      A
 Frequencies --   589.4637               596.1818               613.3916
 Red. masses --     4.6067                 2.8419                 2.2180
 Frc consts  --     0.9431                 0.5951                 0.4917
 IR Inten    --    16.8831                46.3569                48.0844
 Raman Activ --     0.8661                 0.5609                 1.9257

                    40                     41                     42
                     A                      A                      A
 Frequencies --   623.0064               632.2104               667.8597
 Red. masses --     1.8076                 3.2155                 1.7602
 Frc consts  --     0.4134                 0.7572                 0.4626
 IR Inten    --    61.1571                35.7746                70.6294
 Raman Activ --     1.8801                 1.1782                 0.9177

                    43                     44                     45
                     A                      A                      A
 Frequencies --   670.7297               738.8368               760.1433
 Red. masses --     1.7906                 1.0860                 1.0560
 Frc consts  --     0.4746                 0.3493                 0.3595
 IR Inten    --    71.9012               101.9616                95.0566
 Raman Activ --     2.4413                 1.8897                 1.5908

                    46                     47                     48
                     A                      A                      A
 Frequencies --   823.3293               837.3394               843.1849
 Red. masses --     1.0794                 1.1867                 1.6782
 Frc consts  --     0.4311                 0.4902                 0.7030
 IR Inten    --    82.2310                68.3808                26.3965
 Raman Activ --     1.5246                 1.8772                 0.6780

                    49                     50                     51
                     A                      A                      A
 Frequencies --   863.1580               945.9670               967.0172
 Red. masses --     1.5977                 5.2677                 5.2658
 Frc consts  --     0.7014                 2.7773                 2.9012
 IR Inten    --    10.4977               102.4096                21.3340
 Raman Activ --     0.4216                 2.9683                 0.6747

                    52                     53                     54
                     A                      A                      A
 Frequencies --   988.2583               992.1691               996.9532
 Red. masses --     4.8531                 5.9816                 6.0990
 Frc consts  --     2.7926                 3.4693                 3.5715
 IR Inten    --    35.2081                67.0963               294.4250
 Raman Activ --     1.5666                 1.0938                 3.0672

                    55                     56                     57
                     A                      A                      A
 Frequencies --  1016.0925              1017.1632              1028.1140
 Red. masses --     8.1986                 5.5522                 4.6522
 Frc consts  --     4.9872                 3.3845                 2.8973
 IR Inten    --   338.3596               123.3660               165.1936
 Raman Activ --     0.9939                 1.2787                 2.0588

                    58                     59                     60
                     A                      A                      A
 Frequencies --  1033.6398              1056.9793              1063.6496
 Red. masses --     5.5523                 2.9543                 3.1771
 Frc consts  --     3.4951                 1.9446                 2.1177
 IR Inten    --   179.2034                84.4240                91.0109
 Raman Activ --     2.3555                10.1021                 1.5538

                    61                     62                     63
                     A                      A                      A
 Frequencies --  1075.8496              1078.2235              1088.8498
 Red. masses --     4.0867                 3.5906                 3.8530
 Frc consts  --     2.7869                 2.4594                 2.6914
 IR Inten    --    20.3283                 3.9994                15.1416
 Raman Activ --     2.0634                 1.6456                14.3685

                    64                     65                     66
                     A                      A                      A
 Frequencies --  1099.4155              1102.8969              1120.7539
 Red. masses --     2.9734                 2.5989                 2.3546
 Frc consts  --     2.1175                 1.8626                 1.7426
 IR Inten    --    91.8262                10.0756                13.9418
 Raman Activ --     4.0584                 3.1460                11.3672

                    67                     68                     69
                     A                      A                      A
 Frequencies --  1127.1693              1133.7772              1138.9921
 Red. masses --     2.9032                 2.1993                 2.8974
 Frc consts  --     2.1732                 1.6657                 2.2146
 IR Inten    --    83.9702                96.4893                 5.8647
 Raman Activ --     2.5245                 5.8467                10.1183

                    70                     71                     72
                     A                      A                      A
 Frequencies --  1148.8473              1158.7901              1167.8317
 Red. masses --     3.1050                 1.7754                 2.1872
 Frc consts  --     2.4145                 1.4046                 1.7575
 IR Inten    --     8.3907                14.2532                33.2814
 Raman Activ --     3.5204                 7.0539                 5.5206

                    73                     74                     75
                     A                      A                      A
 Frequencies --  1168.0964              1182.8174              1205.4858
 Red. masses --     2.0195                 2.3205                 1.8195
 Frc consts  --     1.6235                 1.9128                 1.5578
 IR Inten    --     2.1215                 8.0409                19.6380
 Raman Activ --     2.0078                 1.7788                 1.0886

                    76                     77                     78
                     A                      A                      A
 Frequencies --  1209.2030              1213.4617              1228.1032
 Red. masses --     1.4632                 1.4208                 1.4016
 Frc consts  --     1.2605                 1.2327                 1.2455
 IR Inten    --     4.3176                21.0866                 3.9030
 Raman Activ --     0.8471                 3.2180                 0.6872

                    79                     80                     81
                     A                      A                      A
 Frequencies --  1241.8256              1248.5489              1265.6520
 Red. masses --     1.3135                 1.2509                 1.2858
 Frc consts  --     1.1934                 1.1489                 1.2136
 IR Inten    --     6.3723                 9.0850                 8.9135
 Raman Activ --     0.5670                 3.1188                 1.1381

                    82                     83                     84
                     A                      A                      A
 Frequencies --  1277.5135              1287.2144              1302.3442
 Red. masses --     1.4643                 1.1868                 1.2843
 Frc consts  --     1.4081                 1.1586                 1.2835
 IR Inten    --    45.2932                32.6428                18.4535
 Raman Activ --     1.2826                 0.8674                 9.3722

                    85                     86                     87
                     A                      A                      A
 Frequencies --  1305.6981              1313.0574              1321.7531
 Red. masses --     1.3398                 1.2522                 1.2970
 Frc consts  --     1.3458                 1.2720                 1.3350
 IR Inten    --    51.4522                14.1429                 5.0488
 Raman Activ --     7.9517                 1.7760                 4.3061

                    88                     89                     90
                     A                      A                      A
 Frequencies --  1329.8979              1335.9364              1339.4463
 Red. masses --     1.2640                 1.2977                 1.1486
 Frc consts  --     1.3171                 1.3646                 1.2142
 IR Inten    --    12.8482                22.9806                 9.6598
 Raman Activ --     7.8084                 7.3888                 3.8992

                    91                     92                     93
                     A                      A                      A
 Frequencies --  1348.1546              1356.5777              1361.5551
 Red. masses --     1.3594                 1.1343                 1.2192
 Frc consts  --     1.4557                 1.2298                 1.3317
 IR Inten    --    41.7928                39.4735                 4.6518
 Raman Activ --     3.9750                 3.0387                 7.0120

                    94                     95                     96
                     A                      A                      A
 Frequencies --  1368.9208              1375.6308              1382.2976
 Red. masses --     1.4147                 1.3925                 1.4943
 Frc consts  --     1.5620                 1.5526                 1.6822
 IR Inten    --     3.5701                15.2267                10.3436
 Raman Activ --     6.4193                 5.8975                 5.9840

                    97                     98                     99
                     A                      A                      A
 Frequencies --  1400.3786              1406.7806              1418.5218
 Red. masses --     1.1984                 1.4523                 1.5037
 Frc consts  --     1.3846                 1.6934                 1.7828
 IR Inten    --    18.7445                 9.9329                37.2206
 Raman Activ --     6.0144                 5.7887                 1.1949

                   100                    101                    102
                     A                      A                      A
 Frequencies --  1424.3514              1431.9210              1456.4238
 Red. masses --     1.3931                 1.4975                 1.1245
 Frc consts  --     1.6652                 1.8091                 1.4053
 IR Inten    --     8.9142                33.7745                 5.9993
 Raman Activ --     4.6176                 1.2107                 5.5030

                   103                    104                    105
                     A                      A                      A
 Frequencies --  1468.5885              1474.7586              1475.2032
 Red. masses --     1.3288                 1.3170                 1.2466
 Frc consts  --     1.6886                 1.6876                 1.5984
 IR Inten    --    16.1061                39.7213                 5.7183
 Raman Activ --     1.9977                 1.5564                 0.8856

                   106                    107                    108
                     A                      A                      A
 Frequencies --  1482.7390              1544.5177              3250.9551
 Red. masses --     1.1448                 1.2290                 1.0595
 Frc consts  --     1.4829                 1.7274                 6.5972
 IR Inten    --     9.9634                46.3023                24.0860
 Raman Activ --     3.7235                 0.7092                98.2748

                   109                    110                    111
                     A                      A                      A
 Frequencies --  3260.1987              3271.0591              3280.2451
 Red. masses --     1.0813                 1.0595                 1.0811
 Frc consts  --     6.7716                 6.6791                 6.8540
 IR Inten    --    36.1219                65.3591                29.0665
 Raman Activ --    19.8686                62.6254               128.1421

                   112                    113                    114
                     A                      A                      A
 Frequencies --  3285.5900              3292.7500              3297.0271
 Red. masses --     1.0836                 1.0832                 1.0862
 Frc consts  --     6.8917                 6.9194                 6.9567
 IR Inten    --    11.6238                15.0178                 9.3045
 Raman Activ --    10.3065               178.4413                29.8191

                   115                    116                    117
                     A                      A                      A
 Frequencies --  3298.3669              3301.9995              3304.6347
 Red. masses --     1.0838                 1.0862                 1.0832
 Frc consts  --     6.9471                 6.9780                 6.9697
 IR Inten    --    40.6510                58.3339                24.6970
 Raman Activ --    12.6395               153.7945                62.9215

                   118                    119                    120
                     A                      A                      A
 Frequencies --  3307.4177              3311.9694              3318.3097
 Red. masses --     1.0986                 1.0780                 1.0857
 Frc consts  --     7.0803                 6.9670                 7.0433
 IR Inten    --    40.8355                39.1145                97.7581
 Raman Activ --    59.9979               211.2182                53.1274

                   121                    122                    123
                     A                      A                      A
 Frequencies --  3320.5983              3322.4843              3324.8183
 Red. masses --     1.0729                 1.0867                 1.0999
 Frc consts  --     6.9704                 7.0680                 7.1639
 IR Inten    --   893.5562               224.3301                89.5520
 Raman Activ --    42.2695                27.0602                30.3689

                   124                    125                    126
                     A                      A                      A
 Frequencies --  3380.6896              3384.0626              3391.5891
 Red. masses --     1.0653                 1.0659                 1.0690
 Frc consts  --     7.1735                 7.1916                 7.2449
 IR Inten    --    33.9588                23.4887                58.6387
 Raman Activ --   104.5165               143.3620               155.9076

                   127                    128                    129
                     A                      A                      A
 Frequencies --  3396.1772              3919.3433              3920.8346
 Red. masses --     1.0676                 1.0677                 1.0678
 Frc consts  --     7.2549                 9.6629                 9.6712
 IR Inten    --    67.6166                72.1031                73.1599
 Raman Activ --   164.8968               112.8256                98.1761

 - Thermochemistry -
 -------------------
 Temperature   298.150 Kelvin.  Pressure   1.00000 Atm.
 Atom     1 has atomic number  8 and mass  15.99491

 Molecular mass:   342.11621 amu.
 Principal axes and moments of inertia in atomic units:
                           1         2         3
     Eigenvalues --  4428.64180********************
           X            0.99997  -0.00764  -0.00054
           Y            0.00764   0.99997   0.00103
           Z            0.00053  -0.00104   1.00000
 This molecule is an asymmetric top.
 Rotational symmetry number  1.
 Warning -- assumption of classical behavior for rotation
           may cause significant error
 Rotational temperatures (Kelvin)      0.01956     0.00691     0.00524
 Rotational constants (GHZ):           0.40752     0.14389     0.10911
    7 imaginary frequencies ignored.
 Zero-point vibrational energy     978913.2 (Joules/Mol)
                                  233.96586 (Kcal/Mol)
 Warning -- explicit consideration of  32 degrees of freedom as
           vibrations may cause significant error
 Vibrational temperatures:     25.69    96.63   109.68   139.52   148.80
          (Kelvin)            216.31   255.31   257.41   296.28   325.44
                              372.78   390.11   425.45   434.24   447.87
                              462.98   473.34   489.52   527.05   552.17
                              594.01   603.86   620.71   633.80   691.44
                              701.52   737.69   761.33   813.86   848.11
                              857.77   882.53   896.37   909.61   960.90
                              965.03  1063.02  1093.68  1184.59  1204.74
                             1213.15  1241.89  1361.03  1391.32  1421.88
                             1427.51  1434.39  1461.93  1463.47  1479.22
                             1487.18  1520.76  1530.35  1547.91  1551.32
                             1566.61  1581.81  1586.82  1612.51  1621.74
                             1631.25  1638.75  1652.93  1667.24  1680.25
                             1680.63  1701.81  1734.42  1739.77  1745.90
                             1766.96  1786.71  1796.38  1820.99  1838.05
                             1852.01  1873.78  1878.61  1889.19  1901.71
                             1913.42  1922.11  1927.16  1939.69  1951.81
                             1958.97  1969.57  1979.22  1988.82  2014.83
                             2024.04  2040.93  2049.32  2060.21  2095.47
                             2112.97  2121.85  2122.49  2133.33  2222.21
                             4677.39  4690.69  4706.32  4719.54  4727.23
                             4737.53  4743.68  4745.61  4750.83  4754.63
                             4758.63  4765.18  4774.30  4777.59  4780.31
                             4783.67  4864.05  4868.91  4879.73  4886.34
                             5639.05  5641.20

 Zero-point correction=                           0.372848 (Hartree/Particle)
 Thermal correction to Energy=                    0.391260
 Thermal correction to Enthalpy=                  0.392204
 Thermal correction to Gibbs Free Energy=         0.326405
 Sum of electronic and zero-point Energies=          -1297.549533
 Sum of electronic and thermal Energies=             -1297.531122
 Sum of electronic and thermal Enthalpies=           -1297.530177
 Sum of electronic and thermal Free Energies=        -1297.595976

                     E (Thermal)             CV                S
                      KCal/Mol        Cal/Mol-Kelvin    Cal/Mol-Kelvin
 Total                  245.519             75.739            138.485
 Electronic               0.000              0.000              0.000
 Translational            0.889              2.981             43.384
 Rotational               0.889              2.981             35.173
 Vibrational            243.742             69.778             59.927
 Vibration     1          0.593              1.986              6.860
 Vibration     2          0.598              1.970              4.235
 Vibration     3          0.599              1.965              3.986
 Vibration     4          0.603              1.951              3.514
 Vibration     5          0.605              1.946              3.389
 Vibration     6          0.618              1.902              2.668
 Vibration     7          0.628              1.870              2.355
 Vibration     8          0.629              1.868              2.340
 Vibration     9          0.640              1.831              2.079
 Vibration    10          0.650              1.801              1.909
 Vibration    11          0.668              1.747              1.668
 Vibration    12          0.675              1.726              1.589
 Vibration    13          0.690              1.682              1.441
 Vibration    14          0.694              1.670              1.407
 Vibration    15          0.700              1.652              1.355
 Vibration    16          0.707              1.632              1.301
 Vibration    17          0.712              1.618              1.265
 Vibration    18          0.720              1.595              1.211
 Vibration    19          0.739              1.542              1.095
 Vibration    20          0.753              1.505              1.024
 Vibration    21          0.777              1.442              0.917
 Vibration    22          0.782              1.427              0.893
 Vibration    23          0.792              1.402              0.854
 Vibration    24          0.800              1.382              0.825
 Vibration    25          0.837              1.293              0.709
 Vibration    26          0.844              1.278              0.690
 Vibration    27          0.868              1.222              0.627
 Vibration    28          0.884              1.185              0.589
 Vibration    29          0.922              1.106              0.513
 Vibration    30          0.947              1.054              0.468
 Vibration    31          0.954              1.040              0.456
 Vibration    32          0.973              1.004              0.427

 Normal termination of Gaussian 09 at Thu Jan 21 04:41:05 2016.
