 Gaussian 09, Revision B.01,
 Gaussian 09:  EM64L-G09RevB.01 12-Aug-2010

 -------------------------------------------------
 # freq=raman b3lyp/6-31+g(2d,p) geom=connectivity
 -------------------------------------------------

 -----------------
 473 6000/6000.com
 -----------------
 Symbolic Z-matrix:
 Charge =  0 Multiplicity = 1

                         Standard orientation:
 ---------------------------------------------------------------------
 Center     Atomic      Atomic             Coordinates (Angstroms)
 Number     Number       Type             X           Y           Z
 ---------------------------------------------------------------------
      1          8           0       -5.122329   -0.293288    0.365664
      2          6           0       -3.767679   -0.040864   -0.033528
      3          6           0       -3.159967    1.261653    0.459748
      4          8           0       -3.978339    2.386996    0.106640
      5          1           0       -4.893076    2.007645    0.244101
      6          6           0       -1.804796    1.509843   -0.181542
      7          8           0       -1.115110    2.645645    0.362175
      8          1           0       -0.175638    2.694627    0.023405
      9          6           0       -3.167681   -2.463297   -0.238060
     10          8           0       -4.362992   -3.099323    0.236587
     11          1           0       -4.174342   -4.076436    0.144874
     12          6           0       -2.737217   -1.108157    0.298190
     13          8           0       -1.480640   -0.876142   -0.354351
     14          6           0       -0.861623    0.345840    0.074488
     15          8           0        0.307080    0.528117   -0.738531
     16          6           0        1.512793    0.239194   -0.015025
     17          6           0        1.979596   -1.131454   -0.477263
     18          8           0        0.959703   -2.139283   -0.411127
     19          1           0        0.167770   -1.682913   -0.818286
     20          6           0        3.268069   -1.553217    0.211140
     21          8           0        3.866790   -2.820381   -0.097876
     22          1           0        4.772127   -2.956095    0.306472
     23          6           0        2.411526    2.601441    0.026281
     24          8           0        1.306963    3.369867   -0.472690
     25          1           0        1.388933    4.319996   -0.171848
     26          6           0        2.646152    1.167680   -0.420206
     27          8           0        3.797944    0.827237    0.365213
     28          6           0        4.311650   -0.466193    0.015556
     29          8           0        5.375779   -0.737273    0.938936
     30          1           0        6.175931   -0.948013    0.452165
     31          1           0       -5.668310   -0.415597   -0.414428
     32          1           0       -2.360175   -3.141527   -0.056848
     33          1           0       -3.268122   -2.361780   -1.298487
     34          1           0       -2.594488   -1.162916    1.357213
     35          1           0       -3.789539    0.027487   -1.101119
     36          1           0       -3.048658    1.222210    1.523211
     37          1           0       -1.929413    1.641061   -1.236128
     38          1           0       -0.597358    0.293110    1.109999
     39          1           0        3.300770    3.148567   -0.207812
     40          1           0        2.320228    2.583264    1.092223
     41          1           0        2.854143    1.108938   -1.468151
     42          1           0        1.350119    0.258494    1.042361
     43          1           0        2.220643   -1.025611   -1.514371
     44          1           0        3.048532   -1.578013    1.258082
     45          1           0        4.676186   -0.468686   -0.990430
 ---------------------------------------------------------------------

 SCF Done:  E(RB3LYP) =  -1297.98336112     A.U. after   13 cycles

 The electronic state is 1-A.
 Alpha  occ. eigenvalues --  -19.19095 -19.18761 -19.18599 -19.18473 -19.18371
 Alpha  occ. eigenvalues --  -19.17520 -19.16084 -19.16011 -19.14906 -19.14245
 Alpha  occ. eigenvalues --  -19.12820 -10.30898 -10.30240 -10.26856 -10.26042
 Alpha  occ. eigenvalues --  -10.25619 -10.25293 -10.25201 -10.24867 -10.24471
 Alpha  occ. eigenvalues --  -10.24032 -10.23810 -10.23669  -1.10482  -1.09639
 Alpha  occ. eigenvalues --   -1.05815  -1.05414  -1.04619  -1.04142  -1.02660
 Alpha  occ. eigenvalues --   -1.02438  -1.02045  -1.00889  -0.99673  -0.82635
 Alpha  occ. eigenvalues --   -0.80640  -0.79925  -0.78219  -0.71869  -0.69654
 Alpha  occ. eigenvalues --   -0.67183  -0.65017  -0.63604  -0.62202  -0.61920
 Alpha  occ. eigenvalues --   -0.60469  -0.56851  -0.56056  -0.55327  -0.55063
 Alpha  occ. eigenvalues --   -0.54353  -0.53554  -0.52947  -0.51617  -0.51464
 Alpha  occ. eigenvalues --   -0.50919  -0.50150  -0.49180  -0.48708  -0.46459
 Alpha  occ. eigenvalues --   -0.46165  -0.45378  -0.44318  -0.43659  -0.43299
 Alpha  occ. eigenvalues --   -0.42622  -0.42237  -0.41102  -0.40499  -0.39987
 Alpha  occ. eigenvalues --   -0.39415  -0.38150  -0.37594  -0.37315  -0.36292
 Alpha  occ. eigenvalues --   -0.35188  -0.34904  -0.34624  -0.34300  -0.33544
 Alpha  occ. eigenvalues --   -0.33326  -0.31486  -0.31459  -0.30468  -0.29969
 Alpha  occ. eigenvalues --   -0.29570  -0.28552  -0.28063  -0.27472  -0.26933
 Alpha  occ. eigenvalues --   -0.26152
 Alpha virt. eigenvalues --   -0.02269  -0.01968  -0.01897  -0.00254   0.00109
 Alpha virt. eigenvalues --    0.00855   0.01766   0.02305   0.03311   0.03665
 Alpha virt. eigenvalues --    0.04026   0.04476   0.04780   0.05235   0.05633

 Mulliken atomic charges:
              1
     1  O   -0.550230
     2  C   -0.306215
     3  C    0.366819
     4  O   -0.557432
     5  H    0.340626
     6  C   -0.056838
     7  O   -0.591638
     8  H    0.436466
     9  C   -0.268526
    10  O   -0.519125
    11  H    0.335882
    12  C    0.391058
    13  O   -0.257513
    14  C    0.188154
    15  O   -0.266779
    16  C    0.100211
    17  C    0.160877
    18  O   -0.545317
    19  H    0.368622
    20  C    0.072340
    21  O   -0.559932
    22  H    0.341511
    23  C   -0.295335
    24  O   -0.570860
    25  H    0.358485
    26  C    0.063549
    27  O   -0.238030
    28  C    0.117807
    29  O   -0.548071
    30  H    0.337543
    31  H    0.349825
    32  H    0.146314
    33  H    0.138607
    34  H    0.111495
    35  H    0.114337
    36  H    0.119852
    37  H    0.129166
    38  H    0.125042
    39  H    0.147109
    40  H    0.158968
    41  H    0.130954
    42  H    0.120665
    43  H    0.105467
    44  H    0.122014
    45  H    0.132075
 Sum of Mulliken atomic charges =   0.00000

 Dipole moment (field-independent basis, Debye):
    X=              3.3744    Y=             -0.0877    Z=             -1.7183  Tot=              3.7877
 Quadrupole moment (field-independent basis, Debye-Ang):
   XX=           -117.0154   YY=           -140.1346   ZZ=           -139.3742
   XY=             13.8667   XZ=              2.7782   YZ=             -0.4364

  Exact polarizability: 232.601  -0.966 195.873   1.719   0.345 143.186
 Approx polarizability: 274.281  -0.619 256.270   2.598  -0.521 239.306

 ******    6 imaginary frequencies (negative Signs) ******

                     1                      2                      3
                     A                      A                      A
 Frequencies --  -282.3116              -261.3497              -208.0085
 Red. masses --     1.7170                 1.7855                 1.2332
 Frc consts  --     0.0806                 0.0719                 0.0314
 IR Inten    --    11.4440                 4.6429                88.5063
 Raman Activ --     0.1036                 0.1061                 0.6152

                     4                      5                      6
                     A                      A                      A
 Frequencies --  -180.8538               -80.4757               -50.1404
 Red. masses --     1.2384                 6.7109                 6.1754
 Frc consts  --     0.0239                 0.0256                 0.0091
 IR Inten    --   118.5800                 1.6289                 0.4572
 Raman Activ --     0.8814                 0.0835                 0.0261

                     7                      8                      9
                     A                      A                      A
 Frequencies --    22.5373                46.8011                62.7337
 Red. masses --     6.6547                 7.1226                 6.9163
 Frc consts  --     0.0020                 0.0092                 0.0160
 IR Inten    --     1.4346                 0.3607                 1.3483
 Raman Activ --     0.0642                 0.0529                 0.0985

                    10                     11                     12
                     A                      A                      A
 Frequencies --    87.4126               104.5410               140.4291
 Red. masses --     6.3173                 5.5518                 5.6589
 Frc consts  --     0.0284                 0.0357                 0.0657
 IR Inten    --     0.3598                 6.9631                 1.6660
 Raman Activ --     0.2997                 0.0799                 0.0625

                    13                     14                     15
                     A                      A                      A
 Frequencies --   166.3809               184.2649               197.2470
 Red. masses --     6.4491                 7.7281                 5.8511
 Frc consts  --     0.1052                 0.1546                 0.1341
 IR Inten    --     5.1826                 0.0877                 4.2341
 Raman Activ --     0.4420                 0.4913                 0.9684

                    16                     17                     18
                     A                      A                      A
 Frequencies --   218.0136               236.4504               266.0809
 Red. masses --     6.4195                 6.1003                 4.5343
 Frc consts  --     0.1798                 0.2009                 0.1891
 IR Inten    --     0.0943                 4.2003                10.3290
 Raman Activ --     1.4438                 1.4190                 0.2616

                    19                     20                     21
                     A                      A                      A
 Frequencies --   277.4764               295.3125               305.4435
 Red. masses --     4.2552                 4.5599                 4.5837
 Frc consts  --     0.1930                 0.2343                 0.2520
 IR Inten    --     8.1368                 1.5250                 3.1882
 Raman Activ --     0.2449                 0.2274                 0.1945

                    22                     23                     24
                     A                      A                      A
 Frequencies --   317.4227               325.1428               332.1483
 Red. masses --     6.2018                 5.7526                 5.4174
 Frc consts  --     0.3682                 0.3583                 0.3521
 IR Inten    --     4.3098                 1.0887                10.0190
 Raman Activ --     1.2308                 4.6698                 1.3974

                    25                     26                     27
                     A                      A                      A
 Frequencies --   348.7989               363.8513               393.5742
 Red. masses --     6.8385                 4.4544                 8.3989
 Frc consts  --     0.4902                 0.3474                 0.7665
 IR Inten    --    10.1687                 1.4190                 2.5239
 Raman Activ --     1.9300                 0.1962                 2.5087

                    28                     29                     30
                     A                      A                      A
 Frequencies --   407.9838               423.4310               436.1849
 Red. masses --     5.7679                 5.6282                 4.6241
 Frc consts  --     0.5657                 0.5945                 0.5183
 IR Inten    --    10.8538                 4.9587                 3.5543
 Raman Activ --     3.8952                 3.0729                 1.7291

                    31                     32                     33
                     A                      A                      A
 Frequencies --   442.7297               481.5366               494.4962
 Red. masses --     4.5333                 4.3912                 4.3700
 Frc consts  --     0.5235                 0.5999                 0.6296
 IR Inten    --     4.9776                 4.4069                18.9933
 Raman Activ --     4.0770                 1.7398                 0.4936

                    34                     35                     36
                     A                      A                      A
 Frequencies --   511.9142               536.0543               573.0302
 Red. masses --     3.6235                 3.1112                 3.9976
 Frc consts  --     0.5595                 0.5267                 0.7734
 IR Inten    --    10.6494                 8.1907                17.5613
 Raman Activ --     4.4709                 3.5472                 2.0417

                    37                     38                     39
                     A                      A                      A
 Frequencies --   593.9874               601.1039               609.2954
 Red. masses --     2.9286                 6.1161                 5.7267
 Frc consts  --     0.6088                 1.3020                 1.2526
 IR Inten    --    30.6577                 2.5928                44.1174
 Raman Activ --     0.6168                 0.8603                 1.2296

                    40                     41                     42
                     A                      A                      A
 Frequencies --   639.7915               677.5403               692.4057
 Red. masses --     4.0103                 5.4943                 1.0429
 Frc consts  --     0.9672                 1.4861                 0.2946
 IR Inten    --    11.6153                16.0848                80.2041
 Raman Activ --     0.9183                 0.4652                 1.9825

                    43                     44                     45
                     A                      A                      A
 Frequencies --   713.8787               736.8653               779.6377
 Red. masses --     1.0770                 1.0853                 1.0841
 Frc consts  --     0.3234                 0.3472                 0.3883
 IR Inten    --    97.5953               134.0690                85.3800
 Raman Activ --     1.4589                 1.8323                 1.2552

                    46                     47                     48
                     A                      A                      A
 Frequencies --   805.2015               847.9559               852.9163
 Red. masses --     1.1211                 1.6578                 1.3124
 Frc consts  --     0.4282                 0.7023                 0.5625
 IR Inten    --   156.8721                16.4494                27.8018
 Raman Activ --     5.2862                 0.6796                 0.0621

                    49                     50                     51
                     A                      A                      A
 Frequencies --   882.0346               937.2603               958.1320
 Red. masses --     1.4026                 4.9052                 5.3992
 Frc consts  --     0.6429                 2.5388                 2.9203
 IR Inten    --    38.7237                97.7088                16.9262
 Raman Activ --     0.6106                 3.6735                 0.6604

                    52                     53                     54
                     A                      A                      A
 Frequencies --   969.0870               972.6073               992.0504
 Red. masses --     5.3331                 4.6734                 5.3934
 Frc consts  --     2.9509                 2.6047                 3.1274
 IR Inten    --    38.4634                92.4519               235.8125
 Raman Activ --     1.7192                 1.1604                 0.5244

                    55                     56                     57
                     A                      A                      A
 Frequencies --   998.5772              1015.1955              1028.2898
 Red. masses --     6.0967                 5.7334                 6.1437
 Frc consts  --     3.5819                 3.4815                 3.8275
 IR Inten    --   253.4923                70.3245                86.6664
 Raman Activ --     1.8278                 0.9638                 4.1108

                    58                     59                     60
                     A                      A                      A
 Frequencies --  1030.0773              1052.0487              1060.5382
 Red. masses --     6.9260                 6.6373                 4.6544
 Frc consts  --     4.3299                 4.3282                 3.0844
 IR Inten    --   339.9195               164.3471                49.4405
 Raman Activ --     2.0409                 1.6105                 0.2628

                    61                     62                     63
                     A                      A                      A
 Frequencies --  1069.9766              1072.4320              1078.0982
 Red. masses --     3.6192                 3.7118                 4.6549
 Frc consts  --     2.4412                 2.5152                 3.1877
 IR Inten    --     5.4992                17.5588                70.8295
 Raman Activ --     5.4504                19.7498                10.8076

                    64                     65                     66
                     A                      A                      A
 Frequencies --  1099.7576              1106.9779              1111.5480
 Red. masses --     2.3465                 2.9879                 2.6860
 Frc consts  --     1.6721                 2.1572                 1.9553
 IR Inten    --     5.8961                97.1394                60.9695
 Raman Activ --     3.6262                 2.1133                12.0934

                    67                     68                     69
                     A                      A                      A
 Frequencies --  1118.5825              1122.0153              1129.1116
 Red. masses --     1.7089                 2.5722                 2.7484
 Frc consts  --     1.2598                 1.9079                 2.0645
 IR Inten    --    25.3738                32.9524                28.1898
 Raman Activ --     3.1663                 8.8117                 7.4734

                    70                     71                     72
                     A                      A                      A
 Frequencies --  1138.7651              1143.3791              1152.0418
 Red. masses --     2.7983                 2.8527                 1.9909
 Frc consts  --     2.1380                 2.1973                 1.5568
 IR Inten    --    18.2031                93.7655                 4.5664
 Raman Activ --     5.8474                 0.8936                 3.4670

                    73                     74                     75
                     A                      A                      A
 Frequencies --  1157.5201              1165.4550              1181.8691
 Red. masses --     1.7226                 1.7615                 2.0626
 Frc consts  --     1.3598                 1.4097                 1.6975
 IR Inten    --    29.5966                 8.0185                 1.6169
 Raman Activ --     2.0703                 2.0500                 2.9822

                    76                     77                     78
                     A                      A                      A
 Frequencies --  1208.2867              1214.7361              1228.7676
 Red. masses --     1.4255                 1.4168                 1.2453
 Frc consts  --     1.2262                 1.2318                 1.1078
 IR Inten    --    12.4936                 3.3193                 8.9621
 Raman Activ --     2.4547                 1.4337                 3.0287

                    79                     80                     81
                     A                      A                      A
 Frequencies --  1237.3392              1255.4438              1264.9556
 Red. masses --     1.2828                 1.2977                 1.3284
 Frc consts  --     1.1572                 1.2050                 1.2524
 IR Inten    --     6.5931                 3.0086                30.9392
 Raman Activ --     3.3635                 0.9053                 1.7793

                    82                     83                     84
                     A                      A                      A
 Frequencies --  1272.8135              1283.0553              1287.8979
 Red. masses --     1.2542                 1.2261                 1.3576
 Frc consts  --     1.1972                 1.1892                 1.3267
 IR Inten    --     6.3897                 5.3554                50.6335
 Raman Activ --     3.3191                 3.2302                 6.1867

                    85                     86                     87
                     A                      A                      A
 Frequencies --  1291.4673              1299.4329              1300.6680
 Red. masses --     1.2072                 1.3831                 1.3299
 Frc consts  --     1.1863                 1.3760                 1.3255
 IR Inten    --     8.5195                13.9846                62.3045
 Raman Activ --     3.0315                 3.6198                 1.5782

                    88                     89                     90
                     A                      A                      A
 Frequencies --  1312.6064              1323.6648              1330.1060
 Red. masses --     1.2655                 1.2455                 1.2778
 Frc consts  --     1.2847                 1.2857                 1.3320
 IR Inten    --     5.9417                 5.0425                 6.0038
 Raman Activ --    11.0383                 9.4101                 1.4826

                    91                     92                     93
                     A                      A                      A
 Frequencies --  1334.9745              1341.4913              1352.0868
 Red. masses --     1.2094                 1.2619                 1.2885
 Frc consts  --     1.2699                 1.3380                 1.3878
 IR Inten    --    67.3998                 8.5082                23.7228
 Raman Activ --     5.9796                 0.3257                 5.4401

                    94                     95                     96
                     A                      A                      A
 Frequencies --  1360.1088              1366.1570              1370.4270
 Red. masses --     1.2150                 1.4020                 1.5594
 Frc consts  --     1.3242                 1.5417                 1.7256
 IR Inten    --    15.7394                13.8479                 2.9296
 Raman Activ --     3.8599                 3.8770                 6.5677

                    97                     98                     99
                     A                      A                      A
 Frequencies --  1380.9707              1400.1977              1404.7321
 Red. masses --     1.3481                 1.3777                 1.4633
 Frc consts  --     1.5147                 1.5914                 1.7013
 IR Inten    --    23.1706                12.1830                10.2972
 Raman Activ --     2.0777                 2.1896                 7.9170

                   100                    101                    102
                     A                      A                      A
 Frequencies --  1418.2447              1449.6699              1464.9025
 Red. masses --     1.2752                 1.3397                 1.3422
 Frc consts  --     1.5113                 1.6588                 1.6970
 IR Inten    --     1.3393                66.0490                 7.2814
 Raman Activ --     4.4167                 1.5033                 1.6825

                   103                    104                    105
                     A                      A                      A
 Frequencies --  1471.7770              1478.5338              1486.6032
 Red. masses --     1.0828                 1.1110                 1.3281
 Frc consts  --     1.3820                 1.4310                 1.7293
 IR Inten    --     6.8169                 3.0363                56.4140
 Raman Activ --     4.9860                 3.4675                 1.1228

                   106                    107                    108
                     A                      A                      A
 Frequencies --  1489.5682              1500.5791              3248.0264
 Red. masses --     1.3413                 1.3084                 1.0672
 Frc consts  --     1.7535                 1.7359                 6.6332
 IR Inten    --    47.4072                39.7801               765.2531
 Raman Activ --     1.1025                 2.1360                90.6585

                   109                    110                    111
                     A                      A                      A
 Frequencies --  3254.5399              3254.7299              3265.2662
 Red. masses --     1.0783                 1.0606                 1.0611
 Frc consts  --     6.7293                 6.6196                 6.6654
 IR Inten    --    99.6987                13.5756               102.5259
 Raman Activ --    85.6826                32.0872               240.1032

                   112                    113                    114
                     A                      A                      A
 Frequencies --  3268.3674              3274.1802              3275.0648
 Red. masses --     1.0818                 1.0830                 1.0833
 Frc consts  --     6.8089                 6.8402                 6.8460
 IR Inten    --     1.7858                 3.4950                26.7310
 Raman Activ --   115.2136                70.8348                 6.3729

                   115                    116                    117
                     A                      A                      A
 Frequencies --  3285.2746              3286.3918              3287.6994
 Red. masses --     1.0849                 1.0860                 1.0868
 Frc consts  --     6.8992                 6.9106                 6.9212
 IR Inten    --     3.9679                 8.7600                 5.8140
 Raman Activ --     9.5125               107.8906                24.0674

                   118                    119                    120
                     A                      A                      A
 Frequencies --  3291.9257              3300.4457              3305.2630
 Red. masses --     1.0863                 1.0886                 1.0887
 Frc consts  --     6.9357                 6.9864                 7.0078
 IR Inten    --    58.5177                 7.0284                47.7499
 Raman Activ --   108.2427                 4.8788                25.8879

                   121                    122                    123
                     A                      A                      A
 Frequencies --  3309.4462              3316.5382              3334.6559
 Red. masses --     1.1019                 1.1031                 1.0654
 Frc consts  --     7.1104                 7.1489                 6.9803
 IR Inten    --    68.6851                54.9364               370.3135
 Raman Activ --    17.0829                45.2332               122.4428

                   124                    125                    126
                     A                      A                      A
 Frequencies --  3359.9101              3360.2370              3375.3032
 Red. masses --     1.0649                 1.0662                 1.0670
 Frc consts  --     7.0830                 7.0929                 7.1618
 IR Inten    --    37.3416                45.7265                80.8341
 Raman Activ --    74.8767               151.8776               131.3662

                   127                    128                    129
                     A                      A                      A
 Frequencies --  3376.8591              3889.8457              3890.0346
 Red. masses --     1.0677                 1.0678                 1.0675
 Frc consts  --     7.1734                 9.5191                 9.5177
 IR Inten    --    38.3885               126.0365                40.5925
 Raman Activ --   138.6636                40.5567               149.2399

 - Thermochemistry -
 -------------------
 Temperature   298.150 Kelvin.  Pressure   1.00000 Atm.
 Atom     1 has atomic number  8 and mass  15.99491

 Molecular mass:   342.11621 amu.
 Principal axes and moments of inertia in atomic units:
                           1         2         3
     Eigenvalues --  4389.73249********************
           X            0.99997   0.00730   0.00044
           Y           -0.00731   0.99997   0.00189
           Z           -0.00043  -0.00189   1.00000
 This molecule is an asymmetric top.
 Rotational symmetry number  1.
 Warning -- assumption of classical behavior for rotation
           may cause significant error
 Rotational temperatures (Kelvin)      0.01973     0.00702     0.00533
 Rotational constants (GHZ):           0.41113     0.14619     0.11114
    6 imaginary frequencies ignored.
 Zero-point vibrational energy     976665.4 (Joules/Mol)
                                  233.42863 (Kcal/Mol)
 Warning -- explicit consideration of  33 degrees of freedom as
           vibrations may cause significant error
 Vibrational temperatures:     32.43    67.34    90.26   125.77   150.41
          (Kelvin)            202.05   239.38   265.12   283.79   313.67
                              340.20   382.83   399.23   424.89   439.46
                              456.70   467.81   477.89   501.84   523.50
                              566.26   587.00   609.22   627.57   636.99
                              692.82   711.47   736.53   771.26   824.46
                              854.61   864.85   876.64   920.52   974.83
                              996.22  1027.11  1060.18  1121.72  1158.50
                             1220.02  1227.15  1269.05  1348.51  1378.54
                             1394.30  1399.36  1427.34  1436.73  1460.64
                             1479.48  1482.05  1513.66  1525.88  1539.46
                             1542.99  1551.14  1582.30  1592.69  1599.27
                             1609.39  1614.33  1624.54  1638.43  1645.07
                             1657.53  1665.41  1676.83  1700.44  1738.45
                             1747.73  1767.92  1780.25  1806.30  1819.99
                             1831.29  1846.03  1853.00  1858.13  1869.59
                             1871.37  1888.55  1904.46  1913.72  1920.73
                             1930.10  1945.35  1956.89  1965.59  1971.74
                             1986.91  2014.57  2021.09  2040.54  2085.75
                             2107.67  2117.56  2127.28  2138.89  2143.15
                             2159.00  4673.18  4682.55  4682.82  4697.98
                             4702.45  4710.81  4712.08  4726.77  4728.38
                             4730.26  4736.34  4748.60  4755.53  4761.55
                             4771.75  4797.82  4834.16  4834.63  4856.30
                             4858.54  5596.61  5596.89

 Zero-point correction=                           0.371992 (Hartree/Particle)
 Thermal correction to Energy=                    0.390928
 Thermal correction to Enthalpy=                  0.391872
 Thermal correction to Gibbs Free Energy=         0.324875
 Sum of electronic and zero-point Energies=          -1297.611369
 Sum of electronic and thermal Energies=             -1297.592433
 Sum of electronic and thermal Enthalpies=           -1297.591489
 Sum of electronic and thermal Free Energies=        -1297.658486

                     E (Thermal)             CV                S
                      KCal/Mol        Cal/Mol-Kelvin    Cal/Mol-Kelvin
 Total                  245.311             77.421            141.007
 Electronic               0.000              0.000              0.000
 Translational            0.889              2.981             43.384
 Rotational               0.889              2.981             35.130
 Vibrational            243.534             71.459             62.492
 Vibration     1          0.593              1.985              6.397
 Vibration     2          0.595              1.979              4.948
 Vibration     3          0.597              1.972              4.369
 Vibration     4          0.601              1.958              3.717
 Vibration     5          0.605              1.946              3.368
 Vibration     6          0.615              1.913              2.798
 Vibration     7          0.624              1.884              2.476
 Vibration     8          0.631              1.861              2.285
 Vibration     9          0.637              1.844              2.159
 Vibration    10          0.646              1.814              1.976
 Vibration    11          0.655              1.785              1.829
 Vibration    12          0.672              1.735              1.622
 Vibration    13          0.678              1.715              1.549
 Vibration    14          0.690              1.682              1.443
 Vibration    15          0.696              1.663              1.387
 Vibration    16          0.704              1.640              1.323
 Vibration    17          0.709              1.625              1.284
 Vibration    18          0.714              1.611              1.250
 Vibration    19          0.726              1.578              1.172
 Vibration    20          0.737              1.547              1.106
 Vibration    21          0.761              1.484              0.987
 Vibration    22          0.773              1.453              0.934
 Vibration    23          0.786              1.419              0.880
 Vibration    24          0.797              1.391              0.839
 Vibration    25          0.802              1.377              0.818
 Vibration    26          0.838              1.291              0.706
 Vibration    27          0.850              1.262              0.672
 Vibration    28          0.867              1.224              0.629
 Vibration    29          0.891              1.170              0.574
 Vibration    30          0.929              1.090              0.498
 Vibration    31          0.952              1.045              0.460
 Vibration    32          0.959              1.029              0.448
 Vibration    33          0.968              1.012              0.434

 Normal termination of Gaussian 09 at Tue Mar 29 02:15:08 2016.
