 Gaussian 09, Revision B.01,
 Gaussian 09:  EM64L-G09RevB.01 12-Aug-2010

 -------------------------------------------------
 # freq=raman b3lyp/6-31+g(2d,p) geom=connectivity
 -------------------------------------------------

 -----------------
 423 7523/7523.com
 -----------------
 Symbolic Z-matrix:
 Charge =  0 Multiplicity = 1

                         Standard orientation:
 ---------------------------------------------------------------------
 Center     Atomic      Atomic             Coordinates (Angstroms)
 Number     Number       Type             X           Y           Z
 ---------------------------------------------------------------------
      1          8           0       -5.044390   -0.489116    0.429962
      2          6           0       -3.800602   -0.093168   -0.165671
      3          6           0       -3.297420    1.245266    0.349191
      4          8           0       -4.329364    2.226352    0.165349
      5          1           0       -5.159617    1.679237    0.274408
      6          6           0       -1.937905    1.592775   -0.235185
      7          8           0       -1.306837    2.853355    0.032184
      8          1           0       -0.401211    2.936841   -0.383891
      9          6           0       -3.028526   -2.633096   -0.186922
     10          8           0       -4.139176   -3.191098    0.530723
     11          1           0       -4.058195   -4.188110    0.523081
     12          6           0       -2.756855   -1.165953    0.101680
     13          8           0       -1.451259   -0.788495   -0.358544
     14          6           0       -0.933873    0.487483    0.046343
     15          8           0        0.294320    0.434208   -0.694458
     16          6           0        1.558861    0.185963   -0.064337
     17          6           0        2.104165   -1.163103   -0.503614
     18          8           0        1.013596   -2.089419   -0.408531
     19          1           0        0.162443   -1.619560   -0.643167
     20          6           0        3.415215   -1.516208    0.180362
     21          8           0        4.006397   -2.638369   -0.491048
     22          1           0        4.824639   -2.858207    0.038448
     23          6           0        2.243848    2.595423    0.224950
     24          8           0        1.194031    3.355967   -0.390006
     25          1           0        1.395010    4.327170   -0.261728
     26          6           0        2.662229    1.214572   -0.254041
     27          8           0        3.826406    0.811337    0.482081
     28          6           0        4.458087   -0.414796    0.085668
     29          8           0        5.507919   -0.583820    1.049706
     30          1           0        6.335991   -0.753504    0.594619
     31          1           0       -5.662346   -0.744016   -0.259063
     32          1           0       -2.151278   -3.193519    0.060588
     33          1           0       -3.215364   -2.741652   -1.234876
     34          1           0       -2.663328   -1.145395    1.167386
     35          1           0       -3.942661   -0.015782   -1.223372
     36          1           0       -3.158615    1.139150    1.404829
     37          1           0       -2.085878    1.579801   -1.294824
     38          1           0       -0.716633    0.465535    1.093828
     39          1           0        3.121255    3.206785    0.188991
     40          1           0        1.977117    2.490069    1.255802
     41          1           0        2.910495    1.268716   -1.293432
     42          1           0        1.372353    0.122215    0.987352
     43          1           0        2.330032   -1.073753   -1.545679
     44          1           0        3.236128   -1.760121    1.206683
     45          1           0        4.853187   -0.340069   -0.905902
 ---------------------------------------------------------------------

 SCF Done:  E(RB3LYP) =  -1297.96667155     A.U. after   13 cycles

 The electronic state is 1-A.
 Alpha  occ. eigenvalues --  -19.19168 -19.18855 -19.18070 -19.17866 -19.17597
 Alpha  occ. eigenvalues --  -19.17565 -19.16373 -19.16233 -19.15207 -19.13122
 Alpha  occ. eigenvalues --  -19.13046 -10.31177 -10.30789 -10.26383 -10.25619
 Alpha  occ. eigenvalues --  -10.25418 -10.25411 -10.25072 -10.25040 -10.24874
 Alpha  occ. eigenvalues --  -10.24660 -10.24310 -10.24109  -1.09978  -1.09349
 Alpha  occ. eigenvalues --   -1.05918  -1.05780  -1.03904  -1.03644  -1.03025
 Alpha  occ. eigenvalues --   -1.02550  -1.01958  -1.00213  -0.99708  -0.82266
 Alpha  occ. eigenvalues --   -0.80534  -0.79483  -0.78461  -0.72016  -0.70392
 Alpha  occ. eigenvalues --   -0.67824  -0.64846  -0.63267  -0.62464  -0.61281
 Alpha  occ. eigenvalues --   -0.60272  -0.56880  -0.56143  -0.55421  -0.54934
 Alpha  occ. eigenvalues --   -0.54120  -0.53519  -0.53130  -0.51603  -0.51215
 Alpha  occ. eigenvalues --   -0.50678  -0.49953  -0.49735  -0.48779  -0.46843
 Alpha  occ. eigenvalues --   -0.46389  -0.45525  -0.44689  -0.44381  -0.43459
 Alpha  occ. eigenvalues --   -0.42873  -0.41996  -0.41428  -0.39842  -0.39019
 Alpha  occ. eigenvalues --   -0.38385  -0.38261  -0.37775  -0.36481  -0.35941
 Alpha  occ. eigenvalues --   -0.35470  -0.34826  -0.34025  -0.33739  -0.33090
 Alpha  occ. eigenvalues --   -0.32423  -0.31615  -0.31060  -0.30700  -0.29773
 Alpha  occ. eigenvalues --   -0.29224  -0.28666  -0.28007  -0.26922  -0.26388
 Alpha  occ. eigenvalues --   -0.26128
 Alpha virt. eigenvalues --   -0.02257  -0.02141  -0.01825  -0.00134   0.00340
 Alpha virt. eigenvalues --    0.01118   0.01790   0.02313   0.02892   0.03285
 Alpha virt. eigenvalues --    0.04048   0.04154   0.04661   0.05339   0.05415

 Mulliken atomic charges:
              1
     1  O   -0.536072
     2  C   -0.111234
     3  C    0.245592
     4  O   -0.551364
     5  H    0.349554
     6  C   -0.178948
     7  O   -0.566003
     8  H    0.412215
     9  C   -0.197804
    10  O   -0.510775
    11  H    0.343002
    12  C    0.029118
    13  O   -0.263372
    14  C    0.407907
    15  O   -0.270009
    16  C    0.281487
    17  C    0.086340
    18  O   -0.580063
    19  H    0.400643
    20  C    0.178792
    21  O   -0.526105
    22  H    0.327623
    23  C   -0.265061
    24  O   -0.553490
    25  H    0.359559
    26  C   -0.090751
    27  O   -0.238666
    28  C    0.069739
    29  O   -0.525828
    30  H    0.336130
    31  H    0.347052
    32  H    0.157149
    33  H    0.137264
    34  H    0.108202
    35  H    0.119299
    36  H    0.114247
    37  H    0.116464
    38  H    0.116901
    39  H    0.143307
    40  H    0.158742
    41  H    0.120545
    42  H    0.109911
    43  H    0.114064
    44  H    0.136100
    45  H    0.138599
 Sum of Mulliken atomic charges =   0.00000

 Dipole moment (field-independent basis, Debye):
    X=              3.1295    Y=             -0.6012    Z=             -1.4531  Tot=              3.5024
 Quadrupole moment (field-independent basis, Debye-Ang):
   XX=           -112.4029   YY=           -136.1338   ZZ=           -141.9835
   XY=             19.3760   XZ=              4.5818   YZ=             -2.9593

  Exact polarizability: 237.334  -1.368 196.892   1.275   0.630 145.151
 Approx polarizability: 279.034  -0.713 256.098   1.338   0.514 240.642

 ******    8 imaginary frequencies (negative Signs) ******

                     1                      2                      3
                     A                      A                      A
 Frequencies --  -295.8836              -263.5485              -214.4039
 Red. masses --     1.6937                 1.7709                 1.2275
 Frc consts  --     0.0874                 0.0725                 0.0332
 IR Inten    --     2.4674                 9.6032               106.2198
 Raman Activ --     0.0089                 0.1695                 0.7070

                     4                      5                      6
                     A                      A                      A
 Frequencies --  -168.9195               -99.7280               -62.6900
 Red. masses --     1.3213                 7.0904                 6.3741
 Frc consts  --     0.0222                 0.0415                 0.0148
 IR Inten    --    85.8531                 1.5068                 0.1408
 Raman Activ --     0.7536                 0.0425                 0.0720

                     7                      8                      9
                     A                      A                      A
 Frequencies --   -42.5932               -25.2750                38.1737
 Red. masses --     6.7189                 5.8709                 6.8834
 Frc consts  --     0.0072                 0.0022                 0.0059
 IR Inten    --     0.8154                 2.1557                 0.5916
 Raman Activ --     0.0598                 0.0426                 0.1134

                    10                     11                     12
                     A                      A                      A
 Frequencies --    81.1015                91.2250               114.7294
 Red. masses --     6.1713                 4.8228                 5.9195
 Frc consts  --     0.0239                 0.0236                 0.0459
 IR Inten    --     2.2557                12.5597                 0.2440
 Raman Activ --     0.2718                 0.0822                 0.0555

                    13                     14                     15
                     A                      A                      A
 Frequencies --   143.5288               164.3595               183.1054
 Red. masses --     5.8168                 6.2203                 6.8098
 Frc consts  --     0.0706                 0.0990                 0.1345
 IR Inten    --     9.0073                 1.1917                 1.3040
 Raman Activ --     0.1005                 0.9946                 1.1063

                    16                     17                     18
                     A                      A                      A
 Frequencies --   210.7280               230.3083               240.3531
 Red. masses --     6.8310                 4.6465                 5.0530
 Frc consts  --     0.1787                 0.1452                 0.1720
 IR Inten    --     1.1267                 7.4318                11.9809
 Raman Activ --     3.3483                 0.1347                 0.1521

                    19                     20                     21
                     A                      A                      A
 Frequencies --   263.8115               287.6380               298.5212
 Red. masses --     4.8672                 4.7209                 6.8241
 Frc consts  --     0.1996                 0.2301                 0.3583
 IR Inten    --     1.9069                 0.9139                 4.0020
 Raman Activ --     0.1723                 0.1145                 3.2073

                    22                     23                     24
                     A                      A                      A
 Frequencies --   302.9302               314.5848               327.6807
 Red. masses --     4.9344                 4.9683                 4.9004
 Frc consts  --     0.2668                 0.2897                 0.3100
 IR Inten    --     2.6614                 1.6330                 6.0653
 Raman Activ --     1.1442                 1.5064                 1.3402

                    25                     26                     27
                     A                      A                      A
 Frequencies --   349.2743               364.0186               370.1382
 Red. masses --     6.6189                 5.2425                 8.6919
 Frc consts  --     0.4757                 0.4093                 0.7016
 IR Inten    --    10.5843                 4.6171                 5.8492
 Raman Activ --     3.4860                 0.2223                 2.0313

                    28                     29                     30
                     A                      A                      A
 Frequencies --   388.2855               411.7985               421.6119
 Red. masses --     3.7133                 5.9427                 6.5477
 Frc consts  --     0.3298                 0.5938                 0.6857
 IR Inten    --    14.8870                 1.3632                 3.4787
 Raman Activ --     2.0502                 9.1771                 0.8560

                    31                     32                     33
                     A                      A                      A
 Frequencies --   435.0168               465.5026               478.2597
 Red. masses --     4.1937                 4.6968                 4.0970
 Frc consts  --     0.4676                 0.5997                 0.5521
 IR Inten    --     1.3733                 0.9960                10.7154
 Raman Activ --     1.2477                 2.8850                 1.8079

                    34                     35                     36
                     A                      A                      A
 Frequencies --   507.5922               513.2451               558.7680
 Red. masses --     4.1184                 3.4987                 3.1456
 Frc consts  --     0.6252                 0.5430                 0.5787
 IR Inten    --    17.9054                 6.8059                61.3456
 Raman Activ --     1.9385                 5.3858                 0.4415

                    37                     38                     39
                     A                      A                      A
 Frequencies --   575.4910               594.7421               613.4370
 Red. masses --     3.1359                 6.0867                 5.0446
 Frc consts  --     0.6119                 1.2685                 1.1184
 IR Inten    --    13.7709                12.6739                33.3496
 Raman Activ --     1.4127                 0.4936                 1.8785

                    40                     41                     42
                     A                      A                      A
 Frequencies --   617.2544               678.9971               693.5005
 Red. masses --     4.6224                 1.0897                 5.0187
 Frc consts  --     1.0376                 0.2960                 1.4221
 IR Inten    --    10.7580               111.8781                19.2836
 Raman Activ --     0.4163                 1.9353                 1.2422

                    43                     44                     45
                     A                      A                      A
 Frequencies --   706.0642               745.5600               754.7996
 Red. masses --     1.1002                 1.0584                 1.0933
 Frc consts  --     0.3231                 0.3466                 0.3670
 IR Inten    --    94.3921               133.2662                95.3329
 Raman Activ --     2.2072                 1.5152                 1.7384

                    46                     47                     48
                     A                      A                      A
 Frequencies --   763.8394               770.0023               851.0565
 Red. masses --     1.0765                 1.0833                 1.8377
 Frc consts  --     0.3701                 0.3784                 0.7842
 IR Inten    --    74.5140               103.6920                 2.2127
 Raman Activ --     1.1004                 3.1674                 0.9211

                    49                     50                     51
                     A                      A                      A
 Frequencies --   851.9444               900.6008               935.8231
 Red. masses --     1.7720                 5.8432                 5.4815
 Frc consts  --     0.7578                 2.7923                 2.8284
 IR Inten    --     0.2553               204.2658                44.7407
 Raman Activ --     0.3719                 2.8371                 0.6257

                    52                     53                     54
                     A                      A                      A
 Frequencies --   966.0205               971.3689               985.2861
 Red. masses --     5.5284                 5.0330                 5.1416
 Frc consts  --     3.0396                 2.7980                 2.9409
 IR Inten    --    92.2629               116.3145                52.0240
 Raman Activ --     0.8821                 3.2379                 1.1562

                    55                     56                     57
                     A                      A                      A
 Frequencies --   990.7204              1010.4575              1016.0536
 Red. masses --     7.2700                 5.5553                 6.4577
 Frc consts  --     4.2042                 3.3419                 3.9279
 IR Inten    --   404.9373                69.6226               123.2606
 Raman Activ --     1.0736                 3.6652                 3.3633

                    58                     59                     60
                     A                      A                      A
 Frequencies --  1031.8959              1053.0930              1054.5240
 Red. masses --     5.9355                 5.3938                 3.8990
 Frc consts  --     3.7237                 3.5243                 2.5546
 IR Inten    --   269.5021               175.9569                 3.9953
 Raman Activ --     2.4509                 0.8447                10.3217

                    61                     62                     63
                     A                      A                      A
 Frequencies --  1067.0201              1076.8869              1080.2666
 Red. masses --     4.4167                 4.4022                 4.6857
 Frc consts  --     2.9627                 3.0079                 3.2217
 IR Inten    --     9.5650                27.3340                26.0286
 Raman Activ --     4.1598                10.6477                11.9054

                    64                     65                     66
                     A                      A                      A
 Frequencies --  1096.8515              1106.5674              1114.2948
 Red. masses --     3.0307                 2.8545                 2.5720
 Frc consts  --     2.1483                 2.0594                 1.8816
 IR Inten    --    48.5373                25.4772                58.1829
 Raman Activ --    12.5710                 4.9195                 1.3211

                    67                     68                     69
                     A                      A                      A
 Frequencies --  1118.9837              1123.9941              1142.2970
 Red. masses --     3.5667                 3.4209                 2.6017
 Frc consts  --     2.6313                 2.5463                 2.0001
 IR Inten    --   100.4994                16.1103                88.0099
 Raman Activ --     6.2635                 3.3326                 4.9833

                    70                     71                     72
                     A                      A                      A
 Frequencies --  1150.3189              1155.9289              1166.3056
 Red. masses --     1.8060                 2.9171                 1.7779
 Frc consts  --     1.4080                 2.2965                 1.4249
 IR Inten    --    13.7661                17.3880                 2.2507
 Raman Activ --     5.3414                 4.9264                 1.0549

                    73                     74                     75
                     A                      A                      A
 Frequencies --  1171.3991              1184.1742              1204.8531
 Red. masses --     1.9603                 1.9521                 1.4524
 Frc consts  --     1.5848                 1.6128                 1.2423
 IR Inten    --     0.8015                 2.0390                 8.5116
 Raman Activ --     2.8732                 4.0444                 0.5951

                    76                     77                     78
                     A                      A                      A
 Frequencies --  1207.1353              1209.7532              1230.4497
 Red. masses --     1.5909                 1.3656                 1.1922
 Frc consts  --     1.3659                 1.1775                 1.0635
 IR Inten    --    11.9167                 3.7558                16.3681
 Raman Activ --     3.3897                 0.8883                 2.0679

                    79                     80                     81
                     A                      A                      A
 Frequencies --  1233.7663              1247.3176              1258.4164
 Red. masses --     1.2501                 1.2983                 1.3066
 Frc consts  --     1.1212                 1.1901                 1.2191
 IR Inten    --     7.1645                 0.3520                20.0867
 Raman Activ --     1.1159                 1.2413                 1.0207

                    82                     83                     84
                     A                      A                      A
 Frequencies --  1278.6806              1284.0653              1290.4192
 Red. masses --     1.2618                 1.4194                 1.2456
 Frc consts  --     1.2155                 1.3789                 1.2221
 IR Inten    --     2.8286                53.2086                 3.5426
 Raman Activ --     3.5158                 1.1976                 3.1930

                    85                     86                     87
                     A                      A                      A
 Frequencies --  1295.1842              1302.4418              1311.6602
 Red. masses --     1.2377                 1.3811                 1.2146
 Frc consts  --     1.2233                 1.3804                 1.2312
 IR Inten    --    27.5670                 1.9411                13.5229
 Raman Activ --     2.1454                 1.6469                 5.7978

                    88                     89                     90
                     A                      A                      A
 Frequencies --  1316.5846              1319.4107              1338.0356
 Red. masses --     1.2514                 1.2347                 1.3129
 Frc consts  --     1.2781                 1.2664                 1.3849
 IR Inten    --    24.1195                 7.2716                18.4527
 Raman Activ --     2.0720                 2.7443                10.1267

                    91                     92                     93
                     A                      A                      A
 Frequencies --  1345.0081              1347.4434              1357.7927
 Red. masses --     1.1782                 1.2052                 1.1404
 Frc consts  --     1.2558                 1.2892                 1.2387
 IR Inten    --    20.9209                37.1872                18.8971
 Raman Activ --     5.1690                 3.3416                 9.8542

                    94                     95                     96
                     A                      A                      A
 Frequencies --  1367.6422              1371.9588              1375.8676
 Red. masses --     1.2702                 1.2698                 1.5380
 Frc consts  --     1.3999                 1.4082                 1.7154
 IR Inten    --    14.9733                42.9149                 5.8074
 Raman Activ --     0.9247                 6.0327                 6.1124

                    97                     98                     99
                     A                      A                      A
 Frequencies --  1389.1497              1394.7747              1403.7685
 Red. masses --     1.3806                 1.3543                 1.3948
 Frc consts  --     1.5697                 1.5523                 1.6194
 IR Inten    --     1.3306                 3.4812                 6.6254
 Raman Activ --     3.9573                 7.6290                 6.0302

                   100                    101                    102
                     A                      A                      A
 Frequencies --  1441.7982              1451.8697              1461.1362
 Red. masses --     1.3186                 1.3048                 1.4108
 Frc consts  --     1.6150                 1.6205                 1.7746
 IR Inten    --    63.2200                49.2517                16.9333
 Raman Activ --     1.0914                 1.1777                 1.6530

                   103                    104                    105
                     A                      A                      A
 Frequencies --  1469.8403              1474.8775              1475.5646
 Red. masses --     1.0918                 1.2448                 1.1759
 Frc consts  --     1.3898                 1.5953                 1.5084
 IR Inten    --    17.5972                16.1983                30.5603
 Raman Activ --     5.4749                 4.0721                 4.7373

                   106                    107                    108
                     A                      A                      A
 Frequencies --  1480.1851              1492.2791              3240.8337
 Red. masses --     1.3063                 1.3316                 1.0701
 Frc consts  --     1.6862                 1.7471                 6.6218
 IR Inten    --     8.2655                90.2138               698.0609
 Raman Activ --     0.2688                 1.3036               138.5638

                   109                    110                    111
                     A                      A                      A
 Frequencies --  3246.9928              3256.9302              3258.6372
 Red. masses --     1.0747                 1.0649                 1.0743
 Frc consts  --     6.6759                 6.6552                 6.7213
 IR Inten    --    60.5013                55.0293                73.6441
 Raman Activ --    82.2999               123.3365                16.2613

                   112                    113                    114
                     A                      A                      A
 Frequencies --  3260.7486              3262.9483              3265.4475
 Red. masses --     1.0765                 1.0667                 1.0808
 Frc consts  --     6.7434                 6.6913                 6.7905
 IR Inten    --    61.0247                41.9164                31.9585
 Raman Activ --   217.6192                96.9324                24.8796

                   115                    116                    117
                     A                      A                      A
 Frequencies --  3269.0560              3280.9738              3283.8627
 Red. masses --     1.0812                 1.0855                 1.0838
 Frc consts  --     6.8077                 6.8845                 6.8863
 IR Inten    --     8.0855                 9.9133                53.4713
 Raman Activ --    63.4351                66.4925                17.3249

                   118                    119                    120
                     A                      A                      A
 Frequencies --  3289.4155              3290.4305              3299.5490
 Red. masses --     1.0857                 1.0854                 1.0739
 Frc consts  --     6.9217                 6.9240                 6.8887
 IR Inten    --     7.3504               131.1653               567.8940
 Raman Activ --   103.5221                12.0093                97.4404

                   121                    122                    123
                     A                      A                      A
 Frequencies --  3302.9119              3312.4908              3314.4276
 Red. masses --     1.0838                 1.1039                 1.1066
 Frc consts  --     6.9662                 7.1367                 7.1622
 IR Inten    --   154.3671                62.1321                43.3486
 Raman Activ --    28.5519                31.9233                41.4333

                   124                    125                    126
                     A                      A                      A
 Frequencies --  3346.6651              3365.5102              3374.7815
 Red. masses --     1.0649                 1.0677                 1.0678
 Frc consts  --     7.0275                 7.1250                 7.1656
 IR Inten    --    54.3607                44.6733                80.1847
 Raman Activ --    76.4475               168.5556               137.3462

                   127                    128                    129
                     A                      A                      A
 Frequencies --  3377.7385              3891.2023              3893.5063
 Red. masses --     1.0655                 1.0676                 1.0674
 Frc consts  --     7.1621                 9.5242                 9.5339
 IR Inten    --    24.3647                87.6473                77.8731
 Raman Activ --   134.2515                84.0471               124.4094

 - Thermochemistry -
 -------------------
 Temperature   298.150 Kelvin.  Pressure   1.00000 Atm.
 Atom     1 has atomic number  8 and mass  15.99491

 Molecular mass:   342.11621 amu.
 Principal axes and moments of inertia in atomic units:
                           1         2         3
     Eigenvalues --  4443.47155********************
           X            0.99997   0.00817   0.00034
           Y           -0.00817   0.99997   0.00062
           Z           -0.00034  -0.00062   1.00000
 This molecule is an asymmetric top.
 Rotational symmetry number  1.
 Warning -- assumption of classical behavior for rotation
           may cause significant error
 Rotational temperatures (Kelvin)      0.01949     0.00681     0.00521
 Rotational constants (GHZ):           0.40616     0.14196     0.10862
    8 imaginary frequencies ignored.
 Zero-point vibrational energy     972314.6 (Joules/Mol)
                                  232.38876 (Kcal/Mol)
 Warning -- explicit consideration of  32 degrees of freedom as
           vibrations may cause significant error
 Vibrational temperatures:     54.92   116.69   131.25   165.07   206.51
          (Kelvin)            236.48   263.45   303.19   331.36   345.81
                              379.57   413.85   429.50   435.85   452.62
                              471.46   502.53   523.74   532.55   558.66
                              592.49   606.60   625.89   669.75   688.11
                              730.31   738.44   803.94   828.00   855.70
                              882.60   888.09   976.92   997.79  1015.87
                             1072.69  1085.99  1098.99  1107.86  1224.48
                             1225.76  1295.76  1346.44  1389.89  1397.58
                             1417.61  1425.42  1453.82  1461.87  1484.67
                             1515.16  1517.22  1535.20  1549.40  1554.26
                             1578.12  1592.10  1603.22  1609.97  1617.17
                             1643.51  1655.05  1663.12  1678.05  1685.38
                             1703.76  1733.51  1736.80  1740.56  1770.34
                             1775.11  1794.61  1810.58  1839.73  1847.48
                             1856.62  1863.48  1873.92  1887.18  1894.27
                             1898.34  1925.13  1935.16  1938.67  1953.56
                             1967.73  1973.94  1979.56  1998.67  2006.77
                             2019.71  2074.42  2088.91  2102.25  2114.77
                             2122.02  2123.01  2129.65  2147.05  4662.83
                             4671.69  4685.99  4688.45  4691.48  4694.65
                             4698.24  4703.44  4720.58  4724.74  4732.73
                             4734.19  4747.31  4752.15  4765.93  4768.72
                             4815.10  4842.21  4855.55  4859.81  5598.57
                             5601.88

 Zero-point correction=                           0.370335 (Hartree/Particle)
 Thermal correction to Energy=                    0.388098
 Thermal correction to Enthalpy=                  0.389043
 Thermal correction to Gibbs Free Energy=         0.325645
 Sum of electronic and zero-point Energies=          -1297.596336
 Sum of electronic and thermal Energies=             -1297.578573
 Sum of electronic and thermal Enthalpies=           -1297.577629
 Sum of electronic and thermal Free Energies=        -1297.641027

                     E (Thermal)             CV                S
                      KCal/Mol        Cal/Mol-Kelvin    Cal/Mol-Kelvin
 Total                  243.535             74.463            133.432
 Electronic               0.000              0.000              0.000
 Translational            0.889              2.981             43.384
 Rotational               0.889              2.981             35.194
 Vibrational            241.758             68.501             54.854
 Vibration     1          0.594              1.982              5.352
 Vibration     2          0.600              1.962              3.864
 Vibration     3          0.602              1.955              3.634
 Vibration     4          0.608              1.937              3.187
 Vibration     5          0.616              1.910              2.756
 Vibration     6          0.623              1.886              2.499
 Vibration     7          0.631              1.863              2.297
 Vibration     8          0.643              1.824              2.037
 Vibration     9          0.652              1.795              1.877
 Vibration    10          0.657              1.779              1.800
 Vibration    11          0.670              1.739              1.636
 Vibration    12          0.685              1.697              1.488
 Vibration    13          0.692              1.676              1.425
 Vibration    14          0.694              1.668              1.401
 Vibration    15          0.702              1.646              1.338
 Vibration    16          0.711              1.620              1.271
 Vibration    17          0.727              1.577              1.169
 Vibration    18          0.738              1.546              1.105
 Vibration    19          0.742              1.534              1.079
 Vibration    20          0.756              1.495              1.007
 Vibration    21          0.776              1.445              0.920
 Vibration    22          0.784              1.423              0.887
 Vibration    23          0.796              1.394              0.842
 Vibration    24          0.823              1.327              0.750
 Vibration    25          0.835              1.298              0.715
 Vibration    26          0.863              1.233              0.639
 Vibration    27          0.868              1.221              0.626
 Vibration    28          0.914              1.121              0.526
 Vibration    29          0.932              1.084              0.494
 Vibration    30          0.952              1.043              0.459
 Vibration    31          0.973              1.003              0.427
 Vibration    32          0.977              0.995              0.421

 Normal termination of Gaussian 09 at Sun Mar 27 05:24:13 2016.
