 Gaussian 09, Revision B.01,
 Gaussian 09:  EM64L-G09RevB.01 12-Aug-2010

 ------------------------------------------------
 # freq=raman b3lyp/6-31+g(d,p) geom=connectivity
 ------------------------------------------------

 ------------
 550 6000.com
 ------------
 Symbolic Z-matrix:
 Charge =  0 Multiplicity = 1

                         Standard orientation:
 ---------------------------------------------------------------------
 Center     Atomic      Atomic             Coordinates (Angstroms)
 Number     Number       Type             X           Y           Z
 ---------------------------------------------------------------------
      1          8           0       -4.993778    0.738533   -0.554311
      2          6           0       -3.921319    0.335957    0.309475
      3          6           0       -3.398169   -0.999575   -0.192726
      4          8           0       -4.411274   -1.952635   -0.545895
      5          1           0       -5.164068   -1.342344   -0.792876
      6          6           0       -2.199391   -1.621041    0.505097
      7          8           0       -1.820804   -2.798783   -0.222857
      8          1           0       -2.507026   -3.526322   -0.187186
      9          6           0       -2.490449    2.366340   -0.558923
     10          8           0       -2.336741    3.481544    0.330541
     11          1           0       -3.099489    3.463939    0.977076
     12          6           0       -2.577910    1.032452    0.165071
     13          8           0       -1.621638    0.589493    1.138893
     14          6           0       -1.117150   -0.555719    0.437416
     15          8           0        0.187408   -0.892669    0.930051
     16          6           0        1.361325   -0.535180    0.185573
     17          6           0        1.624224    0.961881    0.190748
     18          8           0        0.709452    1.577194   -0.727003
     19          1           0        0.948265    2.503200   -1.020181
     20          6           0        2.943993    1.466661   -0.369235
     21          8           0        3.270576    2.860641   -0.266944
     22          1           0        3.979712    3.002851   -0.956483
     23          6           0        2.447938   -2.677509    0.140792
     24          8           0        2.961361   -3.005935   -1.158147
     25          1           0        2.218948   -3.162726   -1.809495
     26          6           0        2.595724   -1.266807    0.687333
     27          8           0        3.904509   -0.746788    0.408087
     28          6           0        4.032358    0.681106    0.344701
     29          8           0        5.269889    0.801429   -0.372517
     30          1           0       -5.829780    0.445443   -0.184447
     31          1           0       -1.653846    2.340980   -1.225521
     32          1           0       -3.383158    2.504971   -1.132292
     33          1           0       -2.208221    0.443960   -0.648506
     34          1           0       -4.229295    0.274464    1.332348
     35          1           0       -2.990225   -0.734293   -1.145672
     36          1           0       -2.434288   -1.860230    1.521223
     37          1           0       -1.006052   -0.280290   -0.590541
     38          1           0        5.966110    0.353082    0.113139
     39          1           0        4.157283    1.069283    1.333950
     40          1           0        2.976338    1.203522   -1.405870
     41          1           0        1.471629    1.355462    1.173961
     42          1           0        1.200830   -0.831206   -0.830060
     43          1           0        2.509314   -1.328914    1.752029
     44          1           0        1.402395   -2.904851    0.133317
     45          1           0        2.915904   -3.337565    0.840959
 ---------------------------------------------------------------------

 SCF Done:  E(RB3LYP) =  -1297.83792791     A.U. after   14 cycles

 The electronic state is 1-A.
 Alpha  occ. eigenvalues --  -19.20831 -19.18955 -19.18589 -19.18533 -19.17683
 Alpha  occ. eigenvalues --  -19.17680 -19.17511 -19.16634 -19.16195 -19.16181
 Alpha  occ. eigenvalues --  -19.15799 -10.31193 -10.29427 -10.27168 -10.26691
 Alpha  occ. eigenvalues --  -10.26381 -10.25631 -10.25472 -10.25251 -10.25119
 Alpha  occ. eigenvalues --  -10.24506 -10.23786 -10.23048  -1.09971  -1.08089
 Alpha  occ. eigenvalues --   -1.07877  -1.04833  -1.04522  -1.04321  -1.02395
 Alpha  occ. eigenvalues --   -1.02074  -1.01729  -1.01451  -1.00384  -0.83711
 Alpha  occ. eigenvalues --   -0.82046  -0.78877  -0.77837  -0.72247  -0.70651
 Alpha  occ. eigenvalues --   -0.67346  -0.64996  -0.63753  -0.63222  -0.62044
 Alpha  occ. eigenvalues --   -0.59659  -0.57276  -0.56450  -0.55206  -0.54617
 Alpha  occ. eigenvalues --   -0.54134  -0.53281  -0.52879  -0.51578  -0.50917
 Alpha  occ. eigenvalues --   -0.50515  -0.49081  -0.48109  -0.47724  -0.46848
 Alpha  occ. eigenvalues --   -0.45884  -0.45866  -0.45224  -0.44464  -0.44214
 Alpha  occ. eigenvalues --   -0.43087  -0.42529  -0.40903  -0.39834  -0.39422
 Alpha  occ. eigenvalues --   -0.38467  -0.37792  -0.37296  -0.37058  -0.36411
 Alpha  occ. eigenvalues --   -0.35141  -0.34760  -0.34334  -0.33185  -0.32854
 Alpha  occ. eigenvalues --   -0.32035  -0.31302  -0.30428  -0.30209  -0.29917
 Alpha  occ. eigenvalues --   -0.29606  -0.29138  -0.28345  -0.27623  -0.26692
 Alpha  occ. eigenvalues --   -0.26470
 Alpha virt. eigenvalues --   -0.03490  -0.01336  -0.01020  -0.00245   0.00219
 Alpha virt. eigenvalues --    0.00470   0.01336   0.02369   0.02799   0.03359
 Alpha virt. eigenvalues --    0.03845   0.04173   0.04491   0.04889   0.05445

 Mulliken atomic charges:
              1
     1  O   -0.542760
     2  C   -0.165000
     3  C    0.021082
     4  O   -0.554786
     5  H    0.325175
     6  C    0.449098
     7  O   -0.508179
     8  H    0.379224
     9  C    0.055064
    10  O   -0.486925
    11  H    0.333157
    12  C    0.205192
    13  O   -0.326608
    14  C   -0.105930
    15  O   -0.361440
    16  C   -0.133067
    17  C    0.051722
    18  O   -0.580200
    19  H    0.386531
    20  C   -0.186451
    21  O   -0.509417
    22  H    0.372158
    23  C   -0.177059
    24  O   -0.489820
    25  H    0.347228
    26  C   -0.053377
    27  O   -0.313268
    28  C    0.441457
    29  O   -0.542733
    30  H    0.363366
    31  H    0.146460
    32  H    0.151422
    33  H    0.051898
    34  H    0.148688
    35  H    0.135265
    36  H    0.146700
    37  H    0.130931
    38  H    0.357473
    39  H    0.129735
    40  H    0.160354
    41  H    0.160732
    42  H    0.149622
    43  H    0.144217
    44  H    0.158670
    45  H    0.134401
 Sum of Mulliken atomic charges =   0.00000

 Dipole moment (field-independent basis, Debye):
    X=             -4.3696    Y=             -0.3177    Z=              0.5910  Tot=              4.4209
 Quadrupole moment (field-independent basis, Debye-Ang):
   XX=           -116.0889   YY=           -149.7938   ZZ=           -135.4190
   XY=              6.3772   XZ=             -0.3301   YZ=             -5.4509

  Exact polarizability: 216.808   2.700 192.048   1.564  -1.886 146.340
 Approx polarizability: 259.323   1.608 251.145   0.435  -0.321 237.466

 ******    9 imaginary frequencies (negative Signs) ******

                     1                      2                      3
                     A                      A                      A
 Frequencies --  -247.1307              -242.8732              -205.0687
 Red. masses --     1.1011                 1.3256                 1.8376
 Frc consts  --     0.0396                 0.0461                 0.0455
 IR Inten    --    88.1506               174.1872                 3.8464
 Raman Activ --     2.2508                 0.8154                 0.2152

                     4                      5                      6
                     A                      A                      A
 Frequencies --  -105.5954              -101.6738               -90.5426
 Red. masses --     3.0254                 5.5372                 5.8080
 Frc consts  --     0.0199                 0.0337                 0.0281
 IR Inten    --    10.9875                 0.9419                 0.4030
 Raman Activ --     0.2660                 0.0192                 0.0916

                     7                      8                      9
                     A                      A                      A
 Frequencies --   -67.3917               -49.0367               -22.9597
 Red. masses --     5.9919                 6.3625                 6.4366
 Frc consts  --     0.0160                 0.0090                 0.0020
 IR Inten    --     2.7960                 0.5849                 0.9586
 Raman Activ --     0.1350                 0.1945                 0.0713

                    10                     11                     12
                     A                      A                      A
 Frequencies --    49.0234                64.0906                98.1118
 Red. masses --     6.3717                 6.0673                 4.9944
 Frc consts  --     0.0090                 0.0147                 0.0283
 IR Inten    --     1.7296                 0.6659                 0.8188
 Raman Activ --     0.0315                 0.0456                 0.0587

                    13                     14                     15
                     A                      A                      A
 Frequencies --   127.8803               139.0968               169.7039
 Red. masses --     4.8223                 5.5881                 6.0066
 Frc consts  --     0.0465                 0.0637                 0.1019
 IR Inten    --     0.2840                 0.1376                 5.0466
 Raman Activ --     0.4797                 1.5680                 0.7497

                    16                     17                     18
                     A                      A                      A
 Frequencies --   188.4261               205.3992               233.3663
 Red. masses --     4.0859                 7.5129                 4.7185
 Frc consts  --     0.0855                 0.1867                 0.1514
 IR Inten    --     4.2316                 1.9566                 0.5891
 Raman Activ --     0.1851                 1.3035                 0.5422

                    19                     20                     21
                     A                      A                      A
 Frequencies --   258.2709               268.2619               278.7062
 Red. masses --     4.7660                 5.2360                 5.0561
 Frc consts  --     0.1873                 0.2220                 0.2314
 IR Inten    --     4.6436                 3.3153                 7.8011
 Raman Activ --     0.7711                 0.1389                 0.5582

                    22                     23                     24
                     A                      A                      A
 Frequencies --   313.2713               317.5983               320.9121
 Red. masses --     6.0235                 5.4245                 5.2166
 Frc consts  --     0.3483                 0.3224                 0.3165
 IR Inten    --     1.0354                13.8797                 4.2557
 Raman Activ --     1.0358                 0.3479                 0.7533

                    25                     26                     27
                     A                      A                      A
 Frequencies --   361.6861               376.8989               401.7064
 Red. masses --     5.7837                 4.2625                 5.9657
 Frc consts  --     0.4458                 0.3568                 0.5672
 IR Inten    --     3.2356                30.3384                 8.2443
 Raman Activ --     1.0999                 1.5392                 0.9378

                    28                     29                     30
                     A                      A                      A
 Frequencies --   415.6938               435.3369               453.8302
 Red. masses --     5.4470                 4.5104                 7.0992
 Frc consts  --     0.5546                 0.5036                 0.8615
 IR Inten    --    13.7800                 4.4581                 3.6722
 Raman Activ --     4.1131                 3.9583                 3.6796

                    31                     32                     33
                     A                      A                      A
 Frequencies --   487.0307               503.6170               530.5986
 Red. masses --     6.5257                 4.6250                 5.3139
 Frc consts  --     0.9120                 0.6911                 0.8814
 IR Inten    --     1.0809                 6.2545                15.9348
 Raman Activ --     1.0023                 6.2432                 0.8705

                    34                     35                     36
                     A                      A                      A
 Frequencies --   535.5519               554.1702               569.1435
 Red. masses --     6.0690                 3.5951                 3.1864
 Frc consts  --     1.0256                 0.6505                 0.6081
 IR Inten    --     3.4625                18.1781                30.9930
 Raman Activ --     5.1057                 1.5450                 0.7170

                    37                     38                     39
                     A                      A                      A
 Frequencies --   583.0234               604.6666               651.2484
 Red. masses --     3.0073                 5.1607                 1.3765
 Frc consts  --     0.6023                 1.1117                 0.3440
 IR Inten    --    60.4347                41.4188                60.1966
 Raman Activ --     0.1725                 2.0783                 0.6123

                    40                     41                     42
                     A                      A                      A
 Frequencies --   660.0408               664.4432               685.0591
 Red. masses --     1.5214                 1.5241                 1.1348
 Frc consts  --     0.3905                 0.3965                 0.3138
 IR Inten    --   120.7492                51.4583                79.3177
 Raman Activ --     0.9589                 1.5200                 1.0222

                    43                     44                     45
                     A                      A                      A
 Frequencies --   700.1795               714.2042               718.6757
 Red. masses --     1.1047                 2.2086                 1.2882
 Frc consts  --     0.3191                 0.6638                 0.3920
 IR Inten    --   107.9117                 9.3044                40.7923
 Raman Activ --     1.5912                 0.7272                 2.1062

                    46                     47                     48
                     A                      A                      A
 Frequencies --   724.1590               735.6852               854.2793
 Red. masses --     1.2173                 3.5104                 3.7012
 Frc consts  --     0.3761                 1.1194                 1.5915
 IR Inten    --   102.5279                52.6686                10.4735
 Raman Activ --     1.8422                 3.4846                 1.9540

                    49                     50                     51
                     A                      A                      A
 Frequencies --   876.7664               886.1182               892.4011
 Red. masses --     2.8527                 2.2623                 2.0315
 Frc consts  --     1.2921                 1.0466                 0.9532
 IR Inten    --    40.5376                 2.4457                 2.2114
 Raman Activ --     4.6734                 1.8715                 2.4858

                    52                     53                     54
                     A                      A                      A
 Frequencies --   943.9566               984.4692               991.8772
 Red. masses --     5.3556                 6.6575                 6.3968
 Frc consts  --     2.8116                 3.8016                 3.7079
 IR Inten    --   148.8667               211.2852               198.3723
 Raman Activ --     2.3610                 2.3105                 0.5859

                    55                     56                     57
                     A                      A                      A
 Frequencies --   998.3404              1014.3881              1020.5914
 Red. masses --     5.0546                 6.0998                 5.1299
 Frc consts  --     2.9682                 3.6981                 3.1482
 IR Inten    --   104.4271               368.2915                21.9550
 Raman Activ --     7.5569                 1.2590                 1.8182

                    58                     59                     60
                     A                      A                      A
 Frequencies --  1023.5951              1040.6573              1055.7088
 Red. masses --     3.9479                 2.9552                 3.7321
 Frc consts  --     2.4371                 1.8856                 2.4507
 IR Inten    --    82.6471                46.9292                55.4018
 Raman Activ --     1.1560                16.0326                 9.8061

                    61                     62                     63
                     A                      A                      A
 Frequencies --  1059.9849              1066.7298              1071.9341
 Red. masses --     5.5659                 3.8518                 2.7472
 Frc consts  --     3.6845                 2.5824                 1.8598
 IR Inten    --   191.9824                36.2330                95.9444
 Raman Activ --     3.6494                 1.6711                 0.9718

                    64                     65                     66
                     A                      A                      A
 Frequencies --  1085.9390              1093.9444              1105.3722
 Red. masses --     2.8566                 2.5722                 2.9057
 Frc consts  --     1.9848                 1.8136                 2.0918
 IR Inten    --   121.8507                47.0386                58.8319
 Raman Activ --     6.8545                 2.7782                 1.9657

                    67                     68                     69
                     A                      A                      A
 Frequencies --  1123.9888              1127.2889              1134.0347
 Red. masses --     2.1191                 2.3912                 2.0786
 Frc consts  --     1.5774                 1.7903                 1.5750
 IR Inten    --    27.1921                10.7671                31.3657
 Raman Activ --     6.1956                 3.4871                 1.3399

                    70                     71                     72
                     A                      A                      A
 Frequencies --  1155.4260              1158.7479              1167.8357
 Red. masses --     3.0592                 3.0526                 2.1094
 Frc consts  --     2.4063                 2.4149                 1.6950
 IR Inten    --    45.2033                28.7507                17.6456
 Raman Activ --     3.1028                 2.6219                 2.7299

                    73                     74                     75
                     A                      A                      A
 Frequencies --  1173.3406              1191.2365              1199.3349
 Red. masses --     1.7975                 2.0092                 1.5532
 Frc consts  --     1.4580                 1.6799                 1.3163
 IR Inten    --    10.5061                 0.9688                 5.6820
 Raman Activ --     3.7195                 4.6400                 3.0089

                    76                     77                     78
                     A                      A                      A
 Frequencies --  1211.3555              1221.3390              1229.0230
 Red. masses --     1.3554                 2.1323                 1.3883
 Frc consts  --     1.1718                 1.8740                 1.2355
 IR Inten    --    17.8202                 9.1219                36.1475
 Raman Activ --     3.3814                 0.4381                 3.8738

                    79                     80                     81
                     A                      A                      A
 Frequencies --  1244.3803              1260.8812              1263.6258
 Red. masses --     1.3100                 1.1360                 1.3915
 Frc consts  --     1.1951                 1.0641                 1.3091
 IR Inten    --    27.0454                 2.8792                37.2570
 Raman Activ --     1.2450                 2.3730                 2.0509

                    82                     83                     84
                     A                      A                      A
 Frequencies --  1278.1689              1282.4117              1292.5090
 Red. masses --     1.4066                 1.2218                 1.3372
 Frc consts  --     1.3539                 1.1839                 1.3161
 IR Inten    --     7.0933                 1.5307                30.4584
 Raman Activ --     0.3549                 1.5177                 2.3184

                    85                     86                     87
                     A                      A                      A
 Frequencies --  1299.7414              1307.9089              1322.7914
 Red. masses --     1.4580                 1.4438                 1.3180
 Frc consts  --     1.4512                 1.4552                 1.3588
 IR Inten    --     9.1277                12.8733                11.4205
 Raman Activ --     9.1207                 6.8976                 0.6234

                    88                     89                     90
                     A                      A                      A
 Frequencies --  1333.3466              1338.5867              1348.6431
 Red. masses --     1.2132                 1.2361                 1.3256
 Frc consts  --     1.2708                 1.3050                 1.4206
 IR Inten    --    23.8669                77.3710                10.2281
 Raman Activ --     5.0275                 9.3082                 1.4861

                    91                     92                     93
                     A                      A                      A
 Frequencies --  1358.4928              1368.5892              1385.3313
 Red. masses --     1.2203                 1.6316                 1.8516
 Frc consts  --     1.3269                 1.8005                 2.0937
 IR Inten    --    31.9332                 8.8113                 0.9242
 Raman Activ --     1.0795                 5.2138                 4.4503

                    94                     95                     96
                     A                      A                      A
 Frequencies --  1396.2720              1398.8059              1401.8240
 Red. masses --     1.2156                 1.4718                 1.4820
 Frc consts  --     1.3963                 1.6968                 1.7158
 IR Inten    --    29.9807                27.1519                21.0750
 Raman Activ --     4.4620                 2.6220                 4.6685

                    97                     98                     99
                     A                      A                      A
 Frequencies --  1417.4033              1426.5570              1440.3800
 Red. masses --     1.5515                 1.3272                 1.2077
 Frc consts  --     1.8365                 1.5914                 1.4763
 IR Inten    --    16.6240                28.6834               110.1969
 Raman Activ --     2.8411                 5.1259                 2.1005

                   100                    101                    102
                     A                      A                      A
 Frequencies --  1460.4657              1462.1920              1468.5307
 Red. masses --     1.2917                 1.3213                 1.0926
 Frc consts  --     1.6233                 1.6644                 1.3883
 IR Inten    --     6.3847                44.4329                35.6892
 Raman Activ --     3.2020                 3.0118                 4.3241

                   103                    104                    105
                     A                      A                      A
 Frequencies --  1478.7813              1482.1358              1543.1390
 Red. masses --     1.2496                 1.0731                 1.1013
 Frc consts  --     1.6100                 1.3889                 1.5451
 IR Inten    --    17.9902                 6.9304                 1.2383
 Raman Activ --     5.6105                 5.6881                 2.4529

                   106                    107                    108
                     A                      A                      A
 Frequencies --  1675.4294              1755.1908              3195.7235
 Red. masses --     1.0599                 1.0460                 1.0793
 Frc consts  --     1.7530                 1.8985                 6.4941
 IR Inten    --     2.9798                 6.9147                 7.2431
 Raman Activ --     5.3283                12.1972                29.8956

                   109                    110                    111
                     A                      A                      A
 Frequencies --  3239.1273              3259.7165              3271.8630
 Red. masses --     1.0817                 1.0835                 1.0631
 Frc consts  --     6.6864                 6.7830                 6.7050
 IR Inten    --    31.0800                15.5682                16.3348
 Raman Activ --    54.1577                78.3503                64.2151

                   112                    113                    114
                     A                      A                      A
 Frequencies --  3286.9313              3287.6174              3291.7957
 Red. masses --     1.0580                 1.0805                 1.0841
 Frc consts  --     6.7349                 6.8806                 6.9212
 IR Inten    --    20.5024                14.3275                13.3435
 Raman Activ --   119.6349               121.0041               188.0361

                   115                    116                    117
                     A                      A                      A
 Frequencies --  3294.2902              3299.5727              3307.1523
 Red. masses --     1.0838                 1.0855                 1.0864
 Frc consts  --     6.9299                 6.9632                 7.0005
 IR Inten    --    25.6649                10.1412                 1.3335
 Raman Activ --    13.4199                15.8474                11.5912

                   118                    119                    120
                     A                      A                      A
 Frequencies --  3313.1898              3314.5007              3329.1132
 Red. masses --     1.0869                 1.0861                 1.1056
 Frc consts  --     7.0294                 7.0297                 7.2195
 IR Inten    --    36.1750                71.5031                32.6789
 Raman Activ --    91.9625                36.0871                70.6138

                   121                    122                    123
                     A                      A                      A
 Frequencies --  3346.8802              3378.9795              3379.8349
 Red. masses --     1.1059                 1.0638                 1.0674
 Frc consts  --     7.2988                 7.1564                 7.1843
 IR Inten    --    11.5148                41.5498                56.6872
 Raman Activ --    63.7410                74.0440                88.9795

                   124                    125                    126
                     A                      A                      A
 Frequencies --  3387.4873              3390.6466              3390.7811
 Red. masses --     1.0696                 1.0700                 1.0679
 Frc consts  --     7.2314                 7.2474                 7.2342
 IR Inten    --    14.8252                10.9435                88.9982
 Raman Activ --    48.6394                30.7513               151.4631

                   127                    128                    129
                     A                      A                      A
 Frequencies --  3411.7807              3910.2505              3917.6282
 Red. masses --     1.0664                 1.0675                 1.0667
 Frc consts  --     7.3137                 9.6168                 9.6459
 IR Inten    --    76.1500                66.5428                59.9827
 Raman Activ --   101.4630               123.3857               139.3892

 - Thermochemistry -
 -------------------
 Temperature   298.150 Kelvin.  Pressure   1.00000 Atm.
 Atom     1 has atomic number  8 and mass  15.99491

 Molecular mass:   342.11621 amu.
 Principal axes and moments of inertia in atomic units:
                           1         2         3
     Eigenvalues --  4448.53747********************
           X            1.00000  -0.00176   0.00183
           Y            0.00177   0.99998  -0.00561
           Z           -0.00182   0.00561   0.99998
 This molecule is an asymmetric top.
 Rotational symmetry number  1.
 Warning -- assumption of classical behavior for rotation
           may cause significant error
 Rotational temperatures (Kelvin)      0.01947     0.00730     0.00563
 Rotational constants (GHZ):           0.40569     0.15219     0.11731
    9 imaginary frequencies ignored.
 Zero-point vibrational energy     980675.6 (Joules/Mol)
                                  234.38708 (Kcal/Mol)
 Warning -- explicit consideration of  29 degrees of freedom as
           vibrations may cause significant error
 Vibrational temperatures:     70.53    92.21   141.16   183.99   200.13
          (Kelvin)            244.17   271.10   295.52   335.76   371.59
                              385.97   401.00   450.73   456.95   461.72
                              520.38   542.27   577.97   598.09   626.35
                              652.96   700.73   724.59   763.41   770.54
                              797.33   818.87   838.84   869.98   937.00
                              949.65   955.98   985.65  1007.40  1027.58
                             1034.01  1041.90  1058.49  1229.12  1261.47
                             1274.92  1283.96  1358.14  1416.43  1427.09
                             1436.39  1459.48  1468.40  1472.72  1497.27
                             1518.93  1525.08  1534.78  1542.27  1562.42
                             1573.94  1590.38  1617.17  1621.92  1631.62
                             1662.40  1667.18  1680.25  1688.17  1713.92
                             1725.57  1742.87  1757.23  1768.29  1790.38
                             1814.12  1818.07  1839.00  1845.10  1859.63
                             1870.04  1881.79  1903.20  1918.39  1925.93
                             1940.39  1954.57  1969.09  1993.18  2008.92
                             2012.57  2016.91  2039.32  2052.49  2072.38
                             2101.28  2103.77  2112.89  2127.63  2132.46
                             2220.23  2410.57  2525.32  4597.93  4660.38
                             4690.00  4707.48  4729.16  4730.14  4736.15
                             4739.74  4747.34  4758.25  4766.94  4768.82
                             4789.85  4815.41  4861.59  4862.82  4873.83
                             4878.38  4878.57  4908.79  5625.97  5636.59

 Zero-point correction=                           0.373520 (Hartree/Particle)
 Thermal correction to Energy=                    0.390503
 Thermal correction to Enthalpy=                  0.391447
 Thermal correction to Gibbs Free Energy=         0.329564
 Sum of electronic and zero-point Energies=          -1297.464408
 Sum of electronic and thermal Energies=             -1297.447425
 Sum of electronic and thermal Enthalpies=           -1297.446481
 Sum of electronic and thermal Free Energies=        -1297.508364

                     E (Thermal)             CV                S
                      KCal/Mol        Cal/Mol-Kelvin    Cal/Mol-Kelvin
 Total                  245.044             71.872            130.243
 Electronic               0.000              0.000              0.000
 Translational            0.889              2.981             43.384
 Rotational               0.889              2.981             35.050
 Vibrational            243.267             65.910             51.809
 Vibration     1          0.595              1.978              4.856
 Vibration     2          0.597              1.971              4.327
 Vibration     3          0.604              1.950              3.491
 Vibration     4          0.611              1.925              2.978
 Vibration     5          0.615              1.914              2.816
 Vibration     6          0.625              1.880              2.439
 Vibration     7          0.633              1.856              2.243
 Vibration     8          0.640              1.832              2.084
 Vibration     9          0.654              1.790              1.853
 Vibration    10          0.667              1.749              1.673
 Vibration    11          0.673              1.731              1.607
 Vibration    12          0.679              1.713              1.542
 Vibration    13          0.701              1.648              1.345
 Vibration    14          0.704              1.640              1.322
 Vibration    15          0.706              1.634              1.305
 Vibration    16          0.736              1.551              1.115
 Vibration    17          0.747              1.519              1.052
 Vibration    18          0.767              1.466              0.956
 Vibration    19          0.779              1.436              0.907
 Vibration    20          0.796              1.393              0.841
 Vibration    21          0.812              1.352              0.784
 Vibration    22          0.843              1.279              0.691
 Vibration    23          0.859              1.242              0.649
 Vibration    24          0.886              1.182              0.586
 Vibration    25          0.891              1.171              0.575
 Vibration    26          0.910              1.131              0.536
 Vibration    27          0.925              1.098              0.506
 Vibration    28          0.940              1.068              0.480
 Vibration    29          0.963              1.022              0.442

 Normal termination of Gaussian 09 at Thu Jan 21 18:39:28 2016.
