 Gaussian 09, Revision B.01,
 Gaussian 09:  EM64L-G09RevB.01 12-Aug-2010

 -------------------------------------------------
 # freq=raman b3lyp/6-31+g(2d,p) geom=connectivity
 -------------------------------------------------

 -----------------
 310 9265/9265.com
 -----------------
 Symbolic Z-matrix:
 Charge =  0 Multiplicity = 1

                         Standard orientation:
 ---------------------------------------------------------------------
 Center     Atomic      Atomic             Coordinates (Angstroms)
 Number     Number       Type             X           Y           Z
 ---------------------------------------------------------------------
      1          8           0        5.094083   -0.413287   -0.096577
      2          6           0        3.726589   -0.182171    0.273528
      3          6           0        3.192257    1.142482   -0.247160
      4          8           0        4.217131    2.146558   -0.214663
      5          1           0        5.064494    1.633681   -0.354307
      6          6           0        1.824225    1.538980    0.284236
      7          8           0        1.357267    2.733074   -0.359465
      8          1           0        0.441097    2.892043    0.010284
      9          6           0        2.882045   -2.580496    0.085690
     10          8           0        4.171364   -3.109676   -0.255485
     11          1           0        4.088301   -4.091791   -0.086076
     12          6           0        2.692479   -1.126648   -0.315687
     13          8           0        1.377977   -0.873324    0.201940
     14          6           0        0.867004    0.428974   -0.118367
     15          8           0       -0.300813    0.395653    0.713534
     16          6           0       -1.483308    0.214891   -0.079953
     17          6           0       -2.048412   -1.119375    0.377296
     18          8           0       -1.113037   -2.150427    0.025854
     19          1           0       -0.245574   -1.709974    0.256789
     20          6           0       -3.388868   -1.560921   -0.186977
     21          8           0       -4.082504   -2.707908    0.326415
     22          1           0       -4.715341   -3.033584   -0.375611
     23          6           0       -2.112124    2.638881   -0.201689
     24          8           0       -1.069474    3.416376    0.402965
     25          1           0       -1.200571    4.405417    0.329685
     26          6           0       -2.506237    1.266566    0.318871
     27          8           0       -3.816954    0.946259   -0.168087
     28          6           0       -4.304789   -0.379346    0.089307
     29          8           0       -5.439052   -0.487645   -0.782684
     30          1           0       -6.238858   -0.571658   -0.258421
     31          1           0        5.625550   -0.524011    0.695183
     32          1           0       -4.640540   -0.432973    1.103849
     33          1           0       -3.288031   -1.674311   -1.246163
     34          1           0       -2.131445   -1.093922    1.443766
     35          1           0       -1.274278    0.227362   -1.129263
     36          1           0       -2.545085    1.309788    1.387292
     37          1           0       -2.996285    3.241075   -0.178858
     38          1           0       -1.842908    2.511343   -1.229384
     39          1           0        2.132154   -3.169162   -0.400144
     40          1           0        2.748807   -2.662397    1.144199
     41          1           0        2.686101   -1.041356   -1.382263
     42          1           0        3.646510   -0.197162    1.340422
     43          1           0        3.025129    0.970059   -1.289867
     44          1           0        1.845284    1.658979    1.347277
     45          1           0        0.602408    0.496420   -1.152940
 ---------------------------------------------------------------------

 SCF Done:  E(RB3LYP) =  -1297.97301064     A.U. after   13 cycles

 The electronic state is 1-A.
 Alpha  occ. eigenvalues --  -19.19442 -19.18899 -19.18634 -19.17757 -19.17689
 Alpha  occ. eigenvalues --  -19.16912 -19.16708 -19.15876 -19.14060 -19.13577
 Alpha  occ. eigenvalues --  -19.13575 -10.30556 -10.29702 -10.26120 -10.25966
 Alpha  occ. eigenvalues --  -10.25655 -10.25385 -10.25318 -10.24825 -10.24640
 Alpha  occ. eigenvalues --  -10.24146 -10.23691 -10.23472  -1.11149  -1.08545
 Alpha  occ. eigenvalues --   -1.06026  -1.05796  -1.04535  -1.03533  -1.02507
 Alpha  occ. eigenvalues --   -1.02113  -1.01665  -1.00787  -1.00035  -0.82463
 Alpha  occ. eigenvalues --   -0.80878  -0.79488  -0.78301  -0.72076  -0.69893
 Alpha  occ. eigenvalues --   -0.66950  -0.65275  -0.63488  -0.62090  -0.61407
 Alpha  occ. eigenvalues --   -0.60265  -0.56535  -0.56362  -0.55320  -0.54923
 Alpha  occ. eigenvalues --   -0.54132  -0.53296  -0.52887  -0.51957  -0.51272
 Alpha  occ. eigenvalues --   -0.50580  -0.50279  -0.48864  -0.48537  -0.46944
 Alpha  occ. eigenvalues --   -0.46434  -0.45475  -0.43944  -0.43363  -0.42783
 Alpha  occ. eigenvalues --   -0.42594  -0.42189  -0.41625  -0.40384  -0.38973
 Alpha  occ. eigenvalues --   -0.38718  -0.37968  -0.37563  -0.36962  -0.36499
 Alpha  occ. eigenvalues --   -0.35978  -0.35004  -0.34308  -0.34283  -0.33775
 Alpha  occ. eigenvalues --   -0.32583  -0.31608  -0.31132  -0.30685  -0.29912
 Alpha  occ. eigenvalues --   -0.29359  -0.28440  -0.28240  -0.27351  -0.26516
 Alpha  occ. eigenvalues --   -0.26231
 Alpha virt. eigenvalues --   -0.02295  -0.01836  -0.01163  -0.00235   0.00170
 Alpha virt. eigenvalues --    0.00575   0.01882   0.02289   0.02566   0.03619
 Alpha virt. eigenvalues --    0.04079   0.04335   0.04988   0.05135   0.05737

 Mulliken atomic charges:
              1
     1  O   -0.564354
     2  C   -0.020007
     3  C    0.221623
     4  O   -0.595092
     5  H    0.358151
     6  C   -0.018164
     7  O   -0.568793
     8  H    0.431324
     9  C   -0.135676
    10  O   -0.511128
    11  H    0.333219
    12  C    0.053848
    13  O   -0.241748
    14  C   -0.069797
    15  O   -0.187442
    16  C    0.353989
    17  C    0.258724
    18  O   -0.590931
    19  H    0.394317
    20  C   -0.134114
    21  O   -0.526927
    22  H    0.344108
    23  C   -0.285848
    24  O   -0.584869
    25  H    0.366951
    26  C   -0.021591
    27  O   -0.256054
    28  C    0.268569
    29  O   -0.537883
    30  H    0.332227
    31  H    0.347627
    32  H    0.126217
    33  H    0.131869
    34  H    0.123839
    35  H    0.115690
    36  H    0.123532
    37  H    0.145026
    38  H    0.153570
    39  H    0.148044
    40  H    0.141479
    41  H    0.111590
    42  H    0.113304
    43  H    0.094267
    44  H    0.127484
    45  H    0.129830
 Sum of Mulliken atomic charges =   0.00000

 Dipole moment (field-independent basis, Debye):
    X=             -2.4746    Y=             -0.2350    Z=              1.7248  Tot=              3.0256
 Quadrupole moment (field-independent basis, Debye-Ang):
   XX=           -127.1858   YY=           -134.8357   ZZ=           -137.6061
   XY=            -17.0047   XZ=              6.4763   YZ=              3.3475

  Exact polarizability: 232.899   2.941 196.553   1.435  -0.315 142.300
 Approx polarizability: 273.841   3.783 257.161   0.795  -0.428 238.504

 ******    6 imaginary frequencies (negative Signs) ******

                     1                      2                      3
                     A                      A                      A
 Frequencies --  -282.9768              -255.7957              -227.5216
 Red. masses --     1.7182                 1.2894                 1.1702
 Frc consts  --     0.0811                 0.0497                 0.0357
 IR Inten    --     5.0960                77.5801               105.8406
 Raman Activ --     0.0273                 0.4361                 0.9588

                     4                      5                      6
                     A                      A                      A
 Frequencies --  -213.1045               -82.0264               -50.0827
 Red. masses --     1.6457                 6.4026                 6.4314
 Frc consts  --     0.0440                 0.0254                 0.0095
 IR Inten    --    21.5141                 1.1824                 0.2016
 Raman Activ --     0.2646                 0.0440                 0.0118

                     7                      8                      9
                     A                      A                      A
 Frequencies --    44.2396                49.7893                69.9846
 Red. masses --     6.8395                 6.4554                 6.6205
 Frc consts  --     0.0079                 0.0094                 0.0191
 IR Inten    --     0.1929                 0.4484                 1.4657
 Raman Activ --     0.0514                 0.0343                 0.0649

                    10                     11                     12
                     A                      A                      A
 Frequencies --    82.8517                94.2513               117.7058
 Red. masses --     5.5181                 6.1042                 5.7222
 Frc consts  --     0.0223                 0.0319                 0.0467
 IR Inten    --     2.9612                 0.7497                 5.3906
 Raman Activ --     0.2252                 0.1031                 0.0502

                    13                     14                     15
                     A                      A                      A
 Frequencies --   155.5924               179.6165               189.5351
 Red. masses --     6.0367                 5.9147                 7.6394
 Frc consts  --     0.0861                 0.1124                 0.1617
 IR Inten    --     7.9698                 2.3585                 0.9424
 Raman Activ --     0.3163                 0.5388                 0.8083

                    16                     17                     18
                     A                      A                      A
 Frequencies --   219.1511               239.2813               280.1690
 Red. masses --     6.8673                 5.9581                 5.7276
 Frc consts  --     0.1943                 0.2010                 0.2649
 IR Inten    --     0.4433                 2.2544                 1.3773
 Raman Activ --     2.6992                 0.1435                 0.1675

                    19                     20                     21
                     A                      A                      A
 Frequencies --   281.9966               302.0554               307.2662
 Red. masses --     4.0957                 6.0180                 4.7261
 Frc consts  --     0.1919                 0.3235                 0.2629
 IR Inten    --     8.0614                 7.3585                 2.8886
 Raman Activ --     1.1481                 2.0058                 0.5764

                    22                     23                     24
                     A                      A                      A
 Frequencies --   319.1534               326.4311               333.4936
 Red. masses --     4.8307                 5.5076                 6.7357
 Frc consts  --     0.2899                 0.3458                 0.4414
 IR Inten    --     0.5551                 3.7334                 3.5938
 Raman Activ --     0.5980                 1.0320                 2.6949

                    25                     26                     27
                     A                      A                      A
 Frequencies --   347.5313               356.6286               379.2114
 Red. masses --     6.7937                 5.2731                 7.9078
 Frc consts  --     0.4834                 0.3951                 0.6700
 IR Inten    --    11.6727                 3.2582                 9.9658
 Raman Activ --     1.1322                 0.2070                 3.4589

                    28                     29                     30
                     A                      A                      A
 Frequencies --   397.0373               430.8090               437.0197
 Red. masses --     4.1369                 5.5639                 6.0987
 Frc consts  --     0.3842                 0.6084                 0.6863
 IR Inten    --    14.7943                 2.3750                 1.8292
 Raman Activ --     1.3888                 5.4934                 2.7705

                    31                     32                     33
                     A                      A                      A
 Frequencies --   451.7687               481.2776               505.7634
 Red. masses --     4.8015                 4.1707                 4.4377
 Frc consts  --     0.5774                 0.5692                 0.6688
 IR Inten    --     2.4354                10.2017                10.1726
 Raman Activ --     2.1246                 0.3817                 3.7974

                    34                     35                     36
                     A                      A                      A
 Frequencies --   515.1263               548.4218               577.4514
 Red. masses --     4.5009                 3.2908                 4.1584
 Frc consts  --     0.7037                 0.5831                 0.8170
 IR Inten    --     1.4345                 9.3974                16.0567
 Raman Activ --     4.2129                 3.3912                 1.4184

                    37                     38                     39
                     A                      A                      A
 Frequencies --   600.8425               605.1481               629.3211
 Red. masses --     4.7076                 3.1259                 5.2907
 Frc consts  --     1.0013                 0.6745                 1.2345
 IR Inten    --     3.3389                31.5483                34.5465
 Raman Activ --     0.5167                 0.9303                 1.1154

                    40                     41                     42
                     A                      A                      A
 Frequencies --   653.5211               664.4523               684.1019
 Red. masses --     2.8443                 1.2081                 1.1330
 Frc consts  --     0.7157                 0.3143                 0.3124
 IR Inten    --    12.0455               132.2999                63.9010
 Raman Activ --     0.4177                 1.7850                 0.9795

                    43                     44                     45
                     A                      A                      A
 Frequencies --   702.3991               740.8952               782.7271
 Red. masses --     4.8498                 1.0863                 1.0650
 Frc consts  --     1.4098                 0.3513                 0.3844
 IR Inten    --    16.5366                96.6387                82.3301
 Raman Activ --     1.3313                 1.7124                 1.2151

                    46                     47                     48
                     A                      A                      A
 Frequencies --   847.3979               857.1103               867.3685
 Red. masses --     1.5441                 1.1738                 1.7677
 Frc consts  --     0.6533                 0.5081                 0.7835
 IR Inten    --    14.8111                63.2297                 4.7127
 Raman Activ --     0.8391                 1.6165                 1.4048

                    49                     50                     51
                     A                      A                      A
 Frequencies --   923.3871               935.2761               952.4846
 Red. masses --     5.4276                 1.2695                 3.5371
 Frc consts  --     2.7266                 0.6543                 1.8906
 IR Inten    --   108.5842                79.2665                83.8295
 Raman Activ --     3.0641                 0.4082                 0.3040

                    52                     53                     54
                     A                      A                      A
 Frequencies --   977.3896               982.5486               990.6807
 Red. masses --     7.5061                 4.2373                 5.4314
 Frc consts  --     4.2247                 2.4101                 3.1407
 IR Inten    --    36.5610               107.2802               137.4718
 Raman Activ --     3.0493                 0.7342                 0.7716

                    55                     56                     57
                     A                      A                      A
 Frequencies --   997.0082              1013.3399              1023.7772
 Red. masses --     5.9975                 5.8271                 5.9182
 Frc consts  --     3.5125                 3.5254                 3.6547
 IR Inten    --   237.1646                78.5443               104.6730
 Raman Activ --     2.8879                 2.9967                 3.8627

                    58                     59                     60
                     A                      A                      A
 Frequencies --  1038.2746              1047.8275              1062.4628
 Red. masses --     5.4158                 6.2345                 4.4633
 Frc consts  --     3.4398                 4.0330                 2.9685
 IR Inten    --   264.9661               178.9476                67.5790
 Raman Activ --     2.8454                 2.3327                 1.9751

                    61                     62                     63
                     A                      A                      A
 Frequencies --  1066.9328              1072.7596              1085.3005
 Red. masses --     4.7159                 3.8292                 5.6313
 Frc consts  --     3.1629                 2.5963                 3.9080
 IR Inten    --    27.2606                 0.2274               100.7932
 Raman Activ --    10.5353                29.4946                 7.5674

                    64                     65                     66
                     A                      A                      A
 Frequencies --  1097.1108              1103.5930              1108.9772
 Red. masses --     2.3774                 2.1844                 2.4864
 Frc consts  --     1.6860                 1.5675                 1.8016
 IR Inten    --    40.0934                61.7205                 8.7210
 Raman Activ --     2.4825                 1.9485                 5.1611

                    67                     68                     69
                     A                      A                      A
 Frequencies --  1116.5640              1121.0283              1131.8539
 Red. masses --     2.5151                 2.7604                 2.4869
 Frc consts  --     1.8475                 2.0439                 1.8771
 IR Inten    --    83.2276                 5.7100                59.5521
 Raman Activ --     5.7577                 2.0116                 9.0549

                    70                     71                     72
                     A                      A                      A
 Frequencies --  1149.4518              1153.4989              1156.2648
 Red. masses --     2.3272                 2.1248                 2.5594
 Frc consts  --     1.8116                 1.6657                 2.0160
 IR Inten    --     0.2669                 2.3190                15.6453
 Raman Activ --     6.3955                 1.8634                 3.2081

                    73                     74                     75
                     A                      A                      A
 Frequencies --  1165.3860              1172.9481              1180.2859
 Red. masses --     1.7171                 2.0085                 1.8606
 Frc consts  --     1.3740                 1.6281                 1.5271
 IR Inten    --     9.4690                 2.5646                15.6715
 Raman Activ --     1.0620                 3.0732                 1.3771

                    76                     77                     78
                     A                      A                      A
 Frequencies --  1197.4851              1212.5222              1223.0362
 Red. masses --     1.4004                 1.2717                 1.3185
 Frc consts  --     1.1831                 1.1016                 1.1620
 IR Inten    --     6.9601                20.3452                 6.1155
 Raman Activ --     2.9203                 2.8004                 1.2463

                    79                     80                     81
                     A                      A                      A
 Frequencies --  1243.3092              1252.4194              1263.6706
 Red. masses --     1.3218                 1.2020                 1.2278
 Frc consts  --     1.2039                 1.1108                 1.1551
 IR Inten    --     0.9632                14.7768                20.1209
 Raman Activ --     0.9846                 2.3378                 1.2244

                    82                     83                     84
                     A                      A                      A
 Frequencies --  1266.5443              1273.6273              1280.1436
 Red. masses --     1.2111                 1.3872                 1.2453
 Frc consts  --     1.1446                 1.3258                 1.2024
 IR Inten    --     0.9840                 1.1132                16.7811
 Raman Activ --     5.6751                 2.6418                 2.2629

                    85                     86                     87
                     A                      A                      A
 Frequencies --  1282.9190              1293.3463              1301.8934
 Red. masses --     1.3590                 1.2358                 1.2616
 Frc consts  --     1.3178                 1.2179                 1.2598
 IR Inten    --    29.1060                21.5857                18.0781
 Raman Activ --     0.4180                 1.7177                 4.6468

                    88                     89                     90
                     A                      A                      A
 Frequencies --  1306.9217              1324.5509              1332.5277
 Red. masses --     1.3433                 1.4254                 1.1921
 Frc consts  --     1.3518                 1.4734                 1.2471
 IR Inten    --     8.3700                23.9476                34.9380
 Raman Activ --     6.3159                 1.7464                 0.3691

                    91                     92                     93
                     A                      A                      A
 Frequencies --  1340.4445              1350.6200              1358.3530
 Red. masses --     1.2987                 1.2023                 1.1566
 Frc consts  --     1.3748                 1.2922                 1.2573
 IR Inten    --    28.9995                28.3945                39.7972
 Raman Activ --    11.5328                 6.9054                 0.9727

                    94                     95                     96
                     A                      A                      A
 Frequencies --  1367.8211              1370.2187              1386.9248
 Red. masses --     1.4117                 1.5637                 1.5175
 Frc consts  --     1.5561                 1.7298                 1.7198
 IR Inten    --     5.9161                15.1672                 5.7468
 Raman Activ --     5.2999                 5.0873                 5.1088

                    97                     98                     99
                     A                      A                      A
 Frequencies --  1402.3432              1404.2911              1413.1166
 Red. masses --     1.4499                 1.4889                 1.1051
 Frc consts  --     1.6800                 1.7300                 1.3002
 IR Inten    --     7.3627                 5.2910                12.9961
 Raman Activ --     2.4214                13.5071                 1.1389

                   100                    101                    102
                     A                      A                      A
 Frequencies --  1441.5676              1444.1223              1473.1861
 Red. masses --     1.3515                 1.3392                 1.0837
 Frc consts  --     1.6548                 1.6455                 1.3858
 IR Inten    --    25.4505                17.8034                11.0558
 Raman Activ --     0.3357                 3.2444                 3.7467

                   103                    104                    105
                     A                      A                      A
 Frequencies --  1475.2571              1476.8582              1488.8093
 Red. masses --     1.0837                 1.3255                 1.3919
 Frc consts  --     1.3897                 1.7034                 1.8178
 IR Inten    --     8.7560                48.8794                20.4048
 Raman Activ --     4.1990                 2.5515                 0.7448

                   106                    107                    108
                     A                      A                      A
 Frequencies --  1518.6760              1540.6403              3213.9215
 Red. masses --     1.2361                 1.2443                 1.0691
 Frc consts  --     1.6796                 1.7401                 6.5065
 IR Inten    --    60.4763                58.7431               976.5666
 Raman Activ --     1.5485                 2.5676               157.5459

                   109                    110                    111
                     A                      A                      A
 Frequencies --  3244.8508              3256.9894              3260.6309
 Red. masses --     1.0811                 1.0561                 1.0605
 Frc consts  --     6.7064                 6.6004                 6.6430
 IR Inten    --    32.7362                37.0080                23.9722
 Raman Activ --    41.0946                85.7576               140.2600

                   112                    113                    114
                     A                      A                      A
 Frequencies --  3270.1346              3277.5971              3279.0132
 Red. masses --     1.0817                 1.0830                 1.0831
 Frc consts  --     6.8156                 6.8547                 6.8612
 IR Inten    --    26.0043                 8.0888                 5.6347
 Raman Activ --    25.8077                32.8596                79.6085

                   115                    116                    117
                     A                      A                      A
 Frequencies --  3280.5504              3287.3334              3289.7367
 Red. masses --     1.0842                 1.0858                 1.0876
 Frc consts  --     6.8747                 6.9134                 6.9351
 IR Inten    --    18.2120                 6.7612                 6.7928
 Raman Activ --   168.8075                96.0258                 7.6118

                   118                    119                    120
                     A                      A                      A
 Frequencies --  3295.7692              3299.7273              3304.8146
 Red. masses --     1.0865                 1.0876                 1.0828
 Frc consts  --     6.9534                 6.9770                 6.9676
 IR Inten    --    57.9899                 0.2546               155.1495
 Raman Activ --    35.0250                 7.3352                16.2929

                   121                    122                    123
                     A                      A                      A
 Frequencies --  3312.1272              3314.5369              3317.0910
 Red. masses --     1.0811                 1.0985                 1.1007
 Frc consts  --     6.9874                 7.1101                 7.1354
 IR Inten    --   354.8213                50.9807               153.0007
 Raman Activ --   118.0976                26.1577                67.1895

                   124                    125                    126
                     A                      A                      A
 Frequencies --  3340.9157              3365.9494              3370.6132
 Red. masses --     1.0647                 1.0664                 1.0686
 Frc consts  --     7.0020                 7.1184                 7.1529
 IR Inten    --    71.1101                32.4160                91.8824
 Raman Activ --    78.8106               156.7352               153.7089

                   127                    128                    129
                     A                      A                      A
 Frequencies --  3381.0097              3889.1705              3892.8972
 Red. masses --     1.0670                 1.0675                 1.0677
 Frc consts  --     7.1861                 9.5130                 9.5330
 IR Inten    --    63.0010                71.8570                94.0905
 Raman Activ --   131.1202               117.3181                88.2974

 - Thermochemistry -
 -------------------
 Temperature   298.150 Kelvin.  Pressure   1.00000 Atm.
 Atom     1 has atomic number  8 and mass  15.99491

 Molecular mass:   342.11621 amu.
 Principal axes and moments of inertia in atomic units:
                           1         2         3
     Eigenvalues --  4336.26328********************
           X            0.99997  -0.00737   0.00080
           Y            0.00737   0.99997  -0.00049
           Z           -0.00079   0.00049   1.00000
 This molecule is an asymmetric top.
 Rotational symmetry number  1.
 Warning -- assumption of classical behavior for rotation
           may cause significant error
 Rotational temperatures (Kelvin)      0.01997     0.00705     0.00534
 Rotational constants (GHZ):           0.41620     0.14698     0.11131
    6 imaginary frequencies ignored.
 Zero-point vibrational energy     978161.6 (Joules/Mol)
                                  233.78624 (Kcal/Mol)
 Warning -- explicit consideration of  32 degrees of freedom as
           vibrations may cause significant error
 Vibrational temperatures:     63.65    71.64   100.69   119.20   135.61
          (Kelvin)            169.35   223.86   258.43   272.70   315.31
                              344.27   403.10   405.73   434.59   442.09
                              459.19   469.66   479.82   500.02   513.11
                              545.60   571.25   619.84   628.77   649.99
                              692.45   727.68   741.15   789.06   830.82
                              864.48   870.67   905.45   940.27   956.00
                              984.27  1010.59  1065.98  1126.17  1219.22
                             1233.19  1247.95  1328.55  1345.65  1370.41
                             1406.24  1413.67  1425.37  1434.47  1457.97
                             1472.99  1493.84  1507.59  1528.65  1535.08
                             1543.46  1561.50  1578.50  1587.82  1595.57
                             1606.48  1612.91  1628.48  1653.80  1659.63
                             1663.61  1676.73  1687.61  1698.17  1722.91
                             1744.55  1759.67  1788.84  1801.95  1818.14
                             1822.27  1832.46  1841.84  1845.83  1860.83
                             1873.13  1880.37  1905.73  1917.21  1928.60
                             1943.24  1954.36  1967.99  1971.44  1995.47
                             2017.66  2020.46  2033.16  2074.09  2077.77
                             2119.58  2122.56  2124.87  2142.06  2185.03
                             2216.63  4624.11  4668.61  4686.08  4691.31
                             4704.99  4715.73  4717.76  4719.97  4729.73
                             4733.19  4741.87  4747.57  4754.89  4765.41
                             4768.87  4772.55  4806.83  4842.84  4849.55
                             4864.51  5595.64  5601.00

 Zero-point correction=                           0.372562 (Hartree/Particle)
 Thermal correction to Energy=                    0.391447
 Thermal correction to Enthalpy=                  0.392392
 Thermal correction to Gibbs Free Energy=         0.325931
 Sum of electronic and zero-point Energies=          -1297.600449
 Sum of electronic and thermal Energies=             -1297.581563
 Sum of electronic and thermal Enthalpies=           -1297.580619
 Sum of electronic and thermal Free Energies=        -1297.647080

                     E (Thermal)             CV                S
                      KCal/Mol        Cal/Mol-Kelvin    Cal/Mol-Kelvin
 Total                  245.637             77.113            139.878
 Electronic               0.000              0.000              0.000
 Translational            0.889              2.981             43.384
 Rotational               0.889              2.981             35.111
 Vibrational            243.860             71.151             61.383
 Vibration     1          0.595              1.980              5.060
 Vibration     2          0.595              1.978              4.826
 Vibration     3          0.598              1.968              4.154
 Vibration     4          0.600              1.961              3.822
 Vibration     5          0.603              1.953              3.570
 Vibration     6          0.608              1.935              3.138
 Vibration     7          0.620              1.896              2.603
 Vibration     8          0.629              1.867              2.332
 Vibration     9          0.633              1.854              2.232
 Vibration    10          0.647              1.812              1.966
 Vibration    11          0.657              1.780              1.808
 Vibration    12          0.680              1.710              1.533
 Vibration    13          0.681              1.707              1.522
 Vibration    14          0.694              1.670              1.405
 Vibration    15          0.697              1.660              1.377
 Vibration    16          0.705              1.637              1.314
 Vibration    17          0.710              1.623              1.278
 Vibration    18          0.715              1.609              1.243
 Vibration    19          0.725              1.580              1.177
 Vibration    20          0.732              1.562              1.137
 Vibration    21          0.749              1.514              1.042
 Vibration    22          0.764              1.476              0.974
 Vibration    23          0.792              1.403              0.856
 Vibration    24          0.797              1.389              0.836
 Vibration    25          0.810              1.357              0.790
 Vibration    26          0.838              1.292              0.707
 Vibration    27          0.861              1.237              0.644
 Vibration    28          0.870              1.216              0.621
 Vibration    29          0.904              1.143              0.547
 Vibration    30          0.934              1.080              0.490
 Vibration    31          0.959              1.030              0.448
 Vibration    32          0.964              1.021              0.441

 Normal termination of Gaussian 09 at Thu Mar 24 12:43:46 2016.
