 Gaussian 09, Revision B.01,
 Gaussian 09:  EM64L-G09RevB.01 12-Aug-2010

 -------------------------------------------------
 # freq=raman b3lyp/6-31+g(2d,p) geom=connectivity
 -------------------------------------------------

 -----------------
 290 9795/9795.com
 -----------------
 Symbolic Z-matrix:
 Charge =  0 Multiplicity = 1

                         Standard orientation:
 ---------------------------------------------------------------------
 Center     Atomic      Atomic             Coordinates (Angstroms)
 Number     Number       Type             X           Y           Z
 ---------------------------------------------------------------------
      1          8           0       -5.054086   -0.443398    0.132499
      2          6           0       -3.704485   -0.079962   -0.194223
      3          6           0       -3.248212    1.286383    0.289993
      4          8           0       -4.122103    2.310376   -0.207388
      5          1           0       -5.084675    2.043902   -0.256343
      6          6           0       -1.810522    1.612147   -0.079193
      7          8           0       -1.270018    2.836523    0.439077
      8          1           0       -0.310610    2.926184    0.174728
      9          6           0       -2.991255   -2.561370    0.010138
     10          8           0       -4.210812   -3.286493    0.225701
     11          1           0       -3.935587   -4.247393    0.239497
     12          6           0       -2.756964   -1.111179    0.398254
     13          8           0       -1.471870   -0.788621   -0.152130
     14          6           0       -0.924820    0.446785    0.330300
     15          8           0        0.214464    0.502738   -0.539862
     16          6           0        1.485653    0.188895    0.046803
     17          6           0        2.014016   -1.169708   -0.382186
     18          8           0        1.014137   -2.149641   -0.066552
     19          1           0        0.157774   -1.855139   -0.491333
     20          6           0        3.423260   -1.526935    0.062157
     21          8           0        3.925199   -2.596851   -0.751819
     22          1           0        4.780989   -2.906557   -0.336760
     23          6           0        2.317933    2.582715    0.086446
     24          8           0        1.158536    3.124878   -0.564144
     25          1           0        1.275008    4.114835   -0.478545
     26          6           0        2.595232    1.151795   -0.344021
     27          8           0        3.798333    0.865128    0.383550
     28          6           0        4.408842   -0.372270   -0.014984
     29          8           0        5.379633   -0.586051    1.019541
     30          1           0        6.232304   -0.779592    0.623190
     31          1           0       -5.542177   -0.620590   -0.674948
     32          1           0       -2.223841   -3.124435    0.498947
     33          1           0       -2.795755   -2.620112   -1.040209
     34          1           0       -2.731877   -1.016399    1.463753
     35          1           0       -3.602790   -0.105717   -1.259068
     36          1           0       -3.317152    1.290782    1.357760
     37          1           0       -1.769908    1.680362   -1.146244
     38          1           0       -0.669008    0.431320    1.369156
     39          1           0        3.166509    3.188602   -0.153801
     40          1           0        2.164056    2.603580    1.145118
     41          1           0        2.776976    1.107293   -1.397533
     42          1           0        1.382637    0.197188    1.111800
     43          1           0        2.056652   -1.135823   -1.450799
     44          1           0        3.380374   -1.865623    1.076233
     45          1           0        4.866728   -0.299153   -0.979295
 ---------------------------------------------------------------------

 SCF Done:  E(RB3LYP) =  -1297.98459559     A.U. after   13 cycles

 The electronic state is 1-A.
 Alpha  occ. eigenvalues --  -19.19122 -19.18108 -19.17940 -19.17589 -19.17528
 Alpha  occ. eigenvalues --  -19.16837 -19.16429 -19.15902 -19.14533 -19.13848
 Alpha  occ. eigenvalues --  -19.12954 -10.30775 -10.30164 -10.25723 -10.25137
 Alpha  occ. eigenvalues --  -10.25107 -10.25092 -10.24998 -10.24625 -10.24110
 Alpha  occ. eigenvalues --  -10.24062 -10.23823 -10.23640  -1.09993  -1.09300
 Alpha  occ. eigenvalues --   -1.06111  -1.04663  -1.03887  -1.03489  -1.02857
 Alpha  occ. eigenvalues --   -1.02308  -1.01360  -1.00628  -0.99566  -0.82047
 Alpha  occ. eigenvalues --   -0.79820  -0.79149  -0.78097  -0.71698  -0.69795
 Alpha  occ. eigenvalues --   -0.67291  -0.64865  -0.63173  -0.61966  -0.61285
 Alpha  occ. eigenvalues --   -0.60088  -0.56852  -0.55806  -0.54749  -0.54549
 Alpha  occ. eigenvalues --   -0.53410  -0.53050  -0.52851  -0.52328  -0.51185
 Alpha  occ. eigenvalues --   -0.50894  -0.49968  -0.48551  -0.48348  -0.46439
 Alpha  occ. eigenvalues --   -0.45475  -0.45033  -0.44544  -0.43529  -0.43189
 Alpha  occ. eigenvalues --   -0.42756  -0.41546  -0.40887  -0.40369  -0.39118
 Alpha  occ. eigenvalues --   -0.38727  -0.38205  -0.38125  -0.35850  -0.35594
 Alpha  occ. eigenvalues --   -0.35290  -0.34748  -0.33963  -0.33615  -0.33575
 Alpha  occ. eigenvalues --   -0.32893  -0.31765  -0.31276  -0.30350  -0.29384
 Alpha  occ. eigenvalues --   -0.28989  -0.28410  -0.28164  -0.27040  -0.26087
 Alpha  occ. eigenvalues --   -0.26028
 Alpha virt. eigenvalues --   -0.02273  -0.01900  -0.01652  -0.00183   0.00298
 Alpha virt. eigenvalues --    0.00831   0.01981   0.02338   0.02741   0.03235
 Alpha virt. eigenvalues --    0.03819   0.04293   0.04730   0.05538   0.05677

 Mulliken atomic charges:
              1
     1  O   -0.541069
     2  C   -0.053905
     3  C    0.279086
     4  O   -0.570486
     5  H    0.339060
     6  C   -0.027219
     7  O   -0.605795
     8  H    0.430457
     9  C   -0.317098
    10  O   -0.521571
    11  H    0.334197
    12  C    0.217924
    13  O   -0.211677
    14  C    0.210690
    15  O   -0.202803
    16  C    0.206334
    17  C   -0.058309
    18  O   -0.555409
    19  H    0.370122
    20  C    0.218886
    21  O   -0.525782
    22  H    0.326734
    23  C   -0.208551
    24  O   -0.567025
    25  H    0.363758
    26  C   -0.097868
    27  O   -0.228555
    28  C    0.005820
    29  O   -0.516775
    30  H    0.329278
    31  H    0.339550
    32  H    0.145834
    33  H    0.140371
    34  H    0.108771
    35  H    0.117593
    36  H    0.116368
    37  H    0.132392
    38  H    0.136090
    39  H    0.145201
    40  H    0.160366
    41  H    0.125983
    42  H    0.110033
    43  H    0.117730
    44  H    0.141816
    45  H    0.139452
 Sum of Mulliken atomic charges =   0.00000

 Dipole moment (field-independent basis, Debye):
    X=              4.1252    Y=             -0.4032    Z=             -1.5543  Tot=              4.4267
 Quadrupole moment (field-independent basis, Debye-Ang):
   XX=           -118.2204   YY=           -135.9079   ZZ=           -139.8536
   XY=             10.8039   XZ=              2.6812   YZ=             -2.7852

  Exact polarizability: 234.237  -0.806 196.039   2.146   0.554 144.514
 Approx polarizability: 274.858   0.194 254.645   3.079   0.721 241.186

 ******    6 imaginary frequencies (negative Signs) ******

                     1                      2                      3
                     A                      A                      A
 Frequencies --  -318.7357              -268.4015              -229.9878
 Red. masses --     1.6606                 1.1960                 1.1906
 Frc consts  --     0.0994                 0.0508                 0.0371
 IR Inten    --     5.8894               105.9913               102.6419
 Raman Activ --     0.0756                 1.0629                 1.0668

                     4                      5                      6
                     A                      A                      A
 Frequencies --  -192.6849               -70.6422               -52.5430
 Red. masses --     1.9194                 6.6045                 6.0515
 Frc consts  --     0.0420                 0.0194                 0.0098
 IR Inten    --     2.1168                 1.8765                 0.0644
 Raman Activ --     0.1188                 0.0594                 0.0363

                     7                      8                      9
                     A                      A                      A
 Frequencies --    22.0274                47.0528                64.2896
 Red. masses --     6.4204                 6.7795                 6.1982
 Frc consts  --     0.0018                 0.0088                 0.0151
 IR Inten    --     0.8804                 0.5284                 3.5505
 Raman Activ --     0.0464                 0.0730                 0.0305

                    10                     11                     12
                     A                      A                      A
 Frequencies --    72.0044                88.0549               112.4887
 Red. masses --     6.6225                 6.5008                 5.7471
 Frc consts  --     0.0202                 0.0297                 0.0428
 IR Inten    --     0.7972                 0.3001                 2.0719
 Raman Activ --     0.1441                 0.3015                 0.1690

                    13                     14                     15
                     A                      A                      A
 Frequencies --   153.7623               169.8424               183.5700
 Red. masses --     6.4539                 5.7786                 8.0031
 Frc consts  --     0.0899                 0.0982                 0.1589
 IR Inten    --     3.0388                 2.1650                 0.9539
 Raman Activ --     0.4031                 0.2391                 0.5409

                    16                     17                     18
                     A                      A                      A
 Frequencies --   219.6272               232.9281               269.1534
 Red. masses --     7.0564                 5.9720                 4.5529
 Frc consts  --     0.2005                 0.1909                 0.1943
 IR Inten    --     0.2893                 1.6004                11.0859
 Raman Activ --     3.0991                 0.1275                 0.4185

                    19                     20                     21
                     A                      A                      A
 Frequencies --   276.9444               282.7560               302.1183
 Red. masses --     4.8807                 4.4534                 4.8961
 Frc consts  --     0.2206                 0.2098                 0.2633
 IR Inten    --    10.6908                 1.8768                 0.5379
 Raman Activ --     0.0901                 0.1420                 0.4319

                    22                     23                     24
                     A                      A                      A
 Frequencies --   310.1939               323.8026               330.5712
 Red. masses --     6.7023                 5.9053                 5.8016
 Frc consts  --     0.3800                 0.3648                 0.3735
 IR Inten    --     3.2137                 0.5863                 1.0491
 Raman Activ --     1.3800                 3.7952                 1.1319

                    25                     26                     27
                     A                      A                      A
 Frequencies --   349.3264               367.3757               383.7912
 Red. masses --     6.5409                 4.7530                 7.1235
 Frc consts  --     0.4703                 0.3780                 0.6182
 IR Inten    --    13.8934                 1.6129                 4.0909
 Raman Activ --     2.1582                 2.1598                 1.0927

                    28                     29                     30
                     A                      A                      A
 Frequencies --   404.9678               417.3682               431.6519
 Red. masses --     4.4352                 5.3993                 4.8015
 Frc consts  --     0.4286                 0.5541                 0.5271
 IR Inten    --    20.3490                 5.3614                 0.0649
 Raman Activ --     1.9411                 2.7694                 5.4898

                    31                     32                     33
                     A                      A                      A
 Frequencies --   448.9671               478.3152               494.7446
 Red. masses --     4.5262                 4.7218                 3.9506
 Frc consts  --     0.5375                 0.6365                 0.5697
 IR Inten    --     1.5839                 2.7111                15.5786
 Raman Activ --     1.4195                 3.6049                 1.0419

                    34                     35                     36
                     A                      A                      A
 Frequencies --   518.0779               530.2253               572.7425
 Red. masses --     3.7766                 3.1393                 4.1452
 Frc consts  --     0.5972                 0.5200                 0.8011
 IR Inten    --     6.5991                10.7697                14.6810
 Raman Activ --     2.8401                 2.8588                 2.0015

                    37                     38                     39
                     A                      A                      A
 Frequencies --   587.8897               604.5775               631.9840
 Red. masses --     2.8894                 6.3091                 4.0102
 Frc consts  --     0.5884                 1.3587                 0.9437
 IR Inten    --    35.1324                10.2741                13.4706
 Raman Activ --     0.2580                 0.6475                 0.4977

                    40                     41                     42
                     A                      A                      A
 Frequencies --   634.4212               697.7249               700.7557
 Red. masses --     5.2596                 2.3212                 1.3974
 Frc consts  --     1.2473                 0.6658                 0.4043
 IR Inten    --    45.7563                49.6881                26.6619
 Raman Activ --     1.4854                 2.4111                 1.0589

                    43                     44                     45
                     A                      A                      A
 Frequencies --   707.1436               736.3229               750.7967
 Red. masses --     1.0975                 1.0806                 1.0881
 Frc consts  --     0.3233                 0.3452                 0.3614
 IR Inten    --   118.6121                90.2648               163.3723
 Raman Activ --     1.6306                 1.6489                 4.8222

                    46                     47                     48
                     A                      A                      A
 Frequencies --   794.7699               837.3718               853.9968
 Red. masses --     1.1068                 1.8139                 1.2301
 Frc consts  --     0.4119                 0.7494                 0.5286
 IR Inten    --   160.1074                 4.5012                 8.5144
 Raman Activ --     1.5386                 1.1497                 0.3165

                    49                     50                     51
                     A                      A                      A
 Frequencies --   884.5401               913.7712               948.4860
 Red. masses --     1.3910                 5.8318                 4.9848
 Frc consts  --     0.6412                 2.8690                 2.6422
 IR Inten    --    32.7637               116.8911                63.8415
 Raman Activ --     0.8371                 2.7053                 0.4850

                    52                     53                     54
                     A                      A                      A
 Frequencies --   969.2053               979.7139               987.8211
 Red. masses --     6.1545                 4.2018                 4.8391
 Frc consts  --     3.4063                 2.3762                 2.7821
 IR Inten    --    73.9374                24.4493               119.5614
 Raman Activ --     2.7947                 1.3061                 4.5444

                    55                     56                     57
                     A                      A                      A
 Frequencies --  1002.0146              1006.9789              1017.4119
 Red. masses --     6.1665                 6.8694                 5.9476
 Frc consts  --     3.6478                 4.1040                 3.6273
 IR Inten    --   336.1749                72.1306                66.1493
 Raman Activ --     2.6581                 2.5858                 2.1687

                    58                     59                     60
                     A                      A                      A
 Frequencies --  1044.5621              1059.3614              1063.9521
 Red. masses --     5.8982                 5.7791                 4.0629
 Frc consts  --     3.7917                 3.8212                 2.7098
 IR Inten    --   265.4518               124.0031                45.2825
 Raman Activ --     2.6851                 4.3319                 4.0491

                    61                     62                     63
                     A                      A                      A
 Frequencies --  1073.3646              1078.3156              1083.2683
 Red. masses --     4.6722                 3.1846                 6.0320
 Frc consts  --     3.1715                 2.1817                 4.1705
 IR Inten    --    48.8436                61.0126                13.3089
 Raman Activ --     7.6251                20.0514                 4.7444

                    64                     65                     66
                     A                      A                      A
 Frequencies --  1094.8846              1103.5186              1104.8497
 Red. masses --     3.1357                 3.5745                 2.8248
 Frc consts  --     2.2147                 2.5646                 2.0316
 IR Inten    --   110.2035                28.2530                55.7509
 Raman Activ --     5.8075                 7.3964                 2.5719

                    67                     68                     69
                     A                      A                      A
 Frequencies --  1112.7376              1123.4374              1132.4388
 Red. masses --     2.5689                 3.1564                 2.0851
 Frc consts  --     1.8740                 2.3471                 1.5754
 IR Inten    --    25.4833                24.5022                39.2415
 Raman Activ --     7.3145                 8.8455                 2.3866

                    70                     71                     72
                     A                      A                      A
 Frequencies --  1135.7530              1141.4070              1157.2872
 Red. masses --     1.9093                 2.2164                 1.7712
 Frc consts  --     1.4511                 1.7013                 1.3976
 IR Inten    --    31.7441                53.3613                18.5831
 Raman Activ --     6.3052                 4.7326                 1.5910

                    73                     74                     75
                     A                      A                      A
 Frequencies --  1167.2725              1176.8360              1182.2580
 Red. masses --     1.6118                 1.7965                 1.8761
 Frc consts  --     1.2939                 1.4659                 1.5450
 IR Inten    --    12.2795                 2.9093                 4.3506
 Raman Activ --     1.9256                 2.3173                 1.1238

                    76                     77                     78
                     A                      A                      A
 Frequencies --  1199.8619              1206.6818              1218.5013
 Red. masses --     1.3649                 1.2697                 1.2948
 Frc consts  --     1.1577                 1.0893                 1.1327
 IR Inten    --    33.8661                 7.4452                 1.0980
 Raman Activ --     6.3480                 3.5152                 0.5463

                    79                     80                     81
                     A                      A                      A
 Frequencies --  1229.5544              1231.8845              1248.0058
 Red. masses --     1.2935                 1.2615                 1.2946
 Frc consts  --     1.1521                 1.1279                 1.1880
 IR Inten    --     7.9336                 0.4049                15.2977
 Raman Activ --     1.6886                 1.0993                 1.0179

                    82                     83                     84
                     A                      A                      A
 Frequencies --  1268.8678              1274.5471              1278.8582
 Red. masses --     1.2493                 1.2362                 1.3096
 Frc consts  --     1.1851                 1.1832                 1.2620
 IR Inten    --     7.3682                10.8790                26.4599
 Raman Activ --     4.8385                 2.3511                 1.5575

                    85                     86                     87
                     A                      A                      A
 Frequencies --  1290.0390              1293.7987              1302.7309
 Red. masses --     1.3625                 1.3814                 1.2812
 Frc consts  --     1.3359                 1.3624                 1.2811
 IR Inten    --    13.7101                18.6349                45.3040
 Raman Activ --     1.0404                 1.4485                 2.8455

                    88                     89                     90
                     A                      A                      A
 Frequencies --  1319.5230              1320.0937              1328.5727
 Red. masses --     1.1977                 1.2685                 1.3688
 Frc consts  --     1.2286                 1.3025                 1.4235
 IR Inten    --     0.7834                18.9810                15.5531
 Raman Activ --     6.8157                 7.4548                 6.1006

                    91                     92                     93
                     A                      A                      A
 Frequencies --  1335.5222              1340.6461              1346.0078
 Red. masses --     1.2460                 1.2652                 1.2567
 Frc consts  --     1.3094                 1.3398                 1.3415
 IR Inten    --     7.8637                67.4976                28.5675
 Raman Activ --     0.8188                 3.1050                 7.8171

                    94                     95                     96
                     A                      A                      A
 Frequencies --  1356.5650              1362.8272              1366.6390
 Red. masses --     1.5242                 1.1785                 1.5245
 Frc consts  --     1.6526                 1.2897                 1.6775
 IR Inten    --    11.3147                25.8639                12.6610
 Raman Activ --     8.2974                 3.8889                 5.9631

                    97                     98                     99
                     A                      A                      A
 Frequencies --  1382.2690              1387.6568              1392.2765
 Red. masses --     1.2970                 1.5092                 1.4591
 Frc consts  --     1.4601                 1.7122                 1.6664
 IR Inten    --     2.8782                28.1594                12.8891
 Raman Activ --     2.5257                 4.0038                 5.0661

                   100                    101                    102
                     A                      A                      A
 Frequencies --  1406.8756              1438.8240              1466.3174
 Red. masses --     1.4854                 1.3565                 1.1734
 Frc consts  --     1.7322                 1.6546                 1.4864
 IR Inten    --    11.0756                36.9946                18.4534
 Raman Activ --     2.3172                 1.7101                 2.3970

                   103                    104                    105
                     A                      A                      A
 Frequencies --  1467.3849              1475.6570              1484.5357
 Red. masses --     1.2840                 1.0773                 1.3288
 Frc consts  --     1.6289                 1.3821                 1.7254
 IR Inten    --    12.2851                 4.0539                50.3157
 Raman Activ --     3.8899                 4.7110                 3.7076

                   106                    107                    108
                     A                      A                      A
 Frequencies --  1491.5192              1514.9896              3227.3915
 Red. masses --     1.3387                 1.2458                 1.0687
 Frc consts  --     1.7546                 1.6847                 6.5584
 IR Inten    --     6.4431                31.3531              1057.5068
 Raman Activ --     0.9055                 0.7556               161.7458

                   109                    110                    111
                     A                      A                      A
 Frequencies --  3253.5161              3262.3258              3264.3408
 Red. masses --     1.0582                 1.0796                 1.0598
 Frc consts  --     6.5999                 6.7700                 6.6540
 IR Inten    --    40.9398                24.9056                11.6035
 Raman Activ --    74.0659                29.7776               239.2027

                   112                    113                    114
                     A                      A                      A
 Frequencies --  3266.9559              3274.8760              3279.3485
 Red. masses --     1.0803                 1.0837                 1.0836
 Frc consts  --     6.7933                 6.8478                 6.8660
 IR Inten    --    23.8404                 2.8760                 0.3034
 Raman Activ --    33.7520               121.7130                33.8593

                   115                    116                    117
                     A                      A                      A
 Frequencies --  3284.0992              3289.0050              3291.5133
 Red. masses --     1.0852                 1.0850                 1.0873
 Frc consts  --     6.8958                 6.9153                 6.9405
 IR Inten    --     2.4409                 7.1452                12.7349
 Raman Activ --    33.1403               114.6240                18.6551

                   118                    119                    120
                     A                      A                      A
 Frequencies --  3293.4177              3300.6468              3304.1832
 Red. masses --     1.0881                 1.0873                 1.0968
 Frc consts  --     6.9538                 6.9792                 7.0549
 IR Inten    --    21.3570                44.7606                 8.8317
 Raman Activ --    25.8592                24.7294                23.2887

                   121                    122                    123
                     A                      A                      A
 Frequencies --  3307.1564              3325.0563              3331.4918
 Red. masses --     1.0908                 1.1083                 1.0672
 Frc consts  --     7.0290                 7.2194                 6.9788
 IR Inten    --   111.2582                41.1192               372.9311
 Raman Activ --    16.8117                47.1589               133.3516

                   124                    125                    126
                     A                      A                      A
 Frequencies --  3363.3548              3366.8377              3367.7326
 Red. masses --     1.0660                 1.0666                 1.0664
 Frc consts  --     7.1045                 7.1237                 7.1261
 IR Inten    --    27.5909                39.2914                48.0198
 Raman Activ --   147.5657               137.4829               124.5869

                   127                    128                    129
                     A                      A                      A
 Frequencies --  3372.9656              3888.6788              3891.3492
 Red. masses --     1.0674                 1.0677                 1.0673
 Frc consts  --     7.1548                 9.5129                 9.5226
 IR Inten    --    42.5386                76.7539                61.5964
 Raman Activ --   139.5389                83.1477               130.4047

 - Thermochemistry -
 -------------------
 Temperature   298.150 Kelvin.  Pressure   1.00000 Atm.
 Atom     1 has atomic number  8 and mass  15.99491

 Molecular mass:   342.11621 amu.
 Principal axes and moments of inertia in atomic units:
                           1         2         3
     Eigenvalues --  4383.16615********************
           X            0.99998   0.00618   0.00004
           Y           -0.00618   0.99998   0.00014
           Z           -0.00004  -0.00014   1.00000
 This molecule is an asymmetric top.
 Rotational symmetry number  1.
 Warning -- assumption of classical behavior for rotation
           may cause significant error
 Rotational temperatures (Kelvin)      0.01976     0.00701     0.00534
 Rotational constants (GHZ):           0.41174     0.14616     0.11128
    6 imaginary frequencies ignored.
 Zero-point vibrational energy     974814.3 (Joules/Mol)
                                  232.98620 (Kcal/Mol)
 Warning -- explicit consideration of  32 degrees of freedom as
           vibrations may cause significant error
 Vibrational temperatures:     31.69    67.70    92.50   103.60   126.69
          (Kelvin)            161.85   221.23   244.37   264.12   315.99
                              335.13   387.25   398.46   406.82   434.68
                              446.30   465.88   475.62   502.60   528.57
                              552.19   582.66   600.50   621.05   645.96
                              688.19   711.83   745.40   762.87   824.05
                              845.84   869.85   909.28   912.79  1003.87
                             1008.23  1017.42  1059.40  1080.23  1143.50
                             1204.79  1228.71  1272.65  1314.71  1364.66
                             1394.47  1409.59  1421.25  1441.67  1448.82
                             1463.83  1502.89  1524.18  1530.79  1544.33
                             1551.45  1558.58  1575.29  1587.72  1589.63
                             1600.98  1616.37  1629.32  1634.09  1642.23
                             1665.08  1679.44  1693.20  1701.00  1726.33
                             1736.14  1753.15  1769.05  1772.40  1795.60
                             1825.62  1833.79  1839.99  1856.08  1861.49
                             1874.34  1898.50  1899.32  1911.52  1921.52
                             1928.89  1936.60  1951.79  1960.80  1966.29
                             1988.77  1996.53  2003.17  2024.18  2070.14
                             2109.70  2111.24  2123.14  2135.91  2145.96
                             2179.73  4643.49  4681.08  4693.75  4696.65
                             4700.42  4711.81  4718.25  4725.08  4732.14
                             4735.75  4738.49  4748.89  4753.98  4758.25
                             4784.01  4793.27  4839.11  4844.12  4845.41
                             4852.94  5594.93  5598.78

 Zero-point correction=                           0.371287 (Hartree/Particle)
 Thermal correction to Energy=                    0.390455
 Thermal correction to Enthalpy=                  0.391399
 Thermal correction to Gibbs Free Energy=         0.323559
 Sum of electronic and zero-point Energies=          -1297.613308
 Sum of electronic and thermal Energies=             -1297.594140
 Sum of electronic and thermal Enthalpies=           -1297.593196
 Sum of electronic and thermal Free Energies=        -1297.661036

                     E (Thermal)             CV                S
                      KCal/Mol        Cal/Mol-Kelvin    Cal/Mol-Kelvin
 Total                  245.014             77.701            142.781
 Electronic               0.000              0.000              0.000
 Translational            0.889              2.981             43.384
 Rotational               0.889              2.981             35.128
 Vibrational            243.237             71.740             64.269
 Vibration     1          0.593              1.985              6.442
 Vibration     2          0.595              1.979              4.938
 Vibration     3          0.597              1.971              4.321
 Vibration     4          0.598              1.967              4.098
 Vibration     5          0.601              1.958              3.703
 Vibration     6          0.607              1.939              3.226
 Vibration     7          0.619              1.898              2.625
 Vibration     8          0.625              1.880              2.437
 Vibration     9          0.631              1.862              2.292
 Vibration    10          0.647              1.811              1.962
 Vibration    11          0.654              1.791              1.856
 Vibration    12          0.674              1.730              1.602
 Vibration    13          0.678              1.716              1.552
 Vibration    14          0.682              1.706              1.517
 Vibration    15          0.694              1.670              1.405
 Vibration    16          0.699              1.654              1.361
 Vibration    17          0.708              1.628              1.291
 Vibration    18          0.713              1.614              1.257
 Vibration    19          0.727              1.577              1.169
 Vibration    20          0.740              1.539              1.091
 Vibration    21          0.753              1.505              1.024
 Vibration    22          0.770              1.459              0.945
 Vibration    23          0.780              1.433              0.901
 Vibration    24          0.793              1.401              0.853
 Vibration    25          0.808              1.363              0.799
 Vibration    26          0.835              1.298              0.715
 Vibration    27          0.850              1.262              0.671
 Vibration    28          0.873              1.210              0.614
 Vibration    29          0.885              1.183              0.587
 Vibration    30          0.929              1.090              0.499
 Vibration    31          0.945              1.058              0.471
 Vibration    32          0.963              1.022              0.442

 Normal termination of Gaussian 09 at Wed Mar 23 05:54:42 2016.
