 Gaussian 09, Revision B.01,
 Gaussian 09:  EM64L-G09RevB.01 12-Aug-2010

 -------------------------------------------------
 # freq=raman b3lyp/6-31+g(2d,p) geom=connectivity
 -------------------------------------------------

 -----------------
 320 9655/9655.com
 -----------------
 Symbolic Z-matrix:
 Charge =  0 Multiplicity = 1

                         Standard orientation:
 ---------------------------------------------------------------------
 Center     Atomic      Atomic             Coordinates (Angstroms)
 Number     Number       Type             X           Y           Z
 ---------------------------------------------------------------------
      1          8           0       -4.985538   -0.349175    0.299151
      2          6           0       -3.691733   -0.095760   -0.267366
      3          6           0       -3.333426    1.291983    0.237740
      4          8           0       -4.125173    2.289011   -0.423894
      5          1           0       -5.094307    2.055353   -0.344806
      6          6           0       -1.847276    1.531934    0.029966
      7          8           0       -1.258381    2.757070    0.491545
      8          1           0       -0.320433    2.798609    0.146797
      9          6           0       -3.087438   -2.561842   -0.211748
     10          8           0       -4.299358   -3.184079    0.238186
     11          1           0       -4.243698   -4.181103    0.193606
     12          6           0       -2.719452   -1.153771    0.227912
     13          8           0       -1.411371   -0.825698   -0.264285
     14          6           0       -0.948281    0.361532    0.394417
     15          8           0        0.248755    0.608533   -0.357659
     16          6           0        1.480824    0.134533    0.205311
     17          6           0        1.999030   -1.237229   -0.196202
     18          8           0        1.020439   -2.263714    0.021996
     19          1           0        0.085869   -1.992980   -0.206947
     20          6           0        3.443327   -1.544349    0.164118
     21          8           0        3.922640   -2.714286   -0.514616
     22          1           0        4.838838   -2.962735   -0.199308
     23          6           0        2.244012    2.680440    0.218065
     24          8           0        1.329458    3.381015   -0.638311
     25          1           0        1.410225    4.370266   -0.522596
     26          6           0        2.521265    1.211310   -0.056694
     27          8           0        3.872331    0.872809    0.287746
     28          6           0        4.358347   -0.386656   -0.200723
     29          8           0        5.564711   -0.622009    0.540371
     30          1           0        6.287729   -0.787003   -0.069236
     31          1           0        3.180271    3.197027    0.179873
     32          1           0        1.870253    2.755681    1.217836
     33          1           0        2.557920    1.201429   -1.126020
     34          1           0        1.334554    0.100368    1.264716
     35          1           0        2.037876   -1.172854   -1.263557
     36          1           0        3.504908   -1.710770    1.219301
     37          1           0        4.548546   -0.352801   -1.253138
     38          1           0       -5.619864   -0.498518   -0.405780
     39          1           0       -2.281081   -3.200984    0.081826
     40          1           0       -3.117976   -2.556643   -1.281299
     41          1           0       -2.699502   -1.124839    1.297335
     42          1           0       -3.743411   -0.103761   -1.336087
     43          1           0       -3.540743    1.335511    1.286561
     44          1           0       -1.758675    1.598946   -1.034252
     45          1           0       -0.780596    0.243241    1.444555
 ---------------------------------------------------------------------

 SCF Done:  E(RB3LYP) =  -1297.96743320     A.U. after   13 cycles

 The electronic state is 1-A.
 Alpha  occ. eigenvalues --  -19.18934 -19.18289 -19.18066 -19.17982 -19.17423
 Alpha  occ. eigenvalues --  -19.16571 -19.16376 -19.16353 -19.15536 -19.13920
 Alpha  occ. eigenvalues --  -19.13833 -10.30864 -10.30677 -10.25769 -10.25692
 Alpha  occ. eigenvalues --  -10.25592 -10.25236 -10.25178 -10.25007 -10.24555
 Alpha  occ. eigenvalues --  -10.24546 -10.24452 -10.23913  -1.10666  -1.08788
 Alpha  occ. eigenvalues --   -1.05390  -1.04701  -1.03992  -1.03393  -1.02705
 Alpha  occ. eigenvalues --   -1.02516  -1.01935  -1.00655  -1.00195  -0.82189
 Alpha  occ. eigenvalues --   -0.80382  -0.79319  -0.78207  -0.72180  -0.70289
 Alpha  occ. eigenvalues --   -0.67555  -0.65224  -0.63307  -0.62916  -0.61351
 Alpha  occ. eigenvalues --   -0.60034  -0.56473  -0.55826  -0.55004  -0.54597
 Alpha  occ. eigenvalues --   -0.54148  -0.53478  -0.52847  -0.51972  -0.51264
 Alpha  occ. eigenvalues --   -0.50866  -0.50100  -0.49552  -0.48736  -0.46731
 Alpha  occ. eigenvalues --   -0.45977  -0.45064  -0.44639  -0.43939  -0.43822
 Alpha  occ. eigenvalues --   -0.42354  -0.41678  -0.41105  -0.40098  -0.39511
 Alpha  occ. eigenvalues --   -0.38389  -0.38008  -0.36537  -0.36316  -0.35681
 Alpha  occ. eigenvalues --   -0.35395  -0.34699  -0.34415  -0.34051  -0.33400
 Alpha  occ. eigenvalues --   -0.32742  -0.31068  -0.30607  -0.30154  -0.29833
 Alpha  occ. eigenvalues --   -0.29400  -0.28904  -0.27766  -0.27443  -0.26751
 Alpha  occ. eigenvalues --   -0.26423
 Alpha virt. eigenvalues --   -0.01944  -0.01822  -0.01410  -0.00429   0.00573
 Alpha virt. eigenvalues --    0.00866   0.01769   0.02172   0.02889   0.03356
 Alpha virt. eigenvalues --    0.03665   0.04343   0.04510   0.05428   0.05533

 Mulliken atomic charges:
              1
     1  O   -0.538077
     2  C    0.065638
     3  C    0.249998
     4  O   -0.554137
     5  H    0.336386
     6  C   -0.135371
     7  O   -0.589612
     8  H    0.407466
     9  C   -0.213118
    10  O   -0.536572
    11  H    0.344870
    12  C    0.099798
    13  O   -0.218038
    14  C    0.121955
    15  O   -0.229097
    16  C    0.416547
    17  C    0.109994
    18  O   -0.576162
    19  H    0.377146
    20  C    0.053700
    21  O   -0.537390
    22  H    0.337695
    23  C   -0.396212
    24  O   -0.540958
    25  H    0.357820
    26  C   -0.094160
    27  O   -0.297165
    28  C    0.200621
    29  O   -0.533392
    30  H    0.334160
    31  H    0.152296
    32  H    0.150138
    33  H    0.116136
    34  H    0.099412
    35  H    0.111779
    36  H    0.135156
    37  H    0.139053
    38  H    0.336647
    39  H    0.142576
    40  H    0.141072
    41  H    0.116758
    42  H    0.129605
    43  H    0.127498
    44  H    0.135896
    45  H    0.141644
 Sum of Mulliken atomic charges =   0.00000

 Dipole moment (field-independent basis, Debye):
    X=              1.5647    Y=             -0.8164    Z=             -1.3075  Tot=              2.1965
 Quadrupole moment (field-independent basis, Debye-Ang):
   XX=           -115.1962   YY=           -135.4678   ZZ=           -140.1693
   XY=             12.4806   XZ=              0.9050   YZ=              0.6835

  Exact polarizability: 235.531  -2.074 199.177   0.267   0.582 144.452
 Approx polarizability: 276.158  -1.826 258.373  -0.183   0.156 241.096

 ******    7 imaginary frequencies (negative Signs) ******

                     1                      2                      3
                     A                      A                      A
 Frequencies --  -298.6838              -287.0545              -233.5064
 Red. masses --     1.6943                 1.7208                 1.1958
 Frc consts  --     0.0891                 0.0835                 0.0384
 IR Inten    --    12.3530                 7.3655                96.3895
 Raman Activ --     0.0914                 0.0661                 0.9281

                     4                      5                      6
                     A                      A                      A
 Frequencies --  -214.9537               -76.9618               -50.6607
 Red. masses --     1.2136                 7.0310                 5.9496
 Frc consts  --     0.0330                 0.0245                 0.0090
 IR Inten    --   118.0513                 0.9584                 1.2778
 Raman Activ --     0.9019                 0.0217                 0.0442

                     7                      8                      9
                     A                      A                      A
 Frequencies --   -24.5550                42.5250                63.6146
 Red. masses --     6.3643                 6.8612                 6.9554
 Frc consts  --     0.0023                 0.0073                 0.0166
 IR Inten    --     2.7973                 0.7380                 3.7873
 Raman Activ --     0.0554                 0.0571                 0.0373

                    10                     11                     12
                     A                      A                      A
 Frequencies --    73.9704                92.1957               108.1834
 Red. masses --     6.8088                 6.5544                 5.7180
 Frc consts  --     0.0220                 0.0328                 0.0394
 IR Inten    --     2.2766                 0.7661                 3.7309
 Raman Activ --     0.2822                 0.1250                 0.1523

                    13                     14                     15
                     A                      A                      A
 Frequencies --   137.2352               152.0369               180.3751
 Red. masses --     5.9900                 5.7975                 6.8669
 Frc consts  --     0.0665                 0.0790                 0.1316
 IR Inten    --     6.4167                 0.5000                 0.1210
 Raman Activ --     0.2698                 0.1111                 0.1736

                    16                     17                     18
                     A                      A                      A
 Frequencies --   189.9201               227.6651               256.8225
 Red. masses --     7.1156                 6.0461                 5.0304
 Frc consts  --     0.1512                 0.1846                 0.1955
 IR Inten    --     0.8209                 1.7518                 4.5562
 Raman Activ --     1.9439                 1.5397                 0.4013

                    19                     20                     21
                     A                      A                      A
 Frequencies --   276.2902               292.5126               297.9017
 Red. masses --     5.5679                 4.2742                 4.5205
 Frc consts  --     0.2504                 0.2155                 0.2364
 IR Inten    --     9.0778                 5.6169                 0.2823
 Raman Activ --     0.2597                 0.4185                 0.2810

                    22                     23                     24
                     A                      A                      A
 Frequencies --   300.9118               316.9354               317.8998
 Red. masses --     6.4564                 5.5164                 5.7431
 Frc consts  --     0.3444                 0.3265                 0.3420
 IR Inten    --     8.6209                 2.1776                 7.9087
 Raman Activ --     1.0501                 2.7432                 1.6310

                    25                     26                     27
                     A                      A                      A
 Frequencies --   325.0462               343.2829               383.7880
 Red. masses --     6.7921                 5.4348                 5.0301
 Frc consts  --     0.4228                 0.3773                 0.4365
 IR Inten    --     3.5787                 2.9816                 3.8314
 Raman Activ --     3.6124                 2.7590                 0.7367

                    28                     29                     30
                     A                      A                      A
 Frequencies --   399.8171               421.4084               423.7618
 Red. masses --     5.2284                 5.8143                 4.6351
 Frc consts  --     0.4924                 0.6084                 0.4904
 IR Inten    --    19.6459                 6.4975                 1.3060
 Raman Activ --     2.6665                 7.0564                 3.6984

                    31                     32                     33
                     A                      A                      A
 Frequencies --   430.9035               469.6979               476.4641
 Red. masses --     5.2475                 3.9322                 4.3647
 Frc consts  --     0.5741                 0.5111                 0.5838
 IR Inten    --     2.0205                18.9988                 5.8725
 Raman Activ --     3.0339                 1.6939                 3.1418

                    34                     35                     36
                     A                      A                      A
 Frequencies --   502.3147               521.1787               562.1829
 Red. masses --     5.0525                 3.0108                 3.3276
 Frc consts  --     0.7511                 0.4818                 0.6196
 IR Inten    --     2.7192                 8.2862                 8.4842
 Raman Activ --     0.9751                 4.7904                 0.3432

                    37                     38                     39
                     A                      A                      A
 Frequencies --   579.6190               598.5540               612.7954
 Red. masses --     4.1915                 6.8634                 4.9774
 Frc consts  --     0.8297                 1.4488                 1.1013
 IR Inten    --    37.0129                 2.2872                 7.3239
 Raman Activ --     1.2243                 0.8419                 0.2021

                    40                     41                     42
                     A                      A                      A
 Frequencies --   631.6728               661.8062               693.1465
 Red. masses --     3.4337                 1.1043                 4.8212
 Frc consts  --     0.8072                 0.2850                 1.3648
 IR Inten    --    46.1247               111.8762                19.7378
 Raman Activ --     0.4867                 1.6956                 2.1374

                    43                     44                     45
                     A                      A                      A
 Frequencies --   711.3037               726.2296               730.0438
 Red. masses --     1.0769                 1.0611                 1.0553
 Frc consts  --     0.3210                 0.3297                 0.3314
 IR Inten    --   107.4460               127.0444                94.0012
 Raman Activ --     1.9885                 1.8187                 1.8681

                    46                     47                     48
                     A                      A                      A
 Frequencies --   738.4434               823.5680               842.8762
 Red. masses --     1.0549                 1.1328                 1.7697
 Frc consts  --     0.3389                 0.4527                 0.7408
 IR Inten    --    91.4999                49.9275                 2.8853
 Raman Activ --     1.6722                 0.2494                 0.7329

                    49                     50                     51
                     A                      A                      A
 Frequencies --   849.8028               919.4545               947.4285
 Red. masses --     1.6946                 5.4943                 5.6479
 Frc consts  --     0.7210                 2.7367                 2.9870
 IR Inten    --    16.2369               116.8214               102.9969
 Raman Activ --     0.9206                 2.6056                 1.0229

                    52                     53                     54
                     A                      A                      A
 Frequencies --   970.7839               977.8651               989.3566
 Red. masses --     6.2395                 5.7214                 5.0828
 Frc consts  --     3.4646                 3.2234                 2.9313
 IR Inten    --    15.6242                81.4487                95.6782
 Raman Activ --     1.7392                 0.3533                 1.5990

                    55                     56                     57
                     A                      A                      A
 Frequencies --   995.2350              1003.2425              1010.7010
 Red. masses --     5.5585                 6.2370                 6.3267
 Frc consts  --     3.2438                 3.6986                 3.8078
 IR Inten    --   224.1341                54.2388                79.5148
 Raman Activ --     3.5653                 1.5529                 3.1140

                    58                     59                     60
                     A                      A                      A
 Frequencies --  1028.8057              1042.1699              1056.3032
 Red. masses --     7.5669                 5.0977                 4.1854
 Frc consts  --     4.7188                 3.2621                 2.7515
 IR Inten    --   492.8845                98.3016                61.3213
 Raman Activ --     3.3871                 1.9085                 4.4687

                    61                     62                     63
                     A                      A                      A
 Frequencies --  1064.3690              1069.7215              1077.3799
 Red. masses --     4.8357                 2.8144                 5.4753
 Frc consts  --     3.2277                 1.8975                 3.7445
 IR Inten    --    45.3501                19.5300                46.3983
 Raman Activ --     0.8980                30.2536                 0.9113

                    64                     65                     66
                     A                      A                      A
 Frequencies --  1090.2391              1103.0088              1112.5281
 Red. masses --     3.1873                 3.1783                 2.7041
 Frc consts  --     2.2321                 2.2782                 1.9719
 IR Inten    --    11.0444                 1.7332                11.0575
 Raman Activ --    12.1712                 4.1689                 5.9337

                    67                     68                     69
                     A                      A                      A
 Frequencies --  1118.7170              1119.1624              1126.6546
 Red. masses --     2.5182                 3.0708                 3.1809
 Frc consts  --     1.8569                 2.2662                 2.3790
 IR Inten    --    85.9543                53.7379                40.0359
 Raman Activ --     1.9903                 4.6809                 3.7618

                    70                     71                     72
                     A                      A                      A
 Frequencies --  1143.6470              1154.2372              1161.1196
 Red. masses --     1.6839                 2.1961                 1.4533
 Frc consts  --     1.2976                 1.7238                 1.1544
 IR Inten    --    19.5732                35.1782                 9.6130
 Raman Activ --     2.8410                 2.7373                 1.0482

                    73                     74                     75
                     A                      A                      A
 Frequencies --  1173.9787              1183.7003              1195.3434
 Red. masses --     2.2362                 1.7672                 1.2558
 Frc consts  --     1.8159                 1.4589                 1.0572
 IR Inten    --    14.6709                20.2312                24.6206
 Raman Activ --     6.5271                 2.1364                 1.3567

                    76                     77                     78
                     A                      A                      A
 Frequencies --  1205.5548              1220.1737              1225.5007
 Red. masses --     1.8993                 1.2795                 1.3629
 Frc consts  --     1.6263                 1.1223                 1.2060
 IR Inten    --     9.0990                11.5610                 7.4431
 Raman Activ --     1.4406                 1.8153                 3.6224

                    79                     80                     81
                     A                      A                      A
 Frequencies --  1231.8007              1240.0000              1258.5863
 Red. masses --     1.3769                 1.1991                 1.2861
 Frc consts  --     1.2309                 1.0863                 1.2003
 IR Inten    --    13.8524                10.7320                29.8198
 Raman Activ --     1.1422                 0.7867                 4.4982

                    82                     83                     84
                     A                      A                      A
 Frequencies --  1269.1560              1286.9356              1290.1678
 Red. masses --     1.2962                 1.1857                 1.2035
 Frc consts  --     1.2301                 1.1570                 1.1803
 IR Inten    --    24.0144                 9.6055                 3.2183
 Raman Activ --     0.8141                 2.1605                 6.0802

                    85                     86                     87
                     A                      A                      A
 Frequencies --  1294.6635              1304.3327              1313.6421
 Red. masses --     1.3748                 1.2569                 1.3494
 Frc consts  --     1.3577                 1.2599                 1.3719
 IR Inten    --    23.4584                 8.2195                 6.8800
 Raman Activ --     1.7577                 2.1240                 3.3858

                    88                     89                     90
                     A                      A                      A
 Frequencies --  1320.0778              1333.2262              1335.9552
 Red. masses --     1.2649                 1.3504                 1.2805
 Frc consts  --     1.2987                 1.4142                 1.3465
 IR Inten    --    24.9038                 4.1785                57.8740
 Raman Activ --     3.9216                 3.4423                 3.3996

                    91                     92                     93
                     A                      A                      A
 Frequencies --  1343.2343              1350.0208              1361.6575
 Red. masses --     1.1783                 1.2466                 1.4072
 Frc consts  --     1.2526                 1.3386                 1.5372
 IR Inten    --    30.0538                37.3580                 6.2546
 Raman Activ --     2.2962                 5.3498                 7.2213

                    94                     95                     96
                     A                      A                      A
 Frequencies --  1361.9556              1365.4534              1369.6668
 Red. masses --     1.2068                 1.3564                 1.1905
 Frc consts  --     1.3189                 1.4900                 1.3158
 IR Inten    --     8.3671                 5.0803                31.2717
 Raman Activ --    12.3167                 2.2399                 2.1391

                    97                     98                     99
                     A                      A                      A
 Frequencies --  1381.4373              1386.9862              1402.9686
 Red. masses --     1.2982                 1.6396                 1.3006
 Frc consts  --     1.4597                 1.8583                 1.5084
 IR Inten    --    18.0210                 6.0552                 4.7956
 Raman Activ --     8.3054                 5.8729                 3.9537

                   100                    101                    102
                     A                      A                      A
 Frequencies --  1409.6802              1416.5600              1443.7138
 Red. masses --     1.4296                 1.4524                 1.4270
 Frc consts  --     1.6738                 1.7171                 1.7525
 IR Inten    --    20.5975                34.0625                20.8529
 Raman Activ --     0.5916                 1.6160                 1.1397

                   103                    104                    105
                     A                      A                      A
 Frequencies --  1447.0794              1452.2859              1470.6020
 Red. masses --     1.4233                 1.3684                 1.1025
 Frc consts  --     1.7560                 1.7004                 1.4049
 IR Inten    --    14.5965                22.3365                 1.4089
 Raman Activ --     3.0425                 1.4105                 3.2001

                   106                    107                    108
                     A                      A                      A
 Frequencies --  1475.0254              1479.5336              3236.3527
 Red. masses --     1.0852                 1.3754                 1.0768
 Frc consts  --     1.3911                 1.7739                 6.6452
 IR Inten    --    12.2498                37.2542                 3.9619
 Raman Activ --     4.6085                 2.3448                62.2086

                   109                    110                    111
                     A                      A                      A
 Frequencies --  3244.3895              3254.5896              3258.1163
 Red. masses --     1.0771                 1.0579                 1.0616
 Frc consts  --     6.6802                 6.6023                 6.6394
 IR Inten    --    20.4870                33.7238                49.3257
 Raman Activ --   138.0528                88.7899                36.6468

                   112                    113                    114
                     A                      A                      A
 Frequencies --  3265.5594              3271.0026              3276.0845
 Red. masses --     1.0805                 1.0834                 1.0836
 Frc consts  --     6.7890                 6.8296                 6.8520
 IR Inten    --    15.0008                45.1356                20.6856
 Raman Activ --   118.0102                 4.2173                73.7330

                   115                    116                    117
                     A                      A                      A
 Frequencies --  3282.4266              3287.0604              3297.1344
 Red. masses --     1.0840                 1.0846                 1.0719
 Frc consts  --     6.8810                 6.9046                 6.8658
 IR Inten    --     8.2546                 4.4556               136.3931
 Raman Activ --    37.9136                93.6267               199.2108

                   118                    119                    120
                     A                      A                      A
 Frequencies --  3299.0338              3299.4447              3303.9306
 Red. masses --     1.0878                 1.0874                 1.0852
 Frc consts  --     6.9757                 6.9749                 6.9795
 IR Inten    --    24.0781                51.5661               270.3369
 Raman Activ --    63.9025                18.8819                57.2279

                   121                    122                    123
                     A                      A                      A
 Frequencies --  3308.9675              3312.6345              3314.6270
 Red. masses --     1.0971                 1.0746                 1.1037
 Frc consts  --     7.0778                 6.9479                 7.1443
 IR Inten    --   131.7174               631.5923                18.8575
 Raman Activ --     9.4987               131.0796                59.9497

                   124                    125                    126
                     A                      A                      A
 Frequencies --  3367.8395              3369.2539              3373.4469
 Red. masses --     1.0662                 1.0656                 1.0683
 Frc consts  --     7.1252                 7.1272                 7.1627
 IR Inten    --    42.4404                31.1232                53.8532
 Raman Activ --   146.2865               126.2573               179.2302

                   127                    128                    129
                     A                      A                      A
 Frequencies --  3384.3370              3886.9133              3890.9115
 Red. masses --     1.0674                 1.0676                 1.0674
 Frc consts  --     7.2035                 9.5031                 9.5208
 IR Inten    --    72.2478                64.0671                67.8580
 Raman Activ --   144.2494                93.5153               124.8051

 - Thermochemistry -
 -------------------
 Temperature   298.150 Kelvin.  Pressure   1.00000 Atm.
 Atom     1 has atomic number  8 and mass  15.99491

 Molecular mass:   342.11621 amu.
 Principal axes and moments of inertia in atomic units:
                           1         2         3
     Eigenvalues --  4462.76895********************
           X            0.99998   0.00680   0.00004
           Y           -0.00680   0.99997   0.00219
           Z           -0.00003  -0.00219   1.00000
 This molecule is an asymmetric top.
 Rotational symmetry number  1.
 Warning -- assumption of classical behavior for rotation
           may cause significant error
 Rotational temperatures (Kelvin)      0.01941     0.00694     0.00524
 Rotational constants (GHZ):           0.40440     0.14470     0.10913
    7 imaginary frequencies ignored.
 Zero-point vibrational energy     971688.0 (Joules/Mol)
                                  232.23900 (Kcal/Mol)
 Warning -- explicit consideration of  32 degrees of freedom as
           vibrations may cause significant error
 Vibrational temperatures:     61.18    91.53   106.43   132.65   155.65
          (Kelvin)            197.45   218.75   259.52   273.25   327.56
                              369.51   397.52   420.86   428.61   432.94
                              456.00   457.39   467.67   493.91   552.18
                              575.25   606.31   609.70   619.97   675.79
                              685.52   722.72   749.86   808.85   833.94
                              861.18   881.67   908.84   952.19   997.28
                             1023.41  1044.88  1050.37  1062.45  1184.93
                             1212.71  1222.68  1322.89  1363.14  1396.74
                             1406.93  1423.46  1431.92  1443.44  1454.17
                             1480.22  1499.45  1519.78  1531.39  1539.09
                             1550.11  1568.61  1586.98  1600.68  1609.58
                             1610.22  1621.00  1645.45  1660.69  1670.59
                             1689.09  1703.08  1719.83  1734.52  1755.56
                             1763.22  1772.28  1784.08  1810.82  1826.03
                             1851.61  1856.26  1862.73  1876.64  1890.04
                             1899.30  1918.21  1922.14  1932.61  1942.38
                             1959.12  1959.55  1964.58  1970.64  1987.58
                             1995.56  2018.56  2028.21  2038.11  2077.18
                             2082.02  2089.51  2115.87  2122.23  2128.72
                             4656.38  4667.95  4682.62  4687.70  4698.41
                             4706.24  4713.55  4722.67  4729.34  4743.84
                             4746.57  4747.16  4753.61  4760.86  4766.14
                             4769.00  4845.56  4847.60  4853.63  4869.30
                             5592.39  5598.15

 Zero-point correction=                           0.370096 (Hartree/Particle)
 Thermal correction to Energy=                    0.388743
 Thermal correction to Enthalpy=                  0.389687
 Thermal correction to Gibbs Free Energy=         0.324022
 Sum of electronic and zero-point Energies=          -1297.597337
 Sum of electronic and thermal Energies=             -1297.578690
 Sum of electronic and thermal Enthalpies=           -1297.577746
 Sum of electronic and thermal Free Energies=        -1297.643411

                     E (Thermal)             CV                S
                      KCal/Mol        Cal/Mol-Kelvin    Cal/Mol-Kelvin
 Total                  243.940             76.567            138.203
 Electronic               0.000              0.000              0.000
 Translational            0.889              2.981             43.384
 Rotational               0.889              2.981             35.175
 Vibrational            242.162             70.606             59.644
 Vibration     1          0.595              1.980              5.138
 Vibration     2          0.597              1.972              4.342
 Vibration     3          0.599              1.966              4.045
 Vibration     4          0.602              1.955              3.613
 Vibration     5          0.606              1.943              3.301
 Vibration     6          0.614              1.916              2.842
 Vibration     7          0.619              1.900              2.647
 Vibration     8          0.629              1.866              2.325
 Vibration     9          0.633              1.854              2.229
 Vibration    10          0.651              1.799              1.897
 Vibration    11          0.666              1.751              1.683
 Vibration    12          0.678              1.717              1.557
 Vibration    13          0.688              1.688              1.459
 Vibration    14          0.691              1.678              1.429
 Vibration    15          0.693              1.672              1.412
 Vibration    16          0.704              1.641              1.326
 Vibration    17          0.704              1.639              1.321
 Vibration    18          0.709              1.625              1.285
 Vibration    19          0.722              1.589              1.197
 Vibration    20          0.753              1.505              1.024
 Vibration    21          0.766              1.471              0.963
 Vibration    22          0.784              1.424              0.887
 Vibration    23          0.786              1.419              0.879
 Vibration    24          0.792              1.403              0.856
 Vibration    25          0.827              1.317              0.738
 Vibration    26          0.833              1.302              0.720
 Vibration    27          0.858              1.245              0.652
 Vibration    28          0.876              1.203              0.607
 Vibration    29          0.918              1.113              0.519
 Vibration    30          0.936              1.075              0.486
 Vibration    31          0.957              1.035              0.452
 Vibration    32          0.972              1.005              0.428

 Normal termination of Gaussian 09 at Fri Mar 25 17:02:00 2016.
