 Gaussian 09, Revision B.01,
 Gaussian 09:  EM64L-G09RevB.01 12-Aug-2010

 -------------------------------------------------
 # freq=raman b3lyp/6-31+g(2d,p) geom=connectivity
 -------------------------------------------------

 -----------------
 310 9194/9194.com
 -----------------
 Symbolic Z-matrix:
 Charge =  0 Multiplicity = 1

                         Standard orientation:
 ---------------------------------------------------------------------
 Center     Atomic      Atomic             Coordinates (Angstroms)
 Number     Number       Type             X           Y           Z
 ---------------------------------------------------------------------
      1          8           0        4.974519   -0.384159   -0.319028
      2          6           0        3.704657   -0.068563    0.269209
      3          6           0        3.245271    1.228372   -0.376470
      4          8           0        4.158261    2.317596   -0.176681
      5          1           0        5.049163    2.049051   -0.543528
      6          6           0        1.861144    1.564555    0.152430
      7          8           0        1.365785    2.754524   -0.478785
      8          1           0        0.491571    2.927683   -0.025290
      9          6           0        3.003499   -2.566608    0.231650
     10          8           0        4.240920   -3.260053    0.015870
     11          1           0        4.039282   -4.221626   -0.170983
     12          6           0        2.663038   -1.118707   -0.081025
     13          8           0        1.379640   -0.763084    0.453326
     14          6           0        0.853764    0.453193   -0.095583
     15          8           0       -0.325562    0.598624    0.708637
     16          6           0       -1.523961    0.231218    0.009478
     17          6           0       -1.867286   -1.227060    0.268965
     18          8           0       -0.904358   -2.179791   -0.203881
     19          1           0       -0.006435   -1.808364    0.034336
     20          6           0       -3.263013   -1.523774   -0.253793
     21          8           0       -3.767916   -2.819120    0.101874
     22          1           0       -4.751249   -2.754595   -0.065622
     23          6           0       -2.392643    2.570476   -0.022398
     24          8           0       -1.372022    3.488902    0.394569
     25          1           0       -1.601449    4.428869    0.138886
     26          6           0       -2.666147    1.144078    0.426101
     27          8           0       -3.881591    0.747280   -0.223838
     28          6           0       -4.365998   -0.554147    0.138383
     29          8           0       -5.546087   -0.642705   -0.673615
     30          1           0       -6.307750   -0.810759   -0.113948
     31          1           0       -4.595921   -0.611017    1.181839
     32          1           0       -3.197591   -1.499783   -1.321521
     33          1           0       -1.908936   -1.343374    1.331808
     34          1           0       -1.355702    0.357354   -1.039654
     35          1           0       -2.791896    1.112203    1.488208
     36          1           0       -3.310048    3.088976    0.163144
     37          1           0       -2.268908    2.497611   -1.082719
     38          1           0        5.597469   -0.620477    0.372121
     39          1           0        3.676053   -2.033136    0.870383
     40          1           0        3.096195   -2.537533   -0.833931
     41          1           0        2.557894   -1.073321   -1.144879
     42          1           0        3.792147    0.044266    1.329640
     43          1           0        3.162836    1.059407   -1.429825
     44          1           0        1.929286    1.737298    1.206194
     45          1           0        0.617332    0.348956   -1.133915
 ---------------------------------------------------------------------

 SCF Done:  E(RB3LYP) =  -1297.68258575     A.U. after   16 cycles

 The electronic state is 1-A.
 Alpha  occ. eigenvalues --  -19.19827 -19.19021 -19.18925 -19.18892 -19.18726
 Alpha  occ. eigenvalues --  -19.18175 -19.17652 -19.15993 -19.15373 -19.14741
 Alpha  occ. eigenvalues --  -19.13572 -10.31502 -10.31148 -10.30271 -10.26556
 Alpha  occ. eigenvalues --  -10.26300 -10.25463 -10.25222 -10.25038 -10.24970
 Alpha  occ. eigenvalues --  -10.24239 -10.24013 -10.19067  -1.11510  -1.09669
 Alpha  occ. eigenvalues --   -1.07348  -1.06221  -1.05152  -1.04373  -1.03516
 Alpha  occ. eigenvalues --   -1.03039  -1.02577  -1.01233  -1.00279  -0.84676
 Alpha  occ. eigenvalues --   -0.81794  -0.80095  -0.79012  -0.73441  -0.70652
 Alpha  occ. eigenvalues --   -0.67973  -0.65601  -0.64215  -0.63446  -0.62756
 Alpha  occ. eigenvalues --   -0.60911  -0.57735  -0.56806  -0.55663  -0.55177
 Alpha  occ. eigenvalues --   -0.54593  -0.54383  -0.54040  -0.52824  -0.51059
 Alpha  occ. eigenvalues --   -0.50856  -0.50458  -0.50083  -0.49019  -0.47117
 Alpha  occ. eigenvalues --   -0.46156  -0.45678  -0.45081  -0.44292  -0.43473
 Alpha  occ. eigenvalues --   -0.43034  -0.42558  -0.41681  -0.40551  -0.40144
 Alpha  occ. eigenvalues --   -0.39149  -0.38452  -0.37784  -0.36894  -0.36586
 Alpha  occ. eigenvalues --   -0.35826  -0.35255  -0.34778  -0.34240  -0.33689
 Alpha  occ. eigenvalues --   -0.32818  -0.31354  -0.30845  -0.29953  -0.29692
 Alpha  occ. eigenvalues --   -0.29503  -0.28144  -0.27463  -0.27175  -0.26423
 Alpha  occ. eigenvalues --   -0.19578
 Alpha virt. eigenvalues --   -0.09427  -0.02271  -0.02119  -0.01568  -0.00008
 Alpha virt. eigenvalues --    0.00883   0.01645   0.01977   0.02236   0.02926
 Alpha virt. eigenvalues --    0.03448   0.03921   0.04658   0.04836   0.05637

 Mulliken atomic charges:
              1
     1  O   -0.539399
     2  C   -0.019073
     3  C    0.078633
     4  O   -0.542781
     5  H    0.343304
     6  C   -0.103273
     7  O   -0.539834
     8  H    0.390771
     9  C   -1.582180
    10  O   -0.483055
    11  H    0.372978
    12  C    0.967733
    13  O   -0.182482
    14  C    0.267944
    15  O   -0.216596
    16  C    0.150106
    17  C    0.178780
    18  O   -0.565696
    19  H    0.405143
    20  C    0.189186
    21  O   -0.545587
    22  H    0.328776
    23  C   -0.291198
    24  O   -0.572550
    25  H    0.355800
    26  C    0.083577
    27  O   -0.226739
    28  C   -0.008058
    29  O   -0.517008
    30  H    0.336980
    31  H    0.139251
    32  H    0.130391
    33  H    0.119521
    34  H    0.109991
    35  H    0.125246
    36  H    0.142394
    37  H    0.149315
    38  H    0.342912
    39  H    0.268917
    40  H    0.323913
    41  H    0.095877
    42  H    0.137031
    43  H    0.121375
    44  H    0.135890
    45  H    0.143772
 Sum of Mulliken atomic charges =   0.00000

 Dipole moment (field-independent basis, Debye):
    X=             -0.7328    Y=              1.7459    Z=              0.6096  Tot=              1.9892
 Quadrupole moment (field-independent basis, Debye-Ang):
   XX=           -103.8856   YY=           -147.7006   ZZ=           -139.3569
   XY=            -16.2027   XZ=             -7.5128   YZ=              3.8398

  Exact polarizability: 246.983  -6.383 214.506  -1.055  -1.050 147.061
 Approx polarizability: 293.694 -10.731 284.181  -0.643  -0.104 250.586

 ******   10 imaginary frequencies (negative Signs) ******

                     1                      2                      3
                     A                      A                      A
 Frequencies -- -2110.8783              -873.6673              -612.9777
 Red. masses --     1.0458                 1.2488                 2.6801
 Frc consts  --     2.7454                 0.5616                 0.5933
 IR Inten    --   606.6185               122.7172                21.6113
 Raman Activ --   178.3970                13.2318                 5.5159

                     4                      5                      6
                     A                      A                      A
 Frequencies --  -496.9024              -343.9925              -179.1143
 Red. masses --     1.5570                 1.6984                 5.9257
 Frc consts  --     0.2265                 0.1184                 0.1120
 IR Inten    --   315.6612                 3.6856                15.3330
 Raman Activ --    74.4614                 0.0257                 0.2806

                     7                      8                      9
                     A                      A                      A
 Frequencies --  -172.9151              -156.6872               -80.0084
 Red. masses --     1.2772                 1.6851                 5.9844
 Frc consts  --     0.0225                 0.0244                 0.0226
 IR Inten    --    83.3130                65.0203                 5.9929
 Raman Activ --     0.6689                 2.3009                 0.2107

                    10                     11                     12
                     A                      A                      A
 Frequencies --   -35.0853                25.8762                58.7263
 Red. masses --     4.1966                 6.4759                 6.6141
 Frc consts  --     0.0030                 0.0026                 0.0134
 IR Inten    --    25.4473                 0.2298                 9.2725
 Raman Activ --     1.3363                 0.2324                 0.2597

                    13                     14                     15
                     A                      A                      A
 Frequencies --    76.3775               107.7676               120.0928
 Red. masses --     4.6512                 5.8245                 5.8773
 Frc consts  --     0.0160                 0.0399                 0.0499
 IR Inten    --    17.9693                 1.6644                 1.5012
 Raman Activ --     0.8156                 0.3477                 0.1868

                    16                     17                     18
                     A                      A                      A
 Frequencies --   132.3806               158.6458               172.2973
 Red. masses --     5.8281                 5.5148                 5.9179
 Frc consts  --     0.0602                 0.0818                 0.1035
 IR Inten    --    12.2427                34.0698                 0.7948
 Raman Activ --     0.5525                 9.6194                 0.8453

                    19                     20                     21
                     A                      A                      A
 Frequencies --   192.7301               222.8878               256.4635
 Red. masses --     6.5575                 6.6276                 4.1128
 Frc consts  --     0.1435                 0.1940                 0.1594
 IR Inten    --     2.3407                 1.7233                26.3801
 Raman Activ --     1.4968                 3.3806                 0.3426

                    22                     23                     24
                     A                      A                      A
 Frequencies --   276.1207               290.2732               293.3543
 Red. masses --     4.5104                 4.8685                 5.4474
 Frc consts  --     0.2026                 0.2417                 0.2762
 IR Inten    --     0.7406                 0.7839                 0.0490
 Raman Activ --     0.9513                 1.0547                 3.4191

                    25                     26                     27
                     A                      A                      A
 Frequencies --   301.9285               308.5678               313.7626
 Red. masses --     7.1327                 6.4128                 4.6252
 Frc consts  --     0.3831                 0.3598                 0.2683
 IR Inten    --     7.8877                 9.3642                11.5947
 Raman Activ --    16.9173                 2.0953                 1.3336

                    28                     29                     30
                     A                      A                      A
 Frequencies --   326.0957               361.1833               384.6112
 Red. masses --     6.5946                 4.6504                 8.1260
 Frc consts  --     0.4132                 0.3574                 0.7082
 IR Inten    --     7.0233                 4.2811                 5.7343
 Raman Activ --     4.2134                 0.6616                 3.4982

                    31                     32                     33
                     A                      A                      A
 Frequencies --   398.6104               408.2289               427.0313
 Red. masses --     6.5799                 5.2806                 4.7851
 Frc consts  --     0.6160                 0.5185                 0.5141
 IR Inten    --     0.7226                 9.8103                 4.9954
 Raman Activ --     0.5177                 1.7921                 6.9674

                    34                     35                     36
                     A                      A                      A
 Frequencies --   438.0897               464.1006               483.2587
 Red. masses --     5.6315                 4.8373                 4.8580
 Frc consts  --     0.6368                 0.6139                 0.6684
 IR Inten    --    14.4487                 6.1668                 5.3673
 Raman Activ --     3.0662                 2.9113                 1.6634

                    37                     38                     39
                     A                      A                      A
 Frequencies --   500.3296               549.7962               566.8703
 Red. masses --     3.4551                 3.2449                 3.1030
 Frc consts  --     0.5096                 0.5779                 0.5875
 IR Inten    --    16.1429                15.8949                12.9476
 Raman Activ --     1.8488                 5.9173                 0.9541

                    40                     41                     42
                     A                      A                      A
 Frequencies --   590.1812               608.3353               614.4550
 Red. masses --     3.2700                 4.1434                 2.5146
 Frc consts  --     0.6711                 0.9034                 0.5594
 IR Inten    --    44.1749                33.0853                43.1446
 Raman Activ --     1.2110                 2.3578                 4.2899

                    43                     44                     45
                     A                      A                      A
 Frequencies --   625.0414               629.1465               676.1175
 Red. masses --     2.1289                 2.8388                 1.1080
 Frc consts  --     0.4900                 0.6620                 0.2984
 IR Inten    --    58.0262                19.1306               106.6936
 Raman Activ --    10.7926                 9.1143                 1.5937

                    46                     47                     48
                     A                      A                      A
 Frequencies --   679.6726               728.7340               738.1153
 Red. masses --     4.1874                 1.0810                 1.0710
 Frc consts  --     1.1397                 0.3382                 0.3438
 IR Inten    --    17.3126                78.0036               102.8885
 Raman Activ --     4.3421                 1.5023                 1.7983

                    49                     50                     51
                     A                      A                      A
 Frequencies --   834.0351               846.4656               854.1485
 Red. masses --     1.2159                 1.5741                 2.3106
 Frc consts  --     0.4983                 0.6645                 0.9932
 IR Inten    --    55.6237               102.4026               201.5276
 Raman Activ --     1.2939                 2.8716                 7.7400

                    52                     53                     54
                     A                      A                      A
 Frequencies --   867.6773               894.9707               916.2670
 Red. masses --     1.4387                 1.7634                 4.3494
 Frc consts  --     0.6382                 0.8322                 2.1514
 IR Inten    --    45.4940               161.7206               144.6759
 Raman Activ --     3.9778                 7.6416                 6.2422

                    55                     56                     57
                     A                      A                      A
 Frequencies --   937.3257               966.8890               978.8201
 Red. masses --     5.5022                 5.1383                 5.8604
 Frc consts  --     2.8482                 2.8303                 3.3082
 IR Inten    --    26.4672               183.2107               150.1117
 Raman Activ --     0.7569                 5.2567                 2.6769

                    58                     59                     60
                     A                      A                      A
 Frequencies --   991.7484               997.3144              1004.4791
 Red. masses --     6.0654                 5.8275                 5.8438
 Frc consts  --     3.5149                 3.4151                 3.4740
 IR Inten    --   129.6820                21.7153                38.5692
 Raman Activ --     3.2171                26.1497                 2.8025

                    61                     62                     63
                     A                      A                      A
 Frequencies --  1018.3191              1046.0584              1057.3551
 Red. masses --     5.8804                 4.1496                 3.2586
 Frc consts  --     3.5927                 2.6753                 2.1464
 IR Inten    --   164.7200               201.0163                80.9660
 Raman Activ --     3.1910                15.8794                10.0465

                    64                     65                     66
                     A                      A                      A
 Frequencies --  1074.0751              1080.9869              1086.1970
 Red. masses --     3.8954                 5.5793                 4.6513
 Frc consts  --     2.6477                 3.8412                 3.2333
 IR Inten    --     4.9168                 9.9519                77.7568
 Raman Activ --     8.5927                 8.1210                 1.9505

                    67                     68                     69
                     A                      A                      A
 Frequencies --  1097.1863              1102.6477              1110.9689
 Red. masses --     2.8654                 3.4202                 2.5109
 Frc consts  --     2.0324                 2.4501                 1.8259
 IR Inten    --    13.3592                47.1246                33.8620
 Raman Activ --    14.2026                 4.9082                 7.1668

                    70                     71                     72
                     A                      A                      A
 Frequencies --  1125.8405              1127.3395              1133.4039
 Red. masses --     2.3243                 2.2436                 2.5817
 Frc consts  --     1.7358                 1.6800                 1.9540
 IR Inten    --    35.6160                26.9610                13.9446
 Raman Activ --     1.5520                 1.7227                 5.5998

                    73                     74                     75
                     A                      A                      A
 Frequencies --  1135.8802              1150.3092              1158.2861
 Red. masses --     3.4222                 1.9715                 2.0109
 Frc consts  --     2.6015                 1.5370                 1.5895
 IR Inten    --   100.1081                26.9920                25.8973
 Raman Activ --     0.6959                 4.5036                 4.2605

                    76                     77                     78
                     A                      A                      A
 Frequencies --  1163.4873              1182.1065              1204.5669
 Red. masses --     1.4802                 2.1480                 1.2446
 Frc consts  --     1.1806                 1.7684                 1.0640
 IR Inten    --    12.4716                11.2289                18.9353
 Raman Activ --     1.0007                 4.8875                 1.1581

                    79                     80                     81
                     A                      A                      A
 Frequencies --  1215.9984              1225.2828              1232.4585
 Red. masses --     1.3699                 1.2990                 1.3778
 Frc consts  --     1.1934                 1.1491                 1.2331
 IR Inten    --    18.4084                 4.2900                 2.0717
 Raman Activ --     2.3887                 1.8789                 1.9244

                    82                     83                     84
                     A                      A                      A
 Frequencies --  1241.8996              1258.1651              1267.3350
 Red. masses --     1.2274                 1.3178                 1.2906
 Frc consts  --     1.1154                 1.2290                 1.2213
 IR Inten    --     0.3566                 3.1900                 0.9009
 Raman Activ --     1.1410                 1.2377                 1.3864

                    85                     86                     87
                     A                      A                      A
 Frequencies --  1287.6964              1294.0777              1309.3046
 Red. masses --     1.3286                 1.2927                 1.3759
 Frc consts  --     1.2980                 1.2755                 1.3897
 IR Inten    --    34.7082                18.6619                22.2873
 Raman Activ --     0.5375                 5.9472                 1.6661

                    88                     89                     90
                     A                      A                      A
 Frequencies --  1311.5387              1324.9900              1328.8981
 Red. masses --     1.2986                 1.2230                 1.3798
 Frc consts  --     1.3161                 1.2650                 1.4356
 IR Inten    --    12.9025                17.0488                 4.1047
 Raman Activ --     4.0208                 6.2369                10.7694

                    91                     92                     93
                     A                      A                      A
 Frequencies --  1330.7866              1344.2786              1350.5187
 Red. masses --     1.3453                 1.2154                 1.2447
 Frc consts  --     1.4037                 1.2941                 1.3376
 IR Inten    --    26.4618                51.7870                29.8222
 Raman Activ --     7.5408                 4.1551                 3.4743

                    94                     95                     96
                     A                      A                      A
 Frequencies --  1363.6368              1368.4962              1371.9964
 Red. masses --     1.2068                 1.2776                 1.3546
 Frc consts  --     1.3221                 1.4097                 1.5024
 IR Inten    --   142.9050                40.3095                 6.9844
 Raman Activ --    10.1550                 7.9995                 5.3007

                    97                     98                     99
                     A                      A                      A
 Frequencies --  1376.5139              1378.2323              1404.4699
 Red. masses --     1.4636                 1.2750                 1.4209
 Frc consts  --     1.6340                 1.4270                 1.6514
 IR Inten    --     5.9144                 5.1681                 2.4413
 Raman Activ --     3.5369                10.1122                 8.2528

                   100                    101                    102
                     A                      A                      A
 Frequencies --  1425.5331              1438.8550              1459.1688
 Red. masses --     1.6438                 1.4101                 1.1101
 Frc consts  --     1.9681                 1.7201                 1.3926
 IR Inten    --     2.3769                36.7199                10.6561
 Raman Activ --    23.2327                 6.5204                 4.5835

                   103                    104                    105
                     A                      A                      A
 Frequencies --  1475.1233              1487.1167              1509.5784
 Red. masses --     1.2631                 1.3093                 1.2905
 Frc consts  --     1.6194                 1.7060                 1.7326
 IR Inten    --     5.7994                36.1224                51.8417
 Raman Activ --     0.5216                 2.0481                 3.2958

                   106                    107                    108
                     A                      A                      A
 Frequencies --  1511.0124              1561.6842              3177.8111
 Red. masses --     1.2956                 1.1196                 1.0589
 Frc consts  --     1.7428                 1.6088                 6.3001
 IR Inten    --    44.2479                58.5565                 7.0898
 Raman Activ --     2.9950                 8.2313               158.6522

                   109                    110                    111
                     A                      A                      A
 Frequencies --  3208.7032              3250.1910              3260.1930
 Red. masses --     1.0637                 1.0584                 1.0763
 Frc consts  --     6.4523                 6.5877                 6.7402
 IR Inten    --    51.1235                28.6762               241.1411
 Raman Activ --    17.8332                67.3443               213.2098

                   112                    113                    114
                     A                      A                      A
 Frequencies --  3272.7165              3275.1311              3276.1727
 Red. masses --     1.0828                 1.0729                 1.0822
 Frc consts  --     6.8331                 6.7804                 6.8437
 IR Inten    --     2.8076               407.1421                21.6051
 Raman Activ --     8.2976               124.8590               109.4027

                   115                    116                    117
                     A                      A                      A
 Frequencies --  3279.3995              3285.6361              3288.0132
 Red. masses --     1.0835                 1.0861                 1.0851
 Frc consts  --     6.8655                 6.9080                 6.9118
 IR Inten    --     4.3229                21.6970                 2.2954
 Raman Activ --   119.7525                 8.4490                39.0702

                   118                    119                    120
                     A                      A                      A
 Frequencies --  3296.4563              3298.3276              3305.6437
 Red. masses --     1.0873                 1.0865                 1.0876
 Frc consts  --     6.9611                 6.9641                 7.0024
 IR Inten    --    59.0033                 9.4849                87.6965
 Raman Activ --    52.2607                42.1696                11.3637

                   121                    122                    123
                     A                      A                      A
 Frequencies --  3309.8490              3313.1541              3347.5388
 Red. masses --     1.0994                 1.0698                 1.0695
 Frc consts  --     7.0960                 6.9188                 7.0610
 IR Inten    --    63.1529               524.0243               143.2301
 Raman Activ --    52.5203               121.9143               139.0872

                   124                    125                    126
                     A                      A                      A
 Frequencies --  3359.6723              3362.6882              3371.0959
 Red. masses --     1.0655                 1.0680                 1.0657
 Frc consts  --     7.0860                 7.1154                 7.1353
 IR Inten    --    33.1324                78.2249                43.6625
 Raman Activ --    95.3908               160.1472               117.6373

                   127                    128                    129
                     A                      A                      A
 Frequencies --  3400.4870              3889.4015              3892.6435
 Red. masses --     1.1011                 1.0675                 1.0675
 Frc consts  --     7.5014                 9.5145                 9.5303
 IR Inten    --   165.4333                76.5829                79.8303
 Raman Activ --    26.8691                86.1393               128.8369

 - Thermochemistry -
 -------------------
 Temperature   298.150 Kelvin.  Pressure   1.00000 Atm.
 Atom     1 has atomic number  8 and mass  15.99491

 Molecular mass:   342.11621 amu.
 Principal axes and moments of inertia in atomic units:
                           1         2         3
     Eigenvalues --  4475.46586********************
           X            0.99997  -0.00806  -0.00157
           Y            0.00806   0.99997   0.00046
           Z            0.00157  -0.00047   1.00000
 This molecule is an asymmetric top.
 Rotational symmetry number  1.
 Warning -- assumption of classical behavior for rotation
           may cause significant error
 Rotational temperatures (Kelvin)      0.01935     0.00702     0.00528
 Rotational constants (GHZ):           0.40325     0.14627     0.10993
   10 imaginary frequencies ignored.
 Zero-point vibrational energy     949996.3 (Joules/Mol)
                                  227.05457 (Kcal/Mol)
 Warning -- explicit consideration of  32 degrees of freedom as
           vibrations may cause significant error
 Vibrational temperatures:     37.23    84.49   109.89   155.05   172.79
          (Kelvin)            190.47   228.26   247.90   277.30   320.69
                              368.99   397.28   417.64   422.07   434.41
                              443.96   451.43   469.18   519.66   553.37
                              573.51   587.35   614.40   630.31   667.74
                              695.30   719.86   791.03   815.60   849.14
                              875.26   884.06   899.29   905.20   972.78
                              977.90  1048.48  1061.98  1199.99  1217.87
                             1228.93  1248.39  1287.66  1318.30  1348.60
                             1391.14  1408.30  1426.90  1434.91  1445.22
                             1465.13  1505.04  1521.30  1545.35  1555.30
                             1562.79  1578.60  1586.46  1598.43  1619.83
                             1621.99  1630.71  1634.28  1655.04  1666.51
                             1674.00  1700.79  1733.10  1749.55  1762.91
                             1773.23  1786.81  1810.22  1823.41  1852.71
                             1861.89  1883.79  1887.01  1906.36  1911.99
                             1914.70  1934.11  1943.09  1961.97  1968.96
                             1973.99  1980.49  1982.97  2020.72  2051.02
                             2070.19  2099.42  2122.37  2139.63  2171.94
                             2174.01  2246.91  4572.16  4616.60  4676.29
                             4690.68  4708.70  4712.18  4713.68  4718.32
                             4727.29  4730.71  4742.86  4745.55  4756.08
                             4762.13  4766.88  4816.36  4833.81  4838.15
                             4850.25  4892.54  5595.97  5600.64

 Zero-point correction=                           0.361834 (Hartree/Particle)
 Thermal correction to Energy=                    0.380425
 Thermal correction to Enthalpy=                  0.381369
 Thermal correction to Gibbs Free Energy=         0.315467
 Sum of electronic and zero-point Energies=          -1297.320751
 Sum of electronic and thermal Energies=             -1297.302161
 Sum of electronic and thermal Enthalpies=           -1297.301217
 Sum of electronic and thermal Free Energies=        -1297.367119

                     E (Thermal)             CV                S
                      KCal/Mol        Cal/Mol-Kelvin    Cal/Mol-Kelvin
 Total                  238.720             75.941            138.702
 Electronic               0.000              0.000              0.000
 Translational            0.889              2.981             43.384
 Rotational               0.889              2.981             35.160
 Vibrational            236.943             69.979             60.158
 Vibration     1          0.593              1.985              6.123
 Vibration     2          0.596              1.974              4.500
 Vibration     3          0.599              1.965              3.982
 Vibration     4          0.606              1.943              3.309
 Vibration     5          0.609              1.933              3.099
 Vibration     6          0.612              1.921              2.911
 Vibration     7          0.621              1.893              2.566
 Vibration     8          0.626              1.877              2.410
 Vibration     9          0.635              1.850              2.201
 Vibration    10          0.649              1.806              1.936
 Vibration    11          0.666              1.752              1.686
 Vibration    12          0.678              1.718              1.558
 Vibration    13          0.686              1.692              1.472
 Vibration    14          0.688              1.686              1.455
 Vibration    15          0.694              1.670              1.406
 Vibration    16          0.698              1.657              1.370
 Vibration    17          0.702              1.647              1.342
 Vibration    18          0.710              1.623              1.279
 Vibration    19          0.735              1.552              1.117
 Vibration    20          0.754              1.503              1.021
 Vibration    21          0.765              1.473              0.968
 Vibration    22          0.773              1.452              0.933
 Vibration    23          0.789              1.411              0.868
 Vibration    24          0.798              1.387              0.833
 Vibration    25          0.822              1.330              0.754
 Vibration    26          0.839              1.287              0.701
 Vibration    27          0.856              1.249              0.657
 Vibration    28          0.905              1.140              0.545
 Vibration    29          0.923              1.103              0.510
 Vibration    30          0.948              1.053              0.467
 Vibration    31          0.967              1.014              0.436
 Vibration    32          0.974              1.001              0.425

 Normal termination of Gaussian 09 at Thu Mar 24 14:25:58 2016.
