 Gaussian 09, Revision B.01,
 Gaussian 09:  EM64L-G09RevB.01 12-Aug-2010

 -------------------------------------------------
 # freq=raman b3lyp/6-31+g(2d,p) geom=connectivity
 -------------------------------------------------

 -----------------
 493 5234/5234.com
 -----------------
 Symbolic Z-matrix:
 Charge =  0 Multiplicity = 1

                         Standard orientation:
 ---------------------------------------------------------------------
 Center     Atomic      Atomic             Coordinates (Angstroms)
 Number     Number       Type             X           Y           Z
 ---------------------------------------------------------------------
      1          8           0       -5.077157   -0.311049    0.352316
      2          6           0       -3.784063   -0.054646   -0.213524
      3          6           0       -3.124425    1.163686    0.410511
      4          8           0       -4.111737    2.203511    0.476731
      5          1           0       -4.961217    1.724260    0.693433
      6          6           0       -1.819670    1.608069   -0.231144
      7          8           0       -1.308000    2.860586    0.246120
      8          1           0       -0.474526    3.027732   -0.280202
      9          6           0       -3.172013   -2.578152   -0.245226
     10          8           0       -4.344018   -3.154282    0.350319
     11          1           0       -4.110520   -4.107237    0.541587
     12          6           0       -2.760597   -1.146821    0.055505
     13          8           0       -1.461527   -0.859074   -0.480689
     14          6           0       -0.902133    0.403639   -0.093077
     15          8           0        0.369023    0.612415   -0.726485
     16          6           0        1.527155    0.205335    0.015697
     17          6           0        2.034752   -1.154490   -0.436482
     18          8           0        0.967179   -2.110614   -0.367078
     19          1           0        0.072025   -1.717795   -0.575515
     20          6           0        3.308461   -1.537091    0.299492
     21          8           0        4.014296   -2.711198   -0.127854
     22          1           0        4.981549   -2.708015    0.125517
     23          6           0        2.272590    2.580846    0.087727
     24          8           0        1.244448    3.353462   -0.547155
     25          1           0        1.274197    4.310428   -0.257783
     26          6           0        2.675804    1.158606   -0.268480
     27          8           0        3.886858    0.789683    0.405824
     28          6           0        4.375504   -0.496803   -0.002046
     29          8           0        5.461906   -0.677830    0.918186
     30          1           0        6.267084   -0.864662    0.429942
     31          1           0        4.694628   -0.510876   -1.023252
     32          1           0        3.126749   -1.580373    1.353061
     33          1           0        2.295201   -1.059743   -1.469966
     34          1           0        1.309939    0.189828    1.063302
     35          1           0        2.868868    1.129234   -1.320509
     36          1           0        3.165761    3.164191    0.004930
     37          1           0        2.017368    2.557690    1.126585
     38          1           0       -5.702999   -0.497877   -0.351258
     39          1           0       -2.346323   -3.202793    0.024885
     40          1           0       -3.293802   -2.650872   -1.305782
     41          1           0       -2.625487   -1.126144    1.116740
     42          1           0       -3.879404    0.092714   -1.269031
     43          1           0       -2.889301    0.899527    1.420381
     44          1           0       -2.012545    1.734397   -1.276008
     45          1           0       -0.695619    0.318428    0.953342
 ---------------------------------------------------------------------

 SCF Done:  E(RB3LYP) =  -1297.95685235     A.U. after   13 cycles

 The electronic state is 1-A.
 Alpha  occ. eigenvalues --  -19.19728 -19.18891 -19.18697 -19.18560 -19.18237
 Alpha  occ. eigenvalues --  -19.17926 -19.16814 -19.15687 -19.14511 -19.14183
 Alpha  occ. eigenvalues --  -19.13378 -10.31033 -10.30996 -10.26221 -10.26005
 Alpha  occ. eigenvalues --  -10.25844 -10.25676 -10.25096 -10.25068 -10.24970
 Alpha  occ. eigenvalues --  -10.24521 -10.24509 -10.24237  -1.10465  -1.09767
 Alpha  occ. eigenvalues --   -1.06302  -1.05470  -1.04743  -1.03778  -1.03210
 Alpha  occ. eigenvalues --   -1.02393  -1.01955  -1.00410  -1.00132  -0.82758
 Alpha  occ. eigenvalues --   -0.81412  -0.79446  -0.79023  -0.72028  -0.70584
 Alpha  occ. eigenvalues --   -0.67720  -0.64865  -0.63146  -0.62692  -0.62075
 Alpha  occ. eigenvalues --   -0.60894  -0.56974  -0.55911  -0.55558  -0.55044
 Alpha  occ. eigenvalues --   -0.54730  -0.53815  -0.52845  -0.51979  -0.51299
 Alpha  occ. eigenvalues --   -0.51033  -0.50171  -0.49863  -0.48852  -0.46785
 Alpha  occ. eigenvalues --   -0.46493  -0.45507  -0.45021  -0.43933  -0.43748
 Alpha  occ. eigenvalues --   -0.43113  -0.42646  -0.41592  -0.40437  -0.39620
 Alpha  occ. eigenvalues --   -0.39444  -0.38194  -0.37416  -0.36501  -0.36396
 Alpha  occ. eigenvalues --   -0.35687  -0.34727  -0.34007  -0.33876  -0.33453
 Alpha  occ. eigenvalues --   -0.33278  -0.31532  -0.31061  -0.30289  -0.29934
 Alpha  occ. eigenvalues --   -0.29560  -0.29050  -0.27971  -0.27519  -0.26811
 Alpha  occ. eigenvalues --   -0.26423
 Alpha virt. eigenvalues --   -0.02483  -0.02132  -0.01943  -0.00424   0.00296
 Alpha virt. eigenvalues --    0.00938   0.01654   0.02127   0.03319   0.03623
 Alpha virt. eigenvalues --    0.04130   0.04237   0.04869   0.05239   0.05402

 Mulliken atomic charges:
              1
     1  O   -0.543571
     2  C   -0.092854
     3  C    0.329985
     4  O   -0.580630
     5  H    0.356870
     6  C   -0.204294
     7  O   -0.535601
     8  H    0.400694
     9  C   -0.349230
    10  O   -0.500603
    11  H    0.341479
    12  C    0.312474
    13  O   -0.310559
    14  C    0.306891
    15  O   -0.243340
    16  C    0.145492
    17  C    0.208301
    18  O   -0.610404
    19  H    0.398904
    20  C    0.138194
    21  O   -0.541094
    22  H    0.331837
    23  C   -0.357380
    24  O   -0.563481
    25  H    0.360194
    26  C    0.053109
    27  O   -0.264616
    28  C    0.089205
    29  O   -0.527337
    30  H    0.334725
    31  H    0.149167
    32  H    0.132059
    33  H    0.113185
    34  H    0.118160
    35  H    0.121003
    36  H    0.144134
    37  H    0.152512
    38  H    0.347509
    39  H    0.147568
    40  H    0.143999
    41  H    0.106721
    42  H    0.117571
    43  H    0.104123
    44  H    0.117348
    45  H    0.101579
 Sum of Mulliken atomic charges =   0.00000

 Dipole moment (field-independent basis, Debye):
    X=              2.4443    Y=             -0.3702    Z=             -1.7525  Tot=              3.0303
 Quadrupole moment (field-independent basis, Debye-Ang):
   XX=           -115.7410   YY=           -140.1937   ZZ=           -140.4835
   XY=             16.5368   XZ=              1.5232   YZ=             -3.4413

  Exact polarizability: 235.901  -1.755 196.483   0.292   0.519 143.625
 Approx polarizability: 278.807  -2.039 256.810  -0.427  -0.139 238.792

 ******    6 imaginary frequencies (negative Signs) ******

                     1                      2                      3
                     A                      A                      A
 Frequencies --  -329.0967              -306.9752              -205.7460
 Red. masses --     1.6819                 1.6416                 1.1588
 Frc consts  --     0.1073                 0.0911                 0.0289
 IR Inten    --     5.7077                 4.6233                90.0021
 Raman Activ --     0.0110                 0.1727                 0.6329

                     4                      5                      6
                     A                      A                      A
 Frequencies --  -153.5751               -93.5873               -52.3126
 Red. masses --     1.2634                 7.0668                 6.4731
 Frc consts  --     0.0176                 0.0365                 0.0104
 IR Inten    --   107.5673                 1.7916                 0.0351
 Raman Activ --     0.7140                 0.0328                 0.0372

                     7                      8                      9
                     A                      A                      A
 Frequencies --    26.9859                56.8158                63.2074
 Red. masses --     6.8357                 7.4249                 6.8315
 Frc consts  --     0.0029                 0.0141                 0.0161
 IR Inten    --     0.3359                 1.7056                 0.8052
 Raman Activ --     0.0678                 0.0215                 0.0981

                    10                     11                     12
                     A                      A                      A
 Frequencies --    90.5063               110.5954               126.5874
 Red. masses --     6.2590                 5.6496                 5.8900
 Frc consts  --     0.0302                 0.0407                 0.0556
 IR Inten    --     0.9174                 6.6439                 0.7901
 Raman Activ --     0.3354                 0.0675                 0.0552

                    13                     14                     15
                     A                      A                      A
 Frequencies --   158.0443               177.0950               185.1473
 Red. masses --     6.6676                 6.5571                 6.7916
 Frc consts  --     0.0981                 0.1212                 0.1372
 IR Inten    --     4.8460                 1.7273                 0.7441
 Raman Activ --     0.4651                 0.9127                 0.2949

                    16                     17                     18
                     A                      A                      A
 Frequencies --   210.6446               230.1231               249.5558
 Red. masses --     6.7524                 5.9452                 4.0762
 Frc consts  --     0.1765                 0.1855                 0.1496
 IR Inten    --     0.7772                 3.1937                16.0278
 Raman Activ --     2.2297                 0.7622                 0.1576

                    19                     20                     21
                     A                      A                      A
 Frequencies --   284.1748               296.9435               306.5326
 Red. masses --     4.8024                 6.0015                 6.5188
 Frc consts  --     0.2285                 0.3118                 0.3609
 IR Inten    --     1.0110                 1.8021                 2.0844
 Raman Activ --     0.3363                 3.3999                 1.9918

                    22                     23                     24
                     A                      A                      A
 Frequencies --   320.8265               325.7085               329.2987
 Red. masses --     4.9560                 5.5202                 5.8797
 Frc consts  --     0.3006                 0.3450                 0.3756
 IR Inten    --     6.8749                 3.1391                 3.4476
 Raman Activ --     1.5216                 2.5663                 2.7542

                    25                     26                     27
                     A                      A                      A
 Frequencies --   346.3322               362.7859               372.8760
 Red. masses --     4.9717                 5.2629                 6.2571
 Frc consts  --     0.3514                 0.4081                 0.5126
 IR Inten    --    14.6341                14.2106                 1.5113
 Raman Activ --     0.3361                 0.2304                 1.4045

                    28                     29                     30
                     A                      A                      A
 Frequencies --   392.7956               411.9313               425.7516
 Red. masses --     4.6688                 5.6341                 5.3787
 Frc consts  --     0.4244                 0.5633                 0.5744
 IR Inten    --    25.8070                 3.2706                 1.3264
 Raman Activ --     1.9561                 5.6349                 2.4413

                    31                     32                     33
                     A                      A                      A
 Frequencies --   444.6927               484.5884               491.4502
 Red. masses --     4.7344                 5.1087                 4.3728
 Frc consts  --     0.5516                 0.7068                 0.6223
 IR Inten    --     1.8448                 6.6812                 9.1390
 Raman Activ --     3.1291                 0.3053                 3.4995

                    34                     35                     36
                     A                      A                      A
 Frequencies --   515.4241               529.4923               553.7640
 Red. masses --     3.7492                 3.7800                 5.7315
 Frc consts  --     0.5868                 0.6244                 1.0355
 IR Inten    --    10.8748                 8.9979                 2.2688
 Raman Activ --     6.3165                 2.5660                 0.7253

                    37                     38                     39
                     A                      A                      A
 Frequencies --   587.5041               588.5541               616.4654
 Red. masses --     3.3778                 3.0305                 5.5195
 Frc consts  --     0.6869                 0.6185                 1.2358
 IR Inten    --    33.6376                31.8308                33.7148
 Raman Activ --     0.6118                 0.1867                 1.1299

                    40                     41                     42
                     A                      A                      A
 Frequencies --   626.9199               669.2285               692.0877
 Red. masses --     4.4258                 5.2694                 1.0846
 Frc consts  --     1.0249                 1.3905                 0.3061
 IR Inten    --     6.8636                23.7768                64.8002
 Raman Activ --     0.4650                 0.6992                 1.5436

                    43                     44                     45
                     A                      A                      A
 Frequencies --   692.4543               694.2334               733.4383
 Red. masses --     1.0808                 1.0738                 1.0729
 Frc consts  --     0.3053                 0.3049                 0.3401
 IR Inten    --    75.6983               141.9444               101.3784
 Raman Activ --     2.2040                 1.2852                 1.7607

                    46                     47                     48
                     A                      A                      A
 Frequencies --   786.7123               798.5446               847.9976
 Red. masses --     1.0723                 1.0874                 1.8393
 Frc consts  --     0.3910                 0.4086                 0.7793
 IR Inten    --    98.4714               120.4516                 2.8160
 Raman Activ --     1.2589                 1.8745                 1.0727

                    49                     50                     51
                     A                      A                      A
 Frequencies --   859.4471               924.2833               948.1082
 Red. masses --     1.7536                 5.8180                 6.5977
 Frc consts  --     0.7632                 2.9284                 3.4943
 IR Inten    --     1.7120               149.0452                17.0546
 Raman Activ --     0.2216                 5.0379                 0.4832

                    52                     53                     54
                     A                      A                      A
 Frequencies --   967.9984               968.8032               980.9698
 Red. masses --     4.3834                 6.6151                 5.4249
 Frc consts  --     2.4200                 3.6581                 3.0757
 IR Inten    --    51.0016               232.7665               267.6136
 Raman Activ --     2.9770                 0.5692                 0.9049

                    55                     56                     57
                     A                      A                      A
 Frequencies --   990.1008              1006.6585              1018.2664
 Red. masses --     5.4571                 5.3939                 5.6713
 Frc consts  --     3.1519                 3.2204                 3.4646
 IR Inten    --    98.5113               109.7209                99.1076
 Raman Activ --     0.2630                 3.0906                 2.8052

                    58                     59                     60
                     A                      A                      A
 Frequencies --  1021.6159              1043.3413              1054.3289
 Red. masses --     6.8860                 5.0023                 5.2770
 Frc consts  --     4.2344                 3.2083                 3.4561
 IR Inten    --   354.1026               129.5437                71.6793
 Raman Activ --     2.0862                 2.9717                 3.2883

                    61                     62                     63
                     A                      A                      A
 Frequencies --  1066.2728              1070.3339              1082.5663
 Red. masses --     3.6203                 4.5322                 2.9311
 Frc consts  --     2.4251                 3.0591                 2.0239
 IR Inten    --    15.1915                 7.7357                23.0371
 Raman Activ --     3.5531                 3.3339                22.8457

                    64                     65                     66
                     A                      A                      A
 Frequencies --  1090.5793              1102.3753              1109.1040
 Red. masses --     3.3122                 2.5426                 2.7921
 Frc consts  --     2.3210                 1.8205                 2.0236
 IR Inten    --    56.8998                42.9878                50.3237
 Raman Activ --     4.6654                 6.4338                 2.6397

                    67                     68                     69
                     A                      A                      A
 Frequencies --  1115.1960              1131.4952              1142.2296
 Red. masses --     3.6021                 2.1176                 2.7972
 Frc consts  --     2.6394                 1.5973                 2.1502
 IR Inten    --    36.9721                25.2042                70.9964
 Raman Activ --    12.5449                 2.4611                 8.5748

                    70                     71                     72
                     A                      A                      A
 Frequencies --  1146.3598              1154.4978              1166.2153
 Red. masses --     2.5098                 2.4398                 1.9495
 Frc consts  --     1.9433                 1.9160                 1.5622
 IR Inten    --    19.1673                 9.7756                 6.1019
 Raman Activ --     3.0457                 2.3504                 2.5370

                    73                     74                     75
                     A                      A                      A
 Frequencies --  1172.2801              1182.1614              1199.6548
 Red. masses --     2.1980                 2.9602                 1.4898
 Frc consts  --     1.7797                 2.4374                 1.2633
 IR Inten    --     3.4498                13.2260                 5.1230
 Raman Activ --     1.1349                 2.9803                 2.7872

                    76                     77                     78
                     A                      A                      A
 Frequencies --  1216.9441              1222.5374              1226.6397
 Red. masses --     1.8402                 1.3727                 1.2257
 Frc consts  --     1.6057                 1.2088                 1.0866
 IR Inten    --    16.6198                 4.5676                28.1355
 Raman Activ --     2.3693                 0.7664                 1.5649

                    79                     80                     81
                     A                      A                      A
 Frequencies --  1248.8095              1260.0611              1266.1416
 Red. masses --     1.3867                 1.3695                 1.4115
 Frc consts  --     1.2742                 1.2811                 1.3332
 IR Inten    --     5.9032                43.6942                48.5530
 Raman Activ --     1.3016                 3.7436                 3.4006

                    82                     83                     84
                     A                      A                      A
 Frequencies --  1293.4267              1298.6587              1299.8361
 Red. masses --     1.1875                 1.1937                 1.1507
 Frc consts  --     1.1704                 1.1861                 1.1455
 IR Inten    --     4.5873                 5.3827                11.1816
 Raman Activ --     2.8547                 2.8574                 2.8909

                    85                     86                     87
                     A                      A                      A
 Frequencies --  1309.5249              1315.0750              1315.4924
 Red. masses --     1.2780                 1.2359                 1.2644
 Frc consts  --     1.2912                 1.2593                 1.2891
 IR Inten    --    16.4524                 2.3968                13.8068
 Raman Activ --     1.4279                 1.4524                 3.2246

                    88                     89                     90
                     A                      A                      A
 Frequencies --  1324.0451              1344.4111              1351.3744
 Red. masses --     1.3144                 1.2243                 1.1542
 Frc consts  --     1.3577                 1.3038                 1.2419
 IR Inten    --    27.6074                 6.0257                20.0944
 Raman Activ --     4.6352                19.5201                 3.8849

                    91                     92                     93
                     A                      A                      A
 Frequencies --  1354.0060              1358.3640              1363.8334
 Red. masses --     1.1997                 1.2014                 1.3623
 Frc consts  --     1.2958                 1.3061                 1.4929
 IR Inten    --    32.6520                23.5833                 7.8931
 Raman Activ --     6.3268                 4.7448                 1.2885

                    94                     95                     96
                     A                      A                      A
 Frequencies --  1368.5262              1372.8224              1383.6063
 Red. masses --     1.1619                 1.2393                 1.5576
 Frc consts  --     1.2821                 1.3761                 1.7569
 IR Inten    --    36.4455                20.9789                 4.5431
 Raman Activ --     1.3517                 1.7436                 4.8949

                    97                     98                     99
                     A                      A                      A
 Frequencies --  1395.0778              1402.1672              1415.9390
 Red. masses --     1.3113                 1.4959                 1.3316
 Frc consts  --     1.5036                 1.7328                 1.5730
 IR Inten    --     5.5597                35.2528                 2.9762
 Raman Activ --     5.3975                 0.7911                 3.5329

                   100                    101                    102
                     A                      A                      A
 Frequencies --  1421.3375              1462.3592              1465.7941
 Red. masses --     1.2803                 1.2798                 1.2177
 Frc consts  --     1.5239                 1.6125                 1.5415
 IR Inten    --     4.3613                56.1674                16.2913
 Raman Activ --     5.4358                 3.6459                 4.0987

                   103                    104                    105
                     A                      A                      A
 Frequencies --  1468.5704              1476.5711              1480.9866
 Red. masses --     1.1498                 1.1187                 1.3009
 Frc consts  --     1.4610                 1.4370                 1.6811
 IR Inten    --    22.4744                 7.0768                22.9047
 Raman Activ --     3.0030                 2.7985                 0.4965

                   106                    107                    108
                     A                      A                      A
 Frequencies --  1482.4631              1530.0455              3246.0891
 Red. masses --     1.3450                 1.2293                 1.0782
 Frc consts  --     1.7416                 1.6955                 6.6935
 IR Inten    --    45.3252                43.0265                 9.6795
 Raman Activ --     1.2529                 1.1223                13.5117

                   109                    110                    111
                     A                      A                      A
 Frequencies --  3252.8288              3254.1710              3257.6099
 Red. masses --     1.0622                 1.0637                 1.0796
 Frc consts  --     6.6216                 6.6364                 6.7499
 IR Inten    --   102.4540                70.8833                16.2848
 Raman Activ --    12.7861               124.9854                27.9101

                   112                    113                    114
                     A                      A                      A
 Frequencies --  3261.1034              3263.6963              3270.3122
 Red. masses --     1.0794                 1.0771                 1.0785
 Frc consts  --     6.7636                 6.7596                 6.7960
 IR Inten    --    94.7334                36.2536                65.8234
 Raman Activ --    35.1160               232.8875               186.7773

                   115                    116                    117
                     A                      A                      A
 Frequencies --  3273.7030              3279.5855              3289.8144
 Red. masses --     1.0756                 1.0816                 1.0847
 Frc consts  --     6.7915                 6.8543                 6.9167
 IR Inten    --   198.5845                96.0842                20.2258
 Raman Activ --   103.1159                78.7563                21.3705

                   118                    119                    120
                     A                      A                      A
 Frequencies --  3292.5232              3294.8432              3297.6293
 Red. masses --     1.0867                 1.0826                 1.0763
 Frc consts  --     6.9407                 6.9242                 6.8955
 IR Inten    --   102.5056               203.9601               650.9903
 Raman Activ --    32.5377                64.6359               137.9271

                   121                    122                    123
                     A                      A                      A
 Frequencies --  3304.2705              3307.2875              3308.0383
 Red. masses --     1.0968                 1.1013                 1.0945
 Frc consts  --     7.0553                 7.0973                 7.0571
 IR Inten    --    26.3573                29.4482               146.9002
 Raman Activ --    35.5349                32.6448                22.7886

                   124                    125                    126
                     A                      A                      A
 Frequencies --  3360.0155              3360.7433              3367.9266
 Red. masses --     1.0647                 1.0657                 1.0672
 Frc consts  --     7.0820                 7.0915                 7.1319
 IR Inten    --    69.2120                43.4034                79.5903
 Raman Activ --    71.2830               124.9492               134.2962

                   127                    128                    129
                     A                      A                      A
 Frequencies --  3377.4091              3888.6025              3893.1733
 Red. masses --     1.0685                 1.0675                 1.0676
 Frc consts  --     7.1809                 9.5106                 9.5336
 IR Inten    --    48.7377                70.7576                95.8669
 Raman Activ --   128.2490               120.0351                89.7101

 - Thermochemistry -
 -------------------
 Temperature   298.150 Kelvin.  Pressure   1.00000 Atm.
 Atom     1 has atomic number  8 and mass  15.99491

 Molecular mass:   342.11621 amu.
 Principal axes and moments of inertia in atomic units:
                           1         2         3
     Eigenvalues --  4420.75479********************
           X            0.99997   0.00762  -0.00017
           Y           -0.00762   0.99997   0.00035
           Z            0.00018  -0.00035   1.00000
 This molecule is an asymmetric top.
 Rotational symmetry number  1.
 Warning -- assumption of classical behavior for rotation
           may cause significant error
 Rotational temperatures (Kelvin)      0.01959     0.00687     0.00525
 Rotational constants (GHZ):           0.40824     0.14322     0.10935
    6 imaginary frequencies ignored.
 Zero-point vibrational energy     975715.4 (Joules/Mol)
                                  233.20159 (Kcal/Mol)
 Warning -- explicit consideration of  33 degrees of freedom as
           vibrations may cause significant error
 Vibrational temperatures:     38.83    81.75    90.94   130.22   159.12
          (Kelvin)            182.13   227.39   254.80   266.39   303.07
                              331.10   359.05   408.86   427.23   441.03
                              461.60   468.62   473.79   498.29   521.97
                              536.48   565.14   592.68   612.56   639.81
                              697.21   707.09   741.58   761.82   796.74
                              845.29   846.80   886.96   902.00   962.87
                              995.76   996.29   998.85  1055.25  1131.90
                             1148.93  1220.08  1236.55  1329.84  1364.11
                             1392.73  1393.89  1411.40  1424.53  1448.36
                             1465.06  1469.88  1501.13  1516.94  1534.13
                             1539.97  1557.57  1569.10  1586.07  1595.75
                             1604.52  1627.97  1643.41  1649.35  1661.06
                             1677.92  1686.65  1700.86  1726.03  1750.91
                             1758.96  1764.86  1796.76  1812.94  1821.69
                             1860.95  1868.48  1870.17  1884.11  1892.10
                             1892.70  1905.00  1934.31  1944.32  1948.11
                             1954.38  1962.25  1969.00  1975.18  1990.70
                             2007.20  2017.40  2037.22  2044.99  2104.01
                             2108.95  2112.94  2124.45  2130.81  2132.93
                             2201.39  4670.39  4680.09  4682.02  4686.97
                             4691.99  4695.73  4705.24  4710.12  4718.59
                             4733.30  4737.20  4740.54  4744.55  4754.10
                             4758.44  4759.52  4834.31  4835.35  4845.69
                             4859.33  5594.82  5601.40

 Zero-point correction=                           0.371630 (Hartree/Particle)
 Thermal correction to Energy=                    0.390765
 Thermal correction to Enthalpy=                  0.391709
 Thermal correction to Gibbs Free Energy=         0.324594
 Sum of electronic and zero-point Energies=          -1297.585222
 Sum of electronic and thermal Energies=             -1297.566087
 Sum of electronic and thermal Enthalpies=           -1297.565143
 Sum of electronic and thermal Free Energies=        -1297.632259

                     E (Thermal)             CV                S
                      KCal/Mol        Cal/Mol-Kelvin    Cal/Mol-Kelvin
 Total                  245.209             77.986            141.257
 Electronic               0.000              0.000              0.000
 Translational            0.889              2.981             43.384
 Rotational               0.889              2.981             35.174
 Vibrational            243.431             72.024             62.698
 Vibration     1          0.593              1.984              6.040
 Vibration     2          0.596              1.975              4.565
 Vibration     3          0.597              1.972              4.354
 Vibration     4          0.602              1.956              3.649
 Vibration     5          0.606              1.941              3.258
 Vibration     6          0.611              1.927              2.997
 Vibration     7          0.621              1.894              2.573
 Vibration     8          0.628              1.871              2.359
 Vibration     9          0.631              1.860              2.276
 Vibration    10          0.643              1.825              2.038
 Vibration    11          0.652              1.795              1.878
 Vibration    12          0.662              1.764              1.734
 Vibration    13          0.683              1.703              1.508
 Vibration    14          0.691              1.679              1.434
 Vibration    15          0.697              1.661              1.381
 Vibration    16          0.706              1.634              1.306
 Vibration    17          0.710              1.624              1.281
 Vibration    18          0.712              1.617              1.264
 Vibration    19          0.724              1.583              1.183
 Vibration    20          0.737              1.549              1.110
 Vibration    21          0.744              1.528              1.068
 Vibration    22          0.760              1.486              0.990
 Vibration    23          0.776              1.444              0.920
 Vibration    24          0.788              1.414              0.873
 Vibration    25          0.804              1.373              0.812
 Vibration    26          0.841              1.284              0.698
 Vibration    27          0.847              1.269              0.680
 Vibration    28          0.870              1.216              0.621
 Vibration    29          0.884              1.185              0.588
 Vibration    30          0.909              1.131              0.536
 Vibration    31          0.945              1.058              0.472
 Vibration    32          0.946              1.056              0.470
 Vibration    33          0.976              0.997              0.422

 Normal termination of Gaussian 09 at Thu Mar 31 00:42:23 2016.
