 Gaussian 09, Revision B.01,
 Gaussian 09:  EM64L-G09RevB.01 12-Aug-2010

 -------------------------------------------------
 # freq=raman b3lyp/6-31+g(2d,p) geom=connectivity
 -------------------------------------------------

 -----------------
 290 8723/8723.com
 -----------------
 Symbolic Z-matrix:
 Charge =  0 Multiplicity = 1

                         Standard orientation:
 ---------------------------------------------------------------------
 Center     Atomic      Atomic             Coordinates (Angstroms)
 Number     Number       Type             X           Y           Z
 ---------------------------------------------------------------------
      1          8           0       -4.952064   -0.433529    0.419563
      2          6           0       -3.683565   -0.120708   -0.173677
      3          6           0       -3.251877    1.297978    0.160664
      4          8           0       -4.047109    2.386704   -0.328073
      5          1           0       -4.962557    2.233181    0.045213
      6          6           0       -1.775431    1.591164   -0.048580
      7          8           0       -1.344931    2.780582    0.627253
      8          1           0       -0.431055    3.030973    0.308336
      9          6           0       -3.058733   -2.510862   -0.202725
     10          8           0       -4.371225   -3.087407   -0.141205
     11          1           0       -4.337681   -4.086472   -0.125403
     12          6           0       -2.674132   -1.139643    0.330365
     13          8           0       -1.362587   -0.826925   -0.159001
     14          6           0       -0.867151    0.430464    0.324407
     15          8           0        0.277560    0.532022   -0.535099
     16          6           0        1.543415    0.198447    0.051352
     17          6           0        1.933696   -1.236198   -0.266181
     18          8           0        0.881500   -2.127824    0.130421
     19          1           0        0.032640   -1.617062   -0.003877
     20          6           0        3.293866   -1.590660    0.311876
     21          8           0        3.706273   -2.876980   -0.173657
     22          1           0        4.679082   -3.029937   -0.000460
     23          6           0        2.455022    2.627571    0.043672
     24          8           0        1.306989    3.347888   -0.428283
     25          1           0        1.475243    4.290711   -0.140532
     26          6           0        2.605165    1.183874   -0.407695
     27          8           0        3.899664    0.861266    0.121641
     28          6           0        4.251190   -0.504168   -0.148830
     29          8           0        5.509266   -0.668025    0.521409
     30          1           0        6.202571   -0.804876   -0.128360
     31          1           0       -5.585561   -0.642007   -0.270957
     32          1           0       -2.409443   -3.207585    0.285025
     33          1           0       -2.787451   -2.509545   -1.237763
     34          1           0       -2.671089   -1.151952    1.400290
     35          1           0       -3.767075   -0.214144   -1.236314
     36          1           0       -3.376235    1.350704    1.222104
     37          1           0       -1.641600    1.764397   -1.095948
     38          1           0       -0.605801    0.409235    1.361781
     39          1           0        3.327907    3.161071   -0.269936
     40          1           0        2.429258    2.635138    1.113335
     41          1           0        2.654186    1.161114   -1.476329
     42          1           0        1.448595    0.286742    1.113479
     43          1           0        2.019579   -1.309020   -1.330239
     44          1           0        3.243610   -1.603041    1.380624
     45          1           0        4.407398   -0.613362   -1.201720
 ---------------------------------------------------------------------

 SCF Done:  E(RB3LYP) =  -1297.98989724     A.U. after   13 cycles

 The electronic state is 1-A.
 Alpha  occ. eigenvalues --  -19.19262 -19.18641 -19.18052 -19.17912 -19.17721
 Alpha  occ. eigenvalues --  -19.16383 -19.16299 -19.16258 -19.15679 -19.14353
 Alpha  occ. eigenvalues --  -19.12760 -10.30951 -10.30360 -10.25963 -10.25906
 Alpha  occ. eigenvalues --  -10.25434 -10.25069 -10.25059 -10.24822 -10.24478
 Alpha  occ. eigenvalues --  -10.24139 -10.24117 -10.23742  -1.11088  -1.09114
 Alpha  occ. eigenvalues --   -1.05384  -1.04953  -1.03963  -1.03408  -1.02749
 Alpha  occ. eigenvalues --   -1.02427  -1.02273  -1.00782  -0.99885  -0.82236
 Alpha  occ. eigenvalues --   -0.80364  -0.79450  -0.78294  -0.71935  -0.69812
 Alpha  occ. eigenvalues --   -0.67299  -0.65180  -0.63345  -0.63014  -0.61265
 Alpha  occ. eigenvalues --   -0.59865  -0.56229  -0.56148  -0.54988  -0.54701
 Alpha  occ. eigenvalues --   -0.54092  -0.53548  -0.52739  -0.51945  -0.51096
 Alpha  occ. eigenvalues --   -0.50731  -0.50418  -0.49687  -0.48645  -0.46647
 Alpha  occ. eigenvalues --   -0.45772  -0.45057  -0.44251  -0.43624  -0.43002
 Alpha  occ. eigenvalues --   -0.42224  -0.41534  -0.41300  -0.40491  -0.39751
 Alpha  occ. eigenvalues --   -0.39170  -0.38027  -0.37268  -0.36216  -0.35803
 Alpha  occ. eigenvalues --   -0.35255  -0.35031  -0.34593  -0.34086  -0.33669
 Alpha  occ. eigenvalues --   -0.32762  -0.31418  -0.31046  -0.30178  -0.29869
 Alpha  occ. eigenvalues --   -0.29238  -0.28701  -0.28323  -0.27954  -0.26959
 Alpha  occ. eigenvalues --   -0.26135
 Alpha virt. eigenvalues --   -0.02032  -0.01895  -0.01696   0.00050   0.00465
 Alpha virt. eigenvalues --    0.01112   0.01988   0.02360   0.03085   0.03488
 Alpha virt. eigenvalues --    0.03665   0.04367   0.04690   0.05298   0.05985

 Mulliken atomic charges:
              1
     1  O   -0.514753
     2  C    0.118439
     3  C    0.139865
     4  O   -0.546223
     5  H    0.337606
     6  C   -0.081854
     7  O   -0.564321
     8  H    0.397298
     9  C   -0.310055
    10  O   -0.564589
    11  H    0.348532
    12  C    0.181202
    13  O   -0.230025
    14  C    0.137855
    15  O   -0.208698
    16  C    0.143887
    17  C    0.260088
    18  O   -0.614868
    19  H    0.437729
    20  C    0.032668
    21  O   -0.534919
    22  H    0.333822
    23  C   -0.225388
    24  O   -0.556233
    25  H    0.351547
    26  C   -0.146068
    27  O   -0.227794
    28  C    0.123268
    29  O   -0.536085
    30  H    0.333121
    31  H    0.341893
    32  H    0.145132
    33  H    0.147188
    34  H    0.120021
    35  H    0.122483
    36  H    0.119126
    37  H    0.139079
    38  H    0.142454
    39  H    0.149411
    40  H    0.152989
    41  H    0.122708
    42  H    0.107146
    43  H    0.117529
    44  H    0.132665
    45  H    0.125124
 Sum of Mulliken atomic charges =   0.00000

 Dipole moment (field-independent basis, Debye):
    X=              2.0539    Y=              0.2009    Z=             -1.1101  Tot=              2.3433
 Quadrupole moment (field-independent basis, Debye-Ang):
   XX=           -118.2857   YY=           -135.4849   ZZ=           -139.3191
   XY=             14.1723   XZ=             -4.2587   YZ=              2.2451

  Exact polarizability: 233.572  -1.005 198.927   0.004   0.996 143.088
 Approx polarizability: 274.212   0.640 258.980  -0.356   1.461 238.787

 ******    6 imaginary frequencies (negative Signs) ******

                     1                      2                      3
                     A                      A                      A
 Frequencies --  -325.1183              -266.3353              -241.3733
 Red. masses --     1.6562                 1.1378                 1.8336
 Frc consts  --     0.1031                 0.0476                 0.0629
 IR Inten    --     9.6506               105.6830                 3.1041
 Raman Activ --     0.0561                 0.6250                 0.0838

                     4                      5                      6
                     A                      A                      A
 Frequencies --  -175.5541               -62.5582               -56.1832
 Red. masses --     1.2233                 6.3403                 6.4660
 Frc consts  --     0.0222                 0.0146                 0.0120
 IR Inten    --    97.4571                 0.2003                 1.0056
 Raman Activ --     0.8979                 0.0289                 0.0153

                     7                      8                      9
                     A                      A                      A
 Frequencies --    38.1344                55.7940                73.5875
 Red. masses --     6.5224                 6.6032                 6.4715
 Frc consts  --     0.0056                 0.0121                 0.0206
 IR Inten    --     1.2733                 0.8634                 2.6406
 Raman Activ --     0.0206                 0.0342                 0.1094

                    10                     11                     12
                     A                      A                      A
 Frequencies --    79.0004                89.8611               108.1462
 Red. masses --     6.8197                 6.6767                 5.7593
 Frc consts  --     0.0251                 0.0318                 0.0397
 IR Inten    --     1.0472                 1.5311                 2.4624
 Raman Activ --     0.1606                 0.2262                 0.0925

                    13                     14                     15
                     A                      A                      A
 Frequencies --   144.3963               173.5288               192.3085
 Red. masses --     6.0981                 6.0949                 7.3065
 Frc consts  --     0.0749                 0.1081                 0.1592
 IR Inten    --     3.0852                 2.0190                 0.1166
 Raman Activ --     0.5370                 0.0984                 1.3935

                    16                     17                     18
                     A                      A                      A
 Frequencies --   200.7886               237.1772               258.1380
 Red. masses --     5.9844                 6.2778                 5.6497
 Frc consts  --     0.1422                 0.2081                 0.2218
 IR Inten    --     0.2358                 0.8411                11.5305
 Raman Activ --     1.0145                 0.7408                 0.6656

                    19                     20                     21
                     A                      A                      A
 Frequencies --   268.7774               288.2910               301.3680
 Red. masses --     4.9356                 5.2284                 5.3590
 Frc consts  --     0.2101                 0.2560                 0.2868
 IR Inten    --     1.0162                 1.7382                 4.8545
 Raman Activ --     0.5013                 0.0898                 0.2814

                    22                     23                     24
                     A                      A                      A
 Frequencies --   316.3731               319.7441               333.9091
 Red. masses --     6.3159                 5.1695                 5.5161
 Frc consts  --     0.3725                 0.3114                 0.3624
 IR Inten    --     5.2114                 8.1626                 8.5432
 Raman Activ --     2.5612                 1.7895                 4.7201

                    25                     26                     27
                     A                      A                      A
 Frequencies --   339.1149               364.5831               385.5524
 Red. masses --     4.7306                 5.3555                 6.4815
 Frc consts  --     0.3205                 0.4194                 0.5677
 IR Inten    --     2.0052                 4.2588                 0.5835
 Raman Activ --     1.7121                 0.1548                 1.6988

                    28                     29                     30
                     A                      A                      A
 Frequencies --   410.4022               414.2773               428.4235
 Red. masses --     4.2117                 6.1061                 4.7525
 Frc consts  --     0.4180                 0.6174                 0.5139
 IR Inten    --    17.1394                 7.6892                 3.4841
 Raman Activ --     3.4651                 4.3726                 1.5948

                    31                     32                     33
                     A                      A                      A
 Frequencies --   448.6991               465.1492               490.4130
 Red. masses --     6.5001                 4.6310                 3.7719
 Frc consts  --     0.7711                 0.5904                 0.5345
 IR Inten    --     6.6552                 7.7701                 7.7390
 Raman Activ --     2.1822                 6.3017                 0.1880

                    34                     35                     36
                     A                      A                      A
 Frequencies --   506.0545               528.3707               564.0497
 Red. masses --     3.5096                 3.4070                 4.1921
 Frc consts  --     0.5295                 0.5604                 0.7858
 IR Inten    --     4.7442                14.5772                 8.9724
 Raman Activ --     3.5356                 2.3576                 1.6287

                    37                     38                     39
                     A                      A                      A
 Frequencies --   580.7990               599.1205               622.2232
 Red. masses --     2.8033                 5.5483                 5.3848
 Frc consts  --     0.5572                 1.1734                 1.2283
 IR Inten    --    36.4224                 4.8378                 9.3564
 Raman Activ --     0.3973                 0.8036                 0.5602

                    40                     41                     42
                     A                      A                      A
 Frequencies --   641.9738               652.7571               703.3668
 Red. masses --     1.3317                 2.5640                 5.8552
 Frc consts  --     0.3234                 0.6437                 1.7067
 IR Inten    --    59.6566                83.7817                11.4849
 Raman Activ --     1.6531                 1.8026                 1.9607

                    43                     44                     45
                     A                      A                      A
 Frequencies --   723.4559               750.5862               770.4026
 Red. masses --     1.0595                 1.0820                 1.0995
 Frc consts  --     0.3267                 0.3592                 0.3845
 IR Inten    --    94.1024                92.5906               109.4967
 Raman Activ --     2.0033                 1.7427                 1.4063

                    46                     47                     48
                     A                      A                      A
 Frequencies --   831.9240               836.5627               844.7419
 Red. masses --     1.0984                 1.0952                 1.7032
 Frc consts  --     0.4479                 0.4516                 0.7161
 IR Inten    --    51.4358                59.7804                12.4326
 Raman Activ --     0.3612                 0.7671                 1.0240

                    49                     50                     51
                     A                      A                      A
 Frequencies --   871.0980               914.3566               959.3019
 Red. masses --     1.6344                 6.1270                 6.6644
 Frc consts  --     0.7307                 3.0181                 3.6135
 IR Inten    --    17.2117                82.6065               145.9858
 Raman Activ --     0.8324                 1.9366                 1.2194

                    52                     53                     54
                     A                      A                      A
 Frequencies --   970.5474               976.1567               990.9535
 Red. masses --     5.1827                 6.8967                 5.3680
 Frc consts  --     2.8763                 3.8720                 3.1057
 IR Inten    --    26.5151                36.5620               234.8664
 Raman Activ --     1.7644                 2.2709                 1.4428

                    55                     56                     57
                     A                      A                      A
 Frequencies --  1003.2050              1010.9624              1023.7101
 Red. masses --     5.4416                 6.4102                 5.9896
 Frc consts  --     3.2267                 3.8601                 3.6983
 IR Inten    --   241.9994                37.3182               110.8065
 Raman Activ --     2.2962                 1.7843                 2.4499

                    58                     59                     60
                     A                      A                      A
 Frequencies --  1044.0964              1051.5716              1067.9356
 Red. masses --     5.1236                 3.8564                 7.1720
 Frc consts  --     3.2908                 2.5125                 4.8193
 IR Inten    --   285.5287                75.2214               194.6586
 Raman Activ --     2.9850                 4.6739                 0.9257

                    61                     62                     63
                     A                      A                      A
 Frequencies --  1068.6335              1074.8339              1079.4768
 Red. masses --     5.8396                 3.0309                 5.6438
 Frc consts  --     3.9291                 2.0630                 3.8748
 IR Inten    --    37.4190                20.2746                32.2418
 Raman Activ --     1.7103                26.2983                 0.7831

                    64                     65                     66
                     A                      A                      A
 Frequencies --  1096.1700              1102.8929              1110.7360
 Red. masses --     3.9353                 2.2135                 2.5437
 Frc consts  --     2.7860                 1.5863                 1.8490
 IR Inten    --    15.7124                73.6926                14.0782
 Raman Activ --    17.8859                 8.8334                 3.5042

                    67                     68                     69
                     A                      A                      A
 Frequencies --  1124.0512              1134.2509              1136.2411
 Red. masses --     3.1214                 3.8488                 2.5528
 Frc consts  --     2.3236                 2.9174                 1.9418
 IR Inten    --     7.0916                17.3061                 5.4373
 Raman Activ --     3.7763                 4.0641                 1.6039

                    70                     71                     72
                     A                      A                      A
 Frequencies --  1150.1327              1155.3127              1161.3134
 Red. masses --     2.3704                 2.0629                 1.8459
 Frc consts  --     1.8475                 1.6223                 1.4667
 IR Inten    --    48.0228                 4.6319                44.4481
 Raman Activ --     3.9146                 3.8045                 4.6964

                    73                     74                     75
                     A                      A                      A
 Frequencies --  1164.4425              1174.0429              1191.8228
 Red. masses --     1.7584                 1.8153                 1.5937
 Frc consts  --     1.4047                 1.4742                 1.3338
 IR Inten    --    16.2063                 0.2499                18.3855
 Raman Activ --     2.5864                 2.3351                 1.5764

                    76                     77                     78
                     A                      A                      A
 Frequencies --  1205.8118              1212.4853              1222.4394
 Red. masses --     1.2815                 1.3862                 1.1718
 Frc consts  --     1.0978                 1.2007                 1.0317
 IR Inten    --    18.6154                 4.9905                 3.6830
 Raman Activ --     1.8883                 1.6468                 2.9341

                    79                     80                     81
                     A                      A                      A
 Frequencies --  1243.4273              1245.2623              1256.1803
 Red. masses --     1.3173                 1.2314                 1.2921
 Frc consts  --     1.2000                 1.1251                 1.2013
 IR Inten    --     5.3327                 6.9232                21.3057
 Raman Activ --     1.7396                 0.9094                 0.2340

                    82                     83                     84
                     A                      A                      A
 Frequencies --  1274.5255              1277.9638              1289.7397
 Red. masses --     1.1895                 1.3478                 1.2034
 Frc consts  --     1.1385                 1.2969                 1.1794
 IR Inten    --    11.0739                35.6066                11.9494
 Raman Activ --     0.8013                 5.1395                 1.7576

                    85                     86                     87
                     A                      A                      A
 Frequencies --  1297.7478              1303.1924              1308.9899
 Red. masses --     1.3080                 1.3316                 1.2869
 Frc consts  --     1.2979                 1.3325                 1.2992
 IR Inten    --    13.2807                 7.4506                31.5225
 Raman Activ --     1.4048                 1.2426                 1.3805

                    88                     89                     90
                     A                      A                      A
 Frequencies --  1318.2946              1326.9447              1334.7052
 Red. masses --     1.2284                 1.3285                 1.2053
 Frc consts  --     1.2578                 1.3782                 1.2651
 IR Inten    --     0.8495                30.7284                 3.0356
 Raman Activ --    12.8795                 3.0787                10.9719

                    91                     92                     93
                     A                      A                      A
 Frequencies --  1341.5570              1346.2572              1352.7421
 Red. masses --     1.2513                 1.2147                 1.1225
 Frc consts  --     1.3269                 1.2971                 1.2102
 IR Inten    --    27.4115                36.5992                16.3131
 Raman Activ --     3.7008                 0.2510                 4.6399

                    94                     95                     96
                     A                      A                      A
 Frequencies --  1362.2767              1364.1299              1376.7091
 Red. masses --     1.2938                 1.5241                 1.4398
 Frc consts  --     1.4147                 1.6710                 1.6078
 IR Inten    --    21.7225                 1.5809                36.0307
 Raman Activ --     1.7279                11.2181                 5.0398

                    97                     98                     99
                     A                      A                      A
 Frequencies --  1384.3362              1391.4486              1395.3535
 Red. masses --     1.3951                 1.4804                 1.5192
 Frc consts  --     1.5753                 1.6887                 1.7427
 IR Inten    --     2.0432                11.7515                 2.1446
 Raman Activ --     4.2629                 2.5466                 6.9797

                   100                    101                    102
                     A                      A                      A
 Frequencies --  1411.4511              1451.7081              1457.2827
 Red. masses --     1.5842                 1.2715                 1.2818
 Frc consts  --     1.8595                 1.5788                 1.6038
 IR Inten    --    40.0044                40.3351                 9.6083
 Raman Activ --     1.4998                 0.7400                 5.1732

                   103                    104                    105
                     A                      A                      A
 Frequencies --  1471.3816              1473.8195              1476.5330
 Red. masses --     1.1378                 1.1091                 1.3694
 Frc consts  --     1.4513                 1.4195                 1.7590
 IR Inten    --     0.8236                14.0175                13.6006
 Raman Activ --     2.1907                 4.4622                 1.0782

                   106                    107                    108
                     A                      A                      A
 Frequencies --  1503.3097              1540.7067              3233.3276
 Red. masses --     1.3146                 1.2092                 1.0683
 Frc consts  --     1.7504                 1.6911                 6.5802
 IR Inten    --    33.9976                69.4469               959.3211
 Raman Activ --     1.2024                 2.3382               190.8111

                   109                    110                    111
                     A                      A                      A
 Frequencies --  3255.0850              3256.0579              3260.4930
 Red. masses --     1.0742                 1.0641                 1.0579
 Frc consts  --     6.7058                 6.6467                 6.6259
 IR Inten    --    28.0787                24.3185                95.6740
 Raman Activ --    24.2633               151.9935                87.3383

                   112                    113                    114
                     A                      A                      A
 Frequencies --  3267.1913              3272.1765              3276.5318
 Red. masses --     1.0812                 1.0823                 1.0841
 Frc consts  --     6.7997                 6.8277                 6.8573
 IR Inten    --    38.4796                 2.9457                12.4623
 Raman Activ --    42.7165                14.1359               153.4071

                   115                    116                    117
                     A                      A                      A
 Frequencies --  3277.9852              3284.1740              3285.9964
 Red. masses --     1.0838                 1.0845                 1.0854
 Frc consts  --     6.8612                 6.8919                 6.9049
 IR Inten    --     4.2548                18.3768                21.7706
 Raman Activ --    38.0163               131.2837                31.3725

                   118                    119                    120
                     A                      A                      A
 Frequencies --  3291.4014              3296.5132              3300.6276
 Red. masses --     1.0873                 1.0706                 1.0866
 Frc consts  --     6.9402                 6.8549                 6.9746
 IR Inten    --    42.6106               635.2379                41.1938
 Raman Activ --    55.1388               147.7233                 4.4979

                   121                    122                    123
                     A                      A                      A
 Frequencies --  3305.5255              3309.5884              3318.2153
 Red. masses --     1.0899                 1.0976                 1.1070
 Frc consts  --     7.0162                 7.0833                 7.1816
 IR Inten    --    20.6812                93.4108                46.1588
 Raman Activ --    38.6449                26.4943                47.5258

                   124                    125                    126
                     A                      A                      A
 Frequencies --  3365.6824              3370.6719              3370.8807
 Red. masses --     1.0657                 1.0659                 1.0661
 Frc consts  --     7.1128                 7.1353                 7.1371
 IR Inten    --    33.9665                66.8240                19.9077
 Raman Activ --   115.3185                79.1057               160.2553

                   127                    128                    129
                     A                      A                      A
 Frequencies --  3371.0837              3887.9793              3891.6782
 Red. masses --     1.0686                 1.0675                 1.0675
 Frc consts  --     7.1552                 9.5079                 9.5254
 IR Inten    --    54.2210                72.5324                76.9596
 Raman Activ --   210.7859               109.1600                88.8594

 - Thermochemistry -
 -------------------
 Temperature   298.150 Kelvin.  Pressure   1.00000 Atm.
 Atom     1 has atomic number  8 and mass  15.99491

 Molecular mass:   342.11621 amu.
 Principal axes and moments of inertia in atomic units:
                           1         2         3
     Eigenvalues --  4450.48099********************
           X            0.99997   0.00767  -0.00082
           Y           -0.00767   0.99997   0.00285
           Z            0.00084  -0.00285   1.00000
 This molecule is an asymmetric top.
 Rotational symmetry number  1.
 Warning -- assumption of classical behavior for rotation
           may cause significant error
 Rotational temperatures (Kelvin)      0.01946     0.00710     0.00532
 Rotational constants (GHZ):           0.40552     0.14785     0.11084
    6 imaginary frequencies ignored.
 Zero-point vibrational energy     975902.5 (Joules/Mol)
                                  233.24629 (Kcal/Mol)
 Warning -- explicit consideration of  32 degrees of freedom as
           vibrations may cause significant error
 Vibrational temperatures:     54.87    80.28   105.88   113.66   129.29
          (Kelvin)            155.60   207.75   249.67   276.69   288.89
                              341.24   371.40   386.71   414.79   433.60
                              455.19   460.04   480.42   487.91   524.55
                              554.72   590.48   596.05   616.41   645.58
                              669.25   705.59   728.10   760.21   811.54
                              835.64   862.00   895.24   923.66   939.17
                             1011.99  1040.89  1079.92  1108.44  1196.95
                             1203.63  1215.39  1253.31  1315.55  1380.22
                             1396.40  1404.47  1425.76  1443.39  1454.55
                             1472.89  1502.22  1512.98  1536.52  1537.52
                             1546.44  1553.12  1577.14  1586.81  1598.10
                             1617.26  1631.93  1634.80  1654.78  1662.24
                             1670.87  1675.37  1689.18  1714.76  1734.89
                             1744.49  1758.82  1789.01  1791.65  1807.36
                             1833.76  1838.70  1855.65  1867.17  1875.00
                             1883.34  1896.73  1909.18  1920.34  1930.20
                             1936.96  1946.29  1960.01  1962.68  1980.77
                             1991.75  2001.98  2007.60  2030.76  2088.68
                             2096.70  2116.99  2120.49  2124.40  2162.92
                             2216.73  4652.03  4683.34  4684.74  4691.12
                             4700.75  4707.93  4714.19  4716.28  4725.19
                             4727.81  4735.59  4742.94  4748.86  4755.91
                             4761.75  4774.17  4842.46  4849.64  4849.94
                             4850.23  5593.93  5599.25

 Zero-point correction=                           0.371702 (Hartree/Particle)
 Thermal correction to Energy=                    0.390851
 Thermal correction to Enthalpy=                  0.391795
 Thermal correction to Gibbs Free Energy=         0.324672
 Sum of electronic and zero-point Energies=          -1297.618196
 Sum of electronic and thermal Energies=             -1297.599046
 Sum of electronic and thermal Enthalpies=           -1297.598102
 Sum of electronic and thermal Free Energies=        -1297.665225

                     E (Thermal)             CV                S
                      KCal/Mol        Cal/Mol-Kelvin    Cal/Mol-Kelvin
 Total                  245.263             77.678            141.272
 Electronic               0.000              0.000              0.000
 Translational            0.889              2.981             43.384
 Rotational               0.889              2.981             35.135
 Vibrational            243.485             71.717             62.753
 Vibration     1          0.594              1.982              5.354
 Vibration     2          0.596              1.975              4.601
 Vibration     3          0.599              1.966              4.055
 Vibration     4          0.600              1.963              3.916
 Vibration     5          0.602              1.956              3.663
 Vibration     6          0.606              1.943              3.302
 Vibration     7          0.616              1.909              2.745
 Vibration     8          0.627              1.875              2.397
 Vibration     9          0.634              1.851              2.205
 Vibration    10          0.638              1.839              2.126
 Vibration    11          0.656              1.784              1.824
 Vibration    12          0.667              1.749              1.674
 Vibration    13          0.673              1.731              1.604
 Vibration    14          0.685              1.695              1.484
 Vibration    15          0.693              1.671              1.409
 Vibration    16          0.703              1.642              1.329
 Vibration    17          0.706              1.636              1.311
 Vibration    18          0.715              1.608              1.241
 Vibration    19          0.719              1.597              1.216
 Vibration    20          0.738              1.545              1.102
 Vibration    21          0.754              1.501              1.017
 Vibration    22          0.775              1.448              0.925
 Vibration    23          0.778              1.439              0.912
 Vibration    24          0.790              1.408              0.864
 Vibration    25          0.808              1.364              0.800
 Vibration    26          0.823              1.327              0.751
 Vibration    27          0.846              1.271              0.683
 Vibration    28          0.861              1.237              0.643
 Vibration    29          0.883              1.187              0.591
 Vibration    30          0.920              1.109              0.516
 Vibration    31          0.937              1.073              0.484
 Vibration    32          0.957              1.034              0.451

 Normal termination of Gaussian 09 at Tue Mar 22 10:47:48 2016.
