 Gaussian 09, Revision B.01,
 Gaussian 09:  EM64L-G09RevB.01 12-Aug-2010

 ------------------------------------------------
 # freq=raman b3lyp/6-31+g(d,p) geom=connectivity
 ------------------------------------------------

 ------------
 310 5000.com
 ------------
 Symbolic Z-matrix:
 Charge =  0 Multiplicity = 1

                         Standard orientation:
 ---------------------------------------------------------------------
 Center     Atomic      Atomic             Coordinates (Angstroms)
 Number     Number       Type             X           Y           Z
 ---------------------------------------------------------------------
      1          8           0        5.029502   -0.482819   -0.275921
      2          6           0        3.718834   -0.133863    0.191782
      3          6           0        3.319669    1.229972   -0.348689
      4          8           0        4.329813    2.205475   -0.049562
      5          1           0        5.145085    1.898615   -0.539871
      6          6           0        1.927407    1.605129    0.130929
      7          8           0        1.344910    2.834156   -0.327694
      8          1           0        0.437640    2.914432    0.086251
      9          6           0        3.020586   -2.571750    0.176761
     10          8           0        4.220815   -3.263926   -0.193222
     11          1           0        3.996481   -4.237459   -0.235459
     12          6           0        2.684449   -1.153914   -0.253867
     13          8           0        1.425530   -0.755940    0.307773
     14          6           0        0.898145    0.512396   -0.107553
     15          8           0       -0.256049    0.542753    0.743947
     16          6           0       -1.540908    0.234343    0.185621
     17          6           0       -2.057625   -1.175665    0.423055
     18          8           0       -1.068818   -2.061017   -0.122044
     19          1           0       -0.173228   -1.637028    0.012159
     20          6           0       -3.394513   -1.601598   -0.162476
     21          8           0       -4.012860   -2.799897    0.329828
     22          1           0       -4.852942   -2.897052   -0.203723
     23          6           0       -2.377524    2.613238   -0.160509
     24          8           0       -1.219768    3.292449    0.349896
     25          1           0       -1.158271    4.288850    0.300677
     26          6           0       -2.656321    1.239694    0.426619
     27          8           0       -3.820661    0.849129   -0.313997
     28          6           0       -4.338000   -0.433194    0.070219
     29          8           0       -5.420394   -0.529215   -0.866954
     30          1           0        5.587336   -0.706567    0.472650
     31          1           0       -6.242686   -0.672050   -0.392576
     32          1           0       -4.701112   -0.418810    1.076619
     33          1           0       -3.265214   -1.714433   -1.218625
     34          1           0       -2.098583   -1.334887    1.480349
     35          1           0       -1.375349    0.277369   -0.870617
     36          1           0       -2.881483    1.313760    1.470034
     37          1           0       -3.232026    3.231494    0.019731
     38          1           0       -2.259878    2.504889   -1.218488
     39          1           0        0.608045    0.480360   -1.136978
     40          1           0        2.009854    1.703727    1.193181
     41          1           0        3.271759    1.145150   -1.414245
     42          1           0        3.730328   -0.094604    1.261000
     43          1           0        2.610581   -1.126433   -1.320960
     44          1           0        2.208694   -3.184518   -0.155272
     45          1           0        2.993616   -2.572705    1.246421
 ---------------------------------------------------------------------

 SCF Done:  E(RB3LYP) =  -1297.92703242     A.U. after   13 cycles

 The electronic state is 1-A.
 Alpha  occ. eigenvalues --  -19.19450 -19.19281 -19.19257 -19.19111 -19.18621
 Alpha  occ. eigenvalues --  -19.17907 -19.17358 -19.17191 -19.16200 -19.14461
 Alpha  occ. eigenvalues --  -19.14378 -10.31744 -10.30983 -10.26647 -10.26458
 Alpha  occ. eigenvalues --  -10.25966 -10.25840 -10.25492 -10.25198 -10.25107
 Alpha  occ. eigenvalues --  -10.25068 -10.25021 -10.24469  -1.10595  -1.09640
 Alpha  occ. eigenvalues --   -1.05291  -1.04930  -1.04012  -1.03860  -1.02912
 Alpha  occ. eigenvalues --   -1.02695  -1.01981  -1.01017  -1.00451  -0.82280
 Alpha  occ. eigenvalues --   -0.80540  -0.79835  -0.78738  -0.72441  -0.70239
 Alpha  occ. eigenvalues --   -0.67536  -0.65370  -0.63840  -0.62765  -0.61541
 Alpha  occ. eigenvalues --   -0.60370  -0.56836  -0.55969  -0.55352  -0.55138
 Alpha  occ. eigenvalues --   -0.53932  -0.53691  -0.52962  -0.52339  -0.51603
 Alpha  occ. eigenvalues --   -0.50995  -0.50370  -0.49492  -0.48724  -0.46611
 Alpha  occ. eigenvalues --   -0.46467  -0.45421  -0.44468  -0.43918  -0.43304
 Alpha  occ. eigenvalues --   -0.42789  -0.42219  -0.41866  -0.40170  -0.39453
 Alpha  occ. eigenvalues --   -0.38899  -0.38240  -0.37131  -0.35891  -0.35659
 Alpha  occ. eigenvalues --   -0.35472  -0.35076  -0.34132  -0.33915  -0.33411
 Alpha  occ. eigenvalues --   -0.32677  -0.31519  -0.31347  -0.30785  -0.30191
 Alpha  occ. eigenvalues --   -0.29329  -0.28947  -0.28708  -0.27496  -0.26880
 Alpha  occ. eigenvalues --   -0.26341
 Alpha virt. eigenvalues --   -0.01993  -0.01796  -0.01717  -0.00121   0.00216
 Alpha virt. eigenvalues --    0.00915   0.01994   0.02085   0.02749   0.03174
 Alpha virt. eigenvalues --    0.03649   0.04054   0.04398   0.05273   0.05574

 Mulliken atomic charges:
              1
     1  O   -0.547758
     2  C   -0.076078
     3  C   -0.037522
     4  O   -0.482712
     5  H    0.363060
     6  C   -0.109083
     7  O   -0.531719
     8  H    0.435515
     9  C   -0.215348
    10  O   -0.533384
    11  H    0.360782
    12  C    0.362246
    13  O   -0.418371
    14  C    0.192608
    15  O   -0.304623
    16  C   -0.018491
    17  C    0.198624
    18  O   -0.542701
    19  H    0.414027
    20  C    0.049424
    21  O   -0.494424
    22  H    0.349963
    23  C    0.054660
    24  O   -0.668586
    25  H    0.408479
    26  C   -0.194444
    27  O   -0.289028
    28  C    0.169053
    29  O   -0.562495
    30  H    0.372569
    31  H    0.358826
    32  H    0.134941
    33  H    0.161205
    34  H    0.142252
    35  H    0.120370
    36  H    0.141977
    37  H    0.140149
    38  H    0.152017
    39  H    0.134114
    40  H    0.143014
    41  H    0.128503
    42  H    0.137476
    43  H    0.129016
    44  H    0.134666
    45  H    0.137231
 Sum of Mulliken atomic charges =   0.00000

 Dipole moment (field-independent basis, Debye):
    X=             -3.1852    Y=              0.0312    Z=              1.3851  Tot=              3.4735
 Quadrupole moment (field-independent basis, Debye-Ang):
   XX=           -120.4098   YY=           -136.6180   ZZ=           -139.9557
   XY=            -14.6647   XZ=             -1.6878   YZ=              1.7024

  Exact polarizability: 230.703   2.526 193.024   0.162   0.059 141.534
 Approx polarizability: 267.880   2.739 247.310   0.016   1.038 231.597

 ******    7 imaginary frequencies (negative Signs) ******

                     1                      2                      3
                     A                      A                      A
 Frequencies --  -333.2085              -298.4114              -295.0095
 Red. masses --     1.4662                 1.2114                 1.1793
 Frc consts  --     0.0959                 0.0636                 0.0605
 IR Inten    --    39.9781                65.2015               133.6907
 Raman Activ --     0.3007                 0.7129                 1.0880

                     4                      5                      6
                     A                      A                      A
 Frequencies --  -232.1660               -85.1922               -61.8629
 Red. masses --     1.9389                 6.3544                 6.8719
 Frc consts  --     0.0616                 0.0272                 0.0155
 IR Inten    --     9.2499                 1.7164                 0.4179
 Raman Activ --     0.0389                 0.0148                 0.0508

                     7                      8                      9
                     A                      A                      A
 Frequencies --   -29.4894                35.2959                52.9622
 Red. masses --     6.5804                 6.1563                 6.4641
 Frc consts  --     0.0034                 0.0045                 0.0107
 IR Inten    --     1.5796                 0.6836                 1.6855
 Raman Activ --     0.0200                 0.0272                 0.1144

                    10                     11                     12
                     A                      A                      A
 Frequencies --    73.0592                90.0369                99.6756
 Red. masses --     6.3731                 6.1882                 6.5376
 Frc consts  --     0.0200                 0.0296                 0.0383
 IR Inten    --     0.1405                 1.0664                 1.7451
 Raman Activ --     0.1268                 0.2563                 0.0315

                    13                     14                     15
                     A                      A                      A
 Frequencies --   143.5333               164.5281               183.0112
 Red. masses --     6.1663                 5.9990                 8.0706
 Frc consts  --     0.0748                 0.0957                 0.1593
 IR Inten    --     7.2042                 2.7111                 0.5654
 Raman Activ --     0.3335                 0.3950                 0.8657

                    16                     17                     18
                     A                      A                      A
 Frequencies --   203.4273               231.6410               261.5525
 Red. masses --     6.9594                 5.9978                 4.0702
 Frc consts  --     0.1697                 0.1896                 0.1641
 IR Inten    --     0.4765                 1.9518                15.1552
 Raman Activ --     2.7000                 0.4717                 0.2128

                    19                     20                     21
                     A                      A                      A
 Frequencies --   266.7614               289.3564               296.9544
 Red. masses --     5.0041                 5.3791                 5.4950
 Frc consts  --     0.2098                 0.2654                 0.2855
 IR Inten    --     4.7775                 1.3844                 6.9605
 Raman Activ --     0.2787                 0.0599                 0.6172

                    22                     23                     24
                     A                      A                      A
 Frequencies --   303.3733               312.5906               317.4618
 Red. masses --     5.3744                 5.4389                 7.0059
 Frc consts  --     0.2914                 0.3131                 0.4160
 IR Inten    --     8.1725                 3.2914                 1.3637
 Raman Activ --     0.2427                 2.7242                 2.3369

                    25                     26                     27
                     A                      A                      A
 Frequencies --   339.3921               363.0917               372.2629
 Red. masses --     6.7841                 5.0537                 7.8369
 Frc consts  --     0.4604                 0.3925                 0.6399
 IR Inten    --    10.5758                 4.1322                 4.3117
 Raman Activ --     4.5791                 0.2537                 3.2827

                    28                     29                     30
                     A                      A                      A
 Frequencies --   401.6871               410.5590               432.8630
 Red. masses --     3.5129                 7.0682                 4.7433
 Frc consts  --     0.3340                 0.7020                 0.5236
 IR Inten    --    26.7145                 5.3029                 0.6646
 Raman Activ --     1.8427                 3.6489                 3.8582

                    31                     32                     33
                     A                      A                      A
 Frequencies --   448.9429               473.0411               487.3119
 Red. masses --     4.7813                 4.6587                 4.0953
 Frc consts  --     0.5678                 0.6142                 0.5730
 IR Inten    --     2.6875                 2.0234                15.6112
 Raman Activ --     1.7821                 2.8567                 1.0873

                    34                     35                     36
                     A                      A                      A
 Frequencies --   517.1090               519.4854               565.8881
 Red. masses --     3.9591                 3.1772                 3.0813
 Frc consts  --     0.6238                 0.5052                 0.5814
 IR Inten    --    18.8502                 5.8097                27.0175
 Raman Activ --     1.1409                 6.6015                 1.3086

                    37                     38                     39
                     A                      A                      A
 Frequencies --   569.7812               596.3220               607.1461
 Red. masses --     2.6542                 4.0396                 1.2958
 Frc consts  --     0.5077                 0.8464                 0.2814
 IR Inten    --    54.5914                15.9896                81.1187
 Raman Activ --     0.3917                 0.9586                 1.3015

                    40                     41                     42
                     A                      A                      A
 Frequencies --   616.8452               639.7087               666.4050
 Red. masses --     4.3888                 4.7895                 1.0999
 Frc consts  --     0.9839                 1.1548                 0.2878
 IR Inten    --     0.9836                37.4241               117.7492
 Raman Activ --     0.4615                 2.4001                 1.4954

                    43                     44                     45
                     A                      A                      A
 Frequencies --   693.5327               709.9343               722.7475
 Red. masses --     4.6651                 1.1402                 1.0814
 Frc consts  --     1.3220                 0.3386                 0.3328
 IR Inten    --     9.8023               120.8380               102.4730
 Raman Activ --     1.9058                 1.7626                 1.6647

                    46                     47                     48
                     A                      A                      A
 Frequencies --   817.4221               836.9553               842.1900
 Red. masses --     1.1034                 1.1995                 1.5200
 Frc consts  --     0.4344                 0.4950                 0.6352
 IR Inten    --    87.3676                46.2693                21.9343
 Raman Activ --     2.0835                 0.4053                 0.6624

                    49                     50                     51
                     A                      A                      A
 Frequencies --   869.3740               919.2839               962.2382
 Red. masses --     1.6109                 6.3055                 4.5180
 Frc consts  --     0.7173                 3.1396                 2.4647
 IR Inten    --     1.8304               127.5548                51.7008
 Raman Activ --     0.3234                 2.5952                 0.4061

                    52                     53                     54
                     A                      A                      A
 Frequencies --   985.1346               991.7777               993.5877
 Red. masses --     6.0442                 7.2100                 4.6634
 Frc consts  --     3.4560                 4.1784                 2.7125
 IR Inten    --     9.6054                38.7295               103.0746
 Raman Activ --     4.1832                 2.1574                 1.1786

                    55                     56                     57
                     A                      A                      A
 Frequencies --  1002.0821              1021.4273              1031.8274
 Red. masses --     5.1888                 5.9054                 4.6570
 Frc consts  --     3.0699                 3.6300                 2.9213
 IR Inten    --   523.6233                23.5154               102.6591
 Raman Activ --     2.1598                 2.0494                 4.6737

                    58                     59                     60
                     A                      A                      A
 Frequencies --  1054.7623              1058.1554              1069.3193
 Red. masses --     3.3335                 6.2654                 2.4682
 Frc consts  --     2.1851                 4.1333                 1.6628
 IR Inten    --   264.4283                22.7335                29.8127
 Raman Activ --     3.0723                 9.5167                 8.3866

                    61                     62                     63
                     A                      A                      A
 Frequencies --  1080.1661              1088.6002              1091.2030
 Red. masses --     5.2589                 3.5446                 4.9633
 Frc consts  --     3.6151                 2.4749                 3.4820
 IR Inten    --   171.7099                74.8984                10.7379
 Raman Activ --     0.3354                 4.2001                 6.5640

                    64                     65                     66
                     A                      A                      A
 Frequencies --  1106.3922              1108.3088              1114.8016
 Red. masses --     3.0124                 2.6499                 2.9466
 Frc consts  --     2.1726                 1.9178                 2.1576
 IR Inten    --   100.7298                34.3287                 7.0565
 Raman Activ --     8.9374                 5.2960                 7.1310

                    67                     68                     69
                     A                      A                      A
 Frequencies --  1125.2735              1132.0881              1138.6393
 Red. masses --     3.2455                 3.0901                 2.4210
 Frc consts  --     2.4213                 2.3334                 1.8493
 IR Inten    --    74.3322                81.5901                30.4944
 Raman Activ --     8.3919                 2.8914                 2.8018

                    70                     71                     72
                     A                      A                      A
 Frequencies --  1146.5786              1158.9472              1165.4554
 Red. masses --     2.5711                 1.7853                 1.7778
 Frc consts  --     1.9915                 1.4128                 1.4227
 IR Inten    --    13.2788                15.7586                 7.7870
 Raman Activ --     4.5600                 3.0819                 2.4215

                    73                     74                     75
                     A                      A                      A
 Frequencies --  1168.3028              1176.1179              1184.9111
 Red. masses --     1.8207                 2.0126                 1.7981
 Frc consts  --     1.4642                 1.6402                 1.4875
 IR Inten    --     5.8239                 1.9108                28.7956
 Raman Activ --     8.4561                 3.1285                 3.3216

                    76                     77                     78
                     A                      A                      A
 Frequencies --  1195.3881              1214.4474              1224.4827
 Red. masses --     1.3723                 1.3731                 1.3228
 Frc consts  --     1.1554                 1.1932                 1.1685
 IR Inten    --    37.6365                16.6626                 1.8635
 Raman Activ --     4.4317                 2.3199                 1.7413

                    79                     80                     81
                     A                      A                      A
 Frequencies --  1232.5270              1241.8146              1257.1438
 Red. masses --     1.1952                 1.3173                 1.3108
 Frc consts  --     1.0697                 1.1969                 1.2205
 IR Inten    --     3.3206                 5.5099                25.8567
 Raman Activ --     2.4749                 1.2290                 1.4810

                    82                     83                     84
                     A                      A                      A
 Frequencies --  1263.2809              1278.7356              1286.9432
 Red. masses --     1.3934                 1.2658                 1.2654
 Frc consts  --     1.3101                 1.2195                 1.2348
 IR Inten    --    49.4523                 5.4988                10.7988
 Raman Activ --     1.4085                 1.3930                 1.3843

                    85                     86                     87
                     A                      A                      A
 Frequencies --  1291.4061              1300.0248              1302.5097
 Red. masses --     1.2878                 1.3913                 1.3289
 Frc consts  --     1.2654                 1.3854                 1.3284
 IR Inten    --    49.6581                26.4189                13.5824
 Raman Activ --     5.5325                 3.4860                 2.3554

                    88                     89                     90
                     A                      A                      A
 Frequencies --  1315.8583              1322.4587              1333.6413
 Red. masses --     1.2115                 1.2718                 1.3045
 Frc consts  --     1.2360                 1.3105                 1.3670
 IR Inten    --     1.6373                 1.2041                32.1301
 Raman Activ --     7.9099                 5.5321                 1.8450

                    91                     92                     93
                     A                      A                      A
 Frequencies --  1338.3111              1349.9739              1362.8274
 Red. masses --     1.3045                 1.3576                 1.1552
 Frc consts  --     1.3766                 1.4577                 1.2642
 IR Inten    --     1.6478                61.1755                14.5924
 Raman Activ --     9.3210                 7.0696                 3.1180

                    94                     95                     96
                     A                      A                      A
 Frequencies --  1366.5311              1368.6516              1374.0056
 Red. masses --     1.1645                 1.5389                 1.5437
 Frc consts  --     1.2812                 1.6985                 1.7171
 IR Inten    --    39.2491                 2.5247                 6.0880
 Raman Activ --    10.7580                 3.9001                 7.5323

                    97                     98                     99
                     A                      A                      A
 Frequencies --  1383.7249              1401.6305              1413.9980
 Red. masses --     1.4294                 1.5239                 1.5699
 Frc consts  --     1.6125                 1.7639                 1.8493
 IR Inten    --    16.1420                10.2454                12.5015
 Raman Activ --     5.6643                 2.0451                 0.6305

                   100                    101                    102
                     A                      A                      A
 Frequencies --  1427.0499              1439.7109              1452.3393
 Red. masses --     1.2331                 1.4460                 1.3569
 Frc consts  --     1.4795                 1.7659                 1.6864
 IR Inten    --     2.9264                30.3950                31.8021
 Raman Activ --    10.1831                 0.9015                 1.1760

                   103                    104                    105
                     A                      A                      A
 Frequencies --  1465.4281              1477.2202              1482.1375
 Red. masses --     1.2868                 1.1447                 1.0831
 Frc consts  --     1.6282                 1.4718                 1.4019
 IR Inten    --    11.6049                 5.8765                 3.8187
 Raman Activ --     4.0832                 2.5672                 4.9028

                   106                    107                    108
                     A                      A                      A
 Frequencies --  1511.9426              1513.2962              3261.3941
 Red. masses --     1.2337                 1.2646                 1.0691
 Frc consts  --     1.6616                 1.7063                 6.6999
 IR Inten    --     6.8937                91.5091               654.9861
 Raman Activ --     4.4843                 0.0084               153.4833

                   109                    110                    111
                     A                      A                      A
 Frequencies --  3264.2990              3271.4157              3277.2557
 Red. masses --     1.0588                 1.0811                 1.0781
 Frc consts  --     6.6473                 6.8168                 6.8224
 IR Inten    --    44.3737                14.1715                36.8479
 Raman Activ --    64.7609                46.8934               146.2752

                   112                    113                    114
                     A                      A                      A
 Frequencies --  3281.5083              3285.1658              3287.8470
 Red. masses --     1.0630                 1.0823                 1.0836
 Frc consts  --     6.7441                 6.8820                 6.9017
 IR Inten    --    38.9898                75.7481                 4.7819
 Raman Activ --   180.9925                 7.7396               113.1450

                   115                    116                    117
                     A                      A                      A
 Frequencies --  3288.2708              3299.6645              3301.1119
 Red. masses --     1.0833                 1.0859                 1.0852
 Frc consts  --     6.9012                 6.9662                 6.9677
 IR Inten    --    19.7164                 9.7667                24.8972
 Raman Activ --    34.6196                 8.6300               182.5213

                   118                    119                    120
                     A                      A                      A
 Frequencies --  3303.5896              3308.9892              3313.7369
 Red. masses --     1.0863                 1.0885                 1.0846
 Frc consts  --     6.9850                 7.0220                 7.0173
 IR Inten    --     8.6740               106.3241               201.4572
 Raman Activ --    33.3943                17.8046                41.4677

                   121                    122                    123
                     A                      A                      A
 Frequencies --  3316.8309              3320.3318              3339.1765
 Red. masses --     1.0899                 1.0839                 1.1082
 Frc consts  --     7.0647                 7.0403                 7.2802
 IR Inten    --   161.6982               425.5811                40.6452
 Raman Activ --    24.5960               113.5193                48.0910

                   124                    125                    126
                     A                      A                      A
 Frequencies --  3390.8731              3391.1195              3400.6143
 Red. masses --     1.0682                 1.0658                 1.0656
 Frc consts  --     7.2367                 7.2210                 7.2601
 IR Inten    --    40.3486                45.7781                52.2025
 Raman Activ --   125.5900               137.2040               111.7437

                   127                    128                    129
                     A                      A                      A
 Frequencies --  3400.8748              3919.8449              3921.1054
 Red. masses --     1.0685                 1.0676                 1.0677
 Frc consts  --     7.2813                 9.6645                 9.6722
 IR Inten    --    81.2409                62.9901                75.5507
 Raman Activ --   154.9712               119.3850                92.7345

 - Thermochemistry -
 -------------------
 Temperature   298.150 Kelvin.  Pressure   1.00000 Atm.
 Atom     1 has atomic number  8 and mass  15.99491

 Molecular mass:   342.11621 amu.
 Principal axes and moments of inertia in atomic units:
                           1         2         3
     Eigenvalues --  4437.79343********************
           X            0.99997  -0.00731  -0.00022
           Y            0.00731   0.99997  -0.00097
           Z            0.00022   0.00096   1.00000
 This molecule is an asymmetric top.
 Rotational symmetry number  1.
 Warning -- assumption of classical behavior for rotation
           may cause significant error
 Rotational temperatures (Kelvin)      0.01952     0.00691     0.00523
 Rotational constants (GHZ):           0.40668     0.14391     0.10905
    7 imaginary frequencies ignored.
 Zero-point vibrational energy     976482.1 (Joules/Mol)
                                  233.38482 (Kcal/Mol)
 Warning -- explicit consideration of  33 degrees of freedom as
           vibrations may cause significant error
 Vibrational temperatures:     50.78    76.20   105.12   129.54   143.41
          (Kelvin)            206.51   236.72   263.31   292.69   333.28
                              376.32   383.81   416.32   427.25   436.49
                              449.75   456.76   488.31   522.41   535.60
                              577.94   590.70   622.79   645.93   680.60
                              701.13   744.00   747.42   814.19   819.79
                              857.97   873.55   887.50   920.40   958.81
                              997.84  1021.44  1039.87  1176.09  1204.19
                             1211.72  1250.83  1322.64  1384.44  1417.39
                             1426.95  1429.55  1441.77  1469.60  1484.57
                             1517.57  1522.45  1538.51  1554.12  1566.25
                             1570.00  1591.85  1594.61  1603.95  1619.02
                             1628.82  1638.25  1649.67  1667.46  1676.83
                             1680.92  1692.17  1704.82  1719.89  1747.32
                             1761.76  1773.33  1786.69  1808.75  1817.58
                             1839.81  1851.62  1858.04  1870.44  1874.02
                             1893.22  1902.72  1918.81  1925.53  1942.31
                             1960.80  1966.13  1969.18  1976.89  1990.87
                             2016.63  2034.43  2053.20  2071.42  2089.59
                             2108.42  2125.39  2132.46  2175.35  2177.29
                             4692.41  4696.59  4706.83  4715.23  4721.35
                             4726.61  4730.47  4731.08  4747.48  4749.56
                             4753.12  4760.89  4767.72  4772.17  4777.21
                             4804.32  4878.70  4879.06  4892.72  4893.09
                             5639.78  5641.59

 Zero-point correction=                           0.371922 (Hartree/Particle)
 Thermal correction to Energy=                    0.390505
 Thermal correction to Enthalpy=                  0.391449
 Thermal correction to Gibbs Free Energy=         0.325617
 Sum of electronic and zero-point Energies=          -1297.555110
 Sum of electronic and thermal Energies=             -1297.536527
 Sum of electronic and thermal Enthalpies=           -1297.535583
 Sum of electronic and thermal Free Energies=        -1297.601416

                     E (Thermal)             CV                S
                      KCal/Mol        Cal/Mol-Kelvin    Cal/Mol-Kelvin
 Total                  245.046             76.194            138.556
 Electronic               0.000              0.000              0.000
 Translational            0.889              2.981             43.384
 Rotational               0.889              2.981             35.175
 Vibrational            243.268             70.232             59.997
 Vibration     1          0.594              1.982              5.507
 Vibration     2          0.596              1.976              4.704
 Vibration     3          0.599              1.967              4.069
 Vibration     4          0.602              1.956              3.659
 Vibration     5          0.604              1.949              3.461
 Vibration     6          0.616              1.910              2.756
 Vibration     7          0.623              1.886              2.497
 Vibration     8          0.631              1.863              2.297
 Vibration     9          0.639              1.835              2.102
 Vibration    10          0.653              1.793              1.866
 Vibration    11          0.669              1.743              1.651
 Vibration    12          0.672              1.734              1.617
 Vibration    13          0.686              1.694              1.478
 Vibration    14          0.691              1.679              1.434
 Vibration    15          0.695              1.667              1.398
 Vibration    16          0.701              1.650              1.349
 Vibration    17          0.704              1.640              1.323
 Vibration    18          0.719              1.597              1.215
 Vibration    19          0.737              1.548              1.109
 Vibration    20          0.744              1.529              1.070
 Vibration    21          0.767              1.466              0.956
 Vibration    22          0.775              1.447              0.925
 Vibration    23          0.794              1.399              0.849
 Vibration    24          0.808              1.363              0.799
 Vibration    25          0.830              1.310              0.729
 Vibration    26          0.843              1.278              0.691
 Vibration    27          0.872              1.212              0.617
 Vibration    28          0.874              1.207              0.611
 Vibration    29          0.922              1.105              0.512
 Vibration    30          0.926              1.097              0.505
 Vibration    31          0.954              1.040              0.456
 Vibration    32          0.966              1.017              0.438
 Vibration    33          0.977              0.996              0.422

 Normal termination of Gaussian 09 at Thu Jan 21 04:56:11 2016.
