 Gaussian 09, Revision B.01,
 Gaussian 09:  EM64L-G09RevB.01 12-Aug-2010

 -------------------------------------------------
 # freq=raman b3lyp/6-31+g(2d,p) geom=connectivity
 -------------------------------------------------

 -----------------
 290 8885/8885.com
 -----------------
 Symbolic Z-matrix:
 Charge =  0 Multiplicity = 1

                         Standard orientation:
 ---------------------------------------------------------------------
 Center     Atomic      Atomic             Coordinates (Angstroms)
 Number     Number       Type             X           Y           Z
 ---------------------------------------------------------------------
      1          8           0       -5.015598   -0.510976    0.042740
      2          6           0       -3.661362   -0.171170   -0.286562
      3          6           0       -3.319441    1.220494    0.220442
      4          8           0       -4.228641    2.220918   -0.259250
      5          1           0       -5.120139    1.774477   -0.342706
      6          6           0       -1.901061    1.589787   -0.182787
      7          8           0       -1.450213    2.866913    0.293789
      8          1           0       -0.462257    2.923321    0.145636
      9          6           0       -2.896360   -2.609842   -0.053397
     10          8           0       -4.141729   -3.181938    0.371332
     11          1           0       -4.039057   -4.108226    0.733139
     12          6           0       -2.666670   -1.152172    0.312188
     13          8           0       -1.323662   -0.824984   -0.073406
     14          6           0       -0.945648    0.508854    0.296123
     15          8           0        0.249694    0.607209   -0.491974
     16          6           0        1.473472    0.220435    0.150803
     17          6           0        1.955734   -1.110611   -0.404820
     18          8           0        1.067650   -2.178925   -0.047463
     19          1           0        0.152229   -1.947843   -0.376193
     20          6           0        3.365549   -1.500349    0.010076
     21          8           0        3.927431   -2.768429   -0.360040
     22          1           0        4.747493   -2.935133    0.186281
     23          6           0        2.269852    2.563412    0.435971
     24          8           0        1.299128    3.331503   -0.289362
     25          1           0        1.547681    4.299517   -0.264278
     26          6           0        2.543079    1.228301   -0.236907
     27          8           0        3.831199    0.827858    0.252203
     28          6           0        4.345650   -0.386010   -0.315554
     29          8           0        5.451920   -0.552756    0.582202
     30          1           0       -5.491962   -0.740033   -0.758640
     31          1           0       -2.103485   -3.187541    0.373819
     32          1           0       -2.837329   -2.697721   -1.118147
     33          1           0       -2.730705   -1.069581    1.377072
     34          1           0       -3.555251   -0.183324   -1.351218
     35          1           0       -3.370684    1.207979    1.289141
     36          1           0       -1.862282    1.610033   -1.251892
     37          1           0       -0.736439    0.589444    1.342372
     38          1           0        3.182630    3.118832    0.492938
     39          1           0        1.905930    2.387006    1.426598
     40          1           0        2.571698    1.348625   -1.299735
     41          1           0        1.354611    0.174718    1.213197
     42          1           0        1.947977   -1.030855   -1.471815
     43          1           0        3.327115   -1.530156    1.078970
     44          1           0        6.236568   -0.789974    0.082547
     45          1           0        4.621449   -0.311477   -1.346708
 ---------------------------------------------------------------------

 SCF Done:  E(RB3LYP) =  -1297.99470894     A.U. after   13 cycles

 The electronic state is 1-A.
 Alpha  occ. eigenvalues --  -19.18392 -19.18266 -19.17722 -19.17412 -19.17149
 Alpha  occ. eigenvalues --  -19.17081 -19.16126 -19.15920 -19.15013 -19.13965
 Alpha  occ. eigenvalues --  -19.13630 -10.30516 -10.30148 -10.25313 -10.25312
 Alpha  occ. eigenvalues --  -10.25267 -10.25149 -10.24815 -10.24363 -10.24260
 Alpha  occ. eigenvalues --  -10.24245 -10.24197 -10.24173  -1.10300  -1.09046
 Alpha  occ. eigenvalues --   -1.05372  -1.04908  -1.03633  -1.02868  -1.02459
 Alpha  occ. eigenvalues --   -1.02063  -1.01824  -1.00502  -1.00159  -0.82086
 Alpha  occ. eigenvalues --   -0.80629  -0.79024  -0.78072  -0.71654  -0.69898
 Alpha  occ. eigenvalues --   -0.67263  -0.64594  -0.63012  -0.62765  -0.61209
 Alpha  occ. eigenvalues --   -0.60284  -0.56624  -0.55756  -0.54615  -0.54445
 Alpha  occ. eigenvalues --   -0.54146  -0.53201  -0.53005  -0.51549  -0.51365
 Alpha  occ. eigenvalues --   -0.50005  -0.49930  -0.49284  -0.48684  -0.46202
 Alpha  occ. eigenvalues --   -0.45848  -0.44982  -0.44229  -0.43440  -0.43149
 Alpha  occ. eigenvalues --   -0.42305  -0.41772  -0.40978  -0.40407  -0.39093
 Alpha  occ. eigenvalues --   -0.38598  -0.37769  -0.37236  -0.36280  -0.35871
 Alpha  occ. eigenvalues --   -0.35320  -0.34801  -0.34396  -0.33914  -0.33703
 Alpha  occ. eigenvalues --   -0.32564  -0.31191  -0.30732  -0.30037  -0.29708
 Alpha  occ. eigenvalues --   -0.29467  -0.28920  -0.27567  -0.27473  -0.26928
 Alpha  occ. eigenvalues --   -0.26177
 Alpha virt. eigenvalues --   -0.01868  -0.01611  -0.01484  -0.00396   0.00302
 Alpha virt. eigenvalues --    0.00840   0.01591   0.02338   0.02723   0.03412
 Alpha virt. eigenvalues --    0.03873   0.04295   0.04847   0.05268   0.05765

 Mulliken atomic charges:
              1
     1  O   -0.539531
     2  C   -0.089114
     3  C    0.183180
     4  O   -0.554804
     5  H    0.339922
     6  C    0.106591
     7  O   -0.576105
     8  H    0.407575
     9  C   -0.259812
    10  O   -0.532980
    11  H    0.343701
    12  C    0.197046
    13  O   -0.220505
    14  C   -0.014934
    15  O   -0.211957
    16  C    0.334102
    17  C    0.190737
    18  O   -0.546522
    19  H    0.364373
    20  C   -0.033835
    21  O   -0.567501
    22  H    0.341012
    23  C   -0.219973
    24  O   -0.557512
    25  H    0.358250
    26  C   -0.173882
    27  O   -0.221140
    28  C    0.206397
    29  O   -0.537412
    30  H    0.344651
    31  H    0.147022
    32  H    0.143427
    33  H    0.108747
    34  H    0.118933
    35  H    0.119157
    36  H    0.131054
    37  H    0.132345
    38  H    0.143600
    39  H    0.148280
    40  H    0.128216
    41  H    0.114440
    42  H    0.113011
    43  H    0.127355
    44  H    0.328810
    45  H    0.135581
 Sum of Mulliken atomic charges =   0.00000

 Dipole moment (field-independent basis, Debye):
    X=              2.6011    Y=             -0.7136    Z=             -1.1687  Tot=              2.9395
 Quadrupole moment (field-independent basis, Debye-Ang):
   XX=           -122.7062   YY=           -138.8589   ZZ=           -135.3976
   XY=             18.4184   XZ=              1.1644   YZ=             -2.6988

  Exact polarizability: 232.545  -1.708 197.667   1.170  -0.084 144.536
 Approx polarizability: 273.397  -1.398 257.681   1.910  -1.073 241.136

 ******    6 imaginary frequencies (negative Signs) ******

                     1                      2                      3
                     A                      A                      A
 Frequencies --  -253.6238              -244.0191              -206.3306
 Red. masses --     1.6046                 1.1785                 1.3039
 Frc consts  --     0.0608                 0.0413                 0.0327
 IR Inten    --    28.4999               118.3586                74.5960
 Raman Activ --     0.2281                 1.1083                 0.6234

                     4                      5                      6
                     A                      A                      A
 Frequencies --  -193.4371               -68.3540               -46.5520
 Red. masses --     1.9352                 6.4631                 5.8339
 Frc consts  --     0.0427                 0.0178                 0.0074
 IR Inten    --     3.1983                 1.2255                 0.6485
 Raman Activ --     0.0817                 0.0566                 0.0503

                     7                      8                      9
                     A                      A                      A
 Frequencies --    34.5049                48.8234                64.0830
 Red. masses --     6.7570                 6.4913                 6.7116
 Frc consts  --     0.0047                 0.0091                 0.0162
 IR Inten    --     0.1532                 3.3991                 0.3796
 Raman Activ --     0.0239                 0.0330                 0.0271

                    10                     11                     12
                     A                      A                      A
 Frequencies --    79.4470                98.0738               107.2652
 Red. masses --     6.1345                 6.2865                 5.5006
 Frc consts  --     0.0228                 0.0356                 0.0373
 IR Inten    --     2.7109                 3.3389                 1.0194
 Raman Activ --     0.4903                 0.0450                 0.0716

                    13                     14                     15
                     A                      A                      A
 Frequencies --   137.4812               171.9627               191.3333
 Red. masses --     5.9923                 6.2221                 6.4116
 Frc consts  --     0.0667                 0.1084                 0.1383
 IR Inten    --     6.7755                 2.5956                 0.2346
 Raman Activ --     0.2392                 0.1626                 0.4477

                    16                     17                     18
                     A                      A                      A
 Frequencies --   197.9076               229.6671               261.6403
 Red. masses --     7.5704                 5.8074                 4.3468
 Frc consts  --     0.1747                 0.1805                 0.1753
 IR Inten    --     0.6774                 0.7080                17.6933
 Raman Activ --     1.8527                 1.2087                 0.2562

                    19                     20                     21
                     A                      A                      A
 Frequencies --   278.9638               292.1731               298.7236
 Red. masses --     5.0882                 4.8101                 5.0962
 Frc consts  --     0.2333                 0.2419                 0.2679
 IR Inten    --     3.2796                 1.4957                 2.2836
 Raman Activ --     0.1454                 0.0562                 0.6045

                    22                     23                     24
                     A                      A                      A
 Frequencies --   303.7020               317.3956               326.0038
 Red. masses --     5.8697                 5.6173                 6.3231
 Frc consts  --     0.3190                 0.3334                 0.3959
 IR Inten    --     5.4193                 1.4568                 3.9911
 Raman Activ --     0.4483                 2.5033                 2.3144

                    25                     26                     27
                     A                      A                      A
 Frequencies --   338.5108               361.8027               383.0092
 Red. masses --     6.6606                 4.4831                 5.9364
 Frc consts  --     0.4497                 0.3458                 0.5131
 IR Inten    --     2.9523                 7.1357                 1.3198
 Raman Activ --     3.7630                 0.6071                 0.3663

                    28                     29                     30
                     A                      A                      A
 Frequencies --   397.6289               420.3528               442.2460
 Red. masses --     4.4524                 6.7368                 4.4093
 Frc consts  --     0.4148                 0.7013                 0.5081
 IR Inten    --    14.3821                 3.8308                 2.7999
 Raman Activ --     3.1093                 4.7371                 2.8900

                    31                     32                     33
                     A                      A                      A
 Frequencies --   446.4393               476.6890               496.3271
 Red. masses --     5.5385                 4.7439                 4.3964
 Frc consts  --     0.6504                 0.6351                 0.6381
 IR Inten    --     2.7210                 4.3363                10.6492
 Raman Activ --     4.9926                 3.7341                 1.4447

                    34                     35                     36
                     A                      A                      A
 Frequencies --   519.4406               526.8850               573.8425
 Red. masses --     3.3647                 3.0404                 4.2210
 Frc consts  --     0.5349                 0.4973                 0.8189
 IR Inten    --    15.2347                 3.6962                10.0286
 Raman Activ --     1.2607                 4.4025                 1.3973

                    37                     38                     39
                     A                      A                      A
 Frequencies --   595.5367               605.0823               627.9918
 Red. masses --     2.8183                 6.5291                 3.7634
 Frc consts  --     0.5889                 1.4084                 0.8745
 IR Inten    --    42.0603                 1.9795                 5.6668
 Raman Activ --     0.1256                 0.5537                 0.2180

                    40                     41                     42
                     A                      A                      A
 Frequencies --   643.1810               662.5063               704.3831
 Red. masses --     1.8975                 1.7356                 3.9812
 Frc consts  --     0.4625                 0.4488                 1.1638
 IR Inten    --    68.4871                65.3482                24.0111
 Raman Activ --     0.9279                 1.9293                 1.2499

                    43                     44                     45
                     A                      A                      A
 Frequencies --   716.0633               717.5525               751.5710
 Red. masses --     1.0629                 1.1308                 1.0685
 Frc consts  --     0.3211                 0.3430                 0.3556
 IR Inten    --    94.9988                73.3395                88.0886
 Raman Activ --     1.3753                 2.0998                 1.3304

                    46                     47                     48
                     A                      A                      A
 Frequencies --   765.9033               830.1685               847.9689
 Red. masses --     1.0882                 1.0792                 1.7553
 Frc consts  --     0.3761                 0.4382                 0.7437
 IR Inten    --   163.5879                58.5512                 4.0603
 Raman Activ --     3.6767                 0.2792                 0.5752

                    49                     50                     51
                     A                      A                      A
 Frequencies --   872.2882               917.1266               948.8975
 Red. masses --     1.6974                 5.3720                 5.0386
 Frc consts  --     0.7610                 2.6622                 2.6730
 IR Inten    --     7.6173               108.3294                64.2433
 Raman Activ --     0.6282                 3.0169                 0.7814

                    52                     53                     54
                     A                      A                      A
 Frequencies --   974.1903               982.4889               988.2211
 Red. masses --     6.9003                 4.4184                 4.7004
 Frc consts  --     3.8584                 2.5129                 2.7045
 IR Inten    --   109.0754                18.7992                80.3205
 Raman Activ --     1.2499                 0.5054                 3.2106

                    55                     56                     57
                     A                      A                      A
 Frequencies --   999.9129              1010.4813              1020.1328
 Red. masses --     6.1138                 5.9317                 6.3247
 Frc consts  --     3.6015                 3.5685                 3.8780
 IR Inten    --   250.1831                 2.0487               131.0946
 Raman Activ --     2.9793                 2.2868                 2.9148

                    58                     59                     60
                     A                      A                      A
 Frequencies --  1040.4485              1055.0134              1056.3412
 Red. masses --     5.5159                 5.4701                 4.3546
 Frc consts  --     3.5181                 3.5872                 2.8629
 IR Inten    --   323.1305                14.1814               132.8416
 Raman Activ --     2.4136                12.1895                 5.4376

                    61                     62                     63
                     A                      A                      A
 Frequencies --  1070.9040              1073.7988              1084.6198
 Red. masses --     3.0678                 4.7602                 4.8772
 Frc consts  --     2.0729                 3.2339                 3.3805
 IR Inten    --    57.1405                97.6050                69.1910
 Raman Activ --    17.1386                 5.7893                 4.4099

                    64                     65                     66
                     A                      A                      A
 Frequencies --  1096.2981              1101.9633              1107.6242
 Red. masses --     2.5349                 2.3882                 2.9199
 Frc consts  --     1.7950                 1.7087                 2.1106
 IR Inten    --    17.2307                48.6745                40.0534
 Raman Activ --     0.8321                12.1588                 3.8919

                    67                     68                     69
                     A                      A                      A
 Frequencies --  1112.3734              1122.8806              1128.1022
 Red. masses --     2.2612                 2.0800                 2.6610
 Frc consts  --     1.6485                 1.5452                 1.9952
 IR Inten    --    34.5516                42.1573                34.9877
 Raman Activ --     2.3416                 6.5335                 3.5481

                    70                     71                     72
                     A                      A                      A
 Frequencies --  1135.5414              1144.8513              1150.4405
 Red. masses --     2.1436                 3.3340                 1.6270
 Frc consts  --     1.6286                 2.5746                 1.2687
 IR Inten    --    51.8874                20.1251                 5.1503
 Raman Activ --     8.3920                 4.9175                 2.5016

                    73                     74                     75
                     A                      A                      A
 Frequencies --  1151.7458              1163.9969              1181.4408
 Red. masses --     1.6874                 2.0168                 1.6532
 Frc consts  --     1.3188                 1.6100                 1.3596
 IR Inten    --    30.8219                 2.6729                13.3874
 Raman Activ --     0.9858                 3.1642                 3.5517

                    76                     77                     78
                     A                      A                      A
 Frequencies --  1185.7326              1201.4113              1208.2336
 Red. masses --     1.4432                 1.2964                 1.5196
 Frc consts  --     1.1955                 1.1025                 1.3070
 IR Inten    --    16.2029                16.4595                 2.4005
 Raman Activ --     4.1358                 1.8134                 1.8768

                    79                     80                     81
                     A                      A                      A
 Frequencies --  1221.2791              1231.1263              1251.2679
 Red. masses --     1.1714                 1.2891                 1.2315
 Frc consts  --     1.0294                 1.1511                 1.1360
 IR Inten    --     7.3335                 2.8646                 0.9747
 Raman Activ --     1.6205                 0.7141                 4.9542

                    82                     83                     84
                     A                      A                      A
 Frequencies --  1260.7610              1272.8931              1278.6281
 Red. masses --     1.3285                 1.1972                 1.3289
 Frc consts  --     1.2441                 1.1429                 1.2800
 IR Inten    --    16.8182                 9.9236                19.3141
 Raman Activ --     2.6294                 1.5107                 1.1125

                    85                     86                     87
                     A                      A                      A
 Frequencies --  1280.5599              1284.8723              1304.4793
 Red. masses --     1.3634                 1.2974                 1.2465
 Frc consts  --     1.3173                 1.2620                 1.2497
 IR Inten    --     1.4213                17.2959                 3.2336
 Raman Activ --     1.3060                 1.2497                 4.1351

                    88                     89                     90
                     A                      A                      A
 Frequencies --  1307.0692              1315.2625              1331.7888
 Red. masses --     1.3371                 1.2816                 1.3764
 Frc consts  --     1.3459                 1.3063                 1.4383
 IR Inten    --    39.6143                 9.9325                37.9681
 Raman Activ --     3.9807                 8.7670                 4.0730

                    91                     92                     93
                     A                      A                      A
 Frequencies --  1340.0167              1342.0255              1343.1147
 Red. masses --     1.2255                 1.4436                 1.2182
 Frc consts  --     1.2965                 1.5319                 1.2948
 IR Inten    --    15.1845                10.0260                32.5125
 Raman Activ --     2.3055                 5.8370                 3.2870

                    94                     95                     96
                     A                      A                      A
 Frequencies --  1344.9192              1349.3938              1368.0085
 Red. masses --     1.2271                 1.4601                 1.3290
 Frc consts  --     1.3077                 1.5664                 1.4654
 IR Inten    --    55.1779                18.1599                29.2360
 Raman Activ --     5.4140                 7.0725                 3.2967

                    97                     98                     99
                     A                      A                      A
 Frequencies --  1372.0616              1376.6116              1393.5012
 Red. masses --     1.5606                 1.5488                 1.4588
 Frc consts  --     1.7309                 1.7293                 1.6690
 IR Inten    --     1.3245                 8.1855                 3.6955
 Raman Activ --     8.3522                 5.4005                 6.1731

                   100                    101                    102
                     A                      A                      A
 Frequencies --  1435.5843              1440.8599              1443.8708
 Red. masses --     1.3734                 1.3352                 1.4017
 Frc consts  --     1.6676                 1.6333                 1.7217
 IR Inten    --    46.7107                 8.9414                41.3532
 Raman Activ --     1.3029                 1.2751                 2.2285

                   103                    104                    105
                     A                      A                      A
 Frequencies --  1450.3044              1468.7630              1474.5537
 Red. masses --     1.3993                 1.0867                 1.1070
 Frc consts  --     1.7341                 1.3813                 1.4182
 IR Inten    --    12.4399                 1.5305                 3.6845
 Raman Activ --     0.9276                 3.8129                 4.3349

                   106                    107                    108
                     A                      A                      A
 Frequencies --  1488.1141              1494.1591              3258.3610
 Red. masses --     1.2822                 1.3030                 1.0581
 Frc consts  --     1.6729                 1.7139                 6.6188
 IR Inten    --    54.1437                34.7135                21.1092
 Raman Activ --     1.1184                 2.0627                70.0145

                   109                    110                    111
                     A                      A                      A
 Frequencies --  3258.6343              3262.7050              3268.2089
 Red. masses --     1.0587                 1.0801                 1.0809
 Frc consts  --     6.6237                 6.7746                 6.8020
 IR Inten    --   111.4218                18.6069                 9.8645
 Raman Activ --    38.4159               101.5837                37.8215

                   112                    113                    114
                     A                      A                      A
 Frequencies --  3272.5682              3275.7549              3277.8074
 Red. masses --     1.0802                 1.0740                 1.0839
 Frc consts  --     6.8160                 6.7902                 6.8612
 IR Inten    --    42.9791               361.7514                 8.6962
 Raman Activ --   235.9578               154.6664                12.9672

                   115                    116                    117
                     A                      A                      A
 Frequencies --  3284.3875              3286.6318              3291.0579
 Red. masses --     1.0813                 1.0839                 1.0861
 Frc consts  --     6.8723                 6.8986                 6.9306
 IR Inten    --    82.6862                10.2891                21.8496
 Raman Activ --    39.2889                66.2163                48.2215

                   118                    119                    120
                     A                      A                      A
 Frequencies --  3299.1263              3302.2157              3304.6993
 Red. masses --     1.0872                 1.0868                 1.0873
 Frc consts  --     6.9721                 6.9822                 6.9962
 IR Inten    --    24.6391                19.9148               105.3814
 Raman Activ --    16.4701                73.0482                24.9587

                   121                    122                    123
                     A                      A                      A
 Frequencies --  3316.8079              3324.2618              3337.6543
 Red. masses --     1.1057                 1.1077                 1.0661
 Frc consts  --     7.1669                 7.2124                 6.9974
 IR Inten    --    47.3727                44.1400               419.8259
 Raman Activ --    27.2149                34.0678               152.5898

                   124                    125                    126
                     A                      A                      A
 Frequencies --  3356.0080              3373.2508              3375.9833
 Red. masses --     1.0653                 1.0698                 1.0663
 Frc consts  --     7.0688                 7.1720                 7.1602
 IR Inten    --    34.8179                44.4589                57.9902
 Raman Activ --    97.5355               159.6069               111.7913

                   127                    128                    129
                     A                      A                      A
 Frequencies --  3377.0095              3888.9544              3890.1516
 Red. masses --     1.0687                 1.0677                 1.0671
 Frc consts  --     7.1805                 9.5141                 9.5147
 IR Inten    --    41.5253                80.0934                50.3292
 Raman Activ --   174.9742                79.2867               143.9115

 - Thermochemistry -
 -------------------
 Temperature   298.150 Kelvin.  Pressure   1.00000 Atm.
 Atom     1 has atomic number  8 and mass  15.99491

 Molecular mass:   342.11621 amu.
 Principal axes and moments of inertia in atomic units:
                           1         2         3
     Eigenvalues --  4400.60304********************
           X            0.99997   0.00801   0.00041
           Y           -0.00801   0.99997   0.00085
           Z           -0.00040  -0.00086   1.00000
 This molecule is an asymmetric top.
 Rotational symmetry number  1.
 Warning -- assumption of classical behavior for rotation
           may cause significant error
 Rotational temperatures (Kelvin)      0.01968     0.00707     0.00532
 Rotational constants (GHZ):           0.41011     0.14728     0.11081
    6 imaginary frequencies ignored.
 Zero-point vibrational energy     973316.6 (Joules/Mol)
                                  232.62824 (Kcal/Mol)
 Warning -- explicit consideration of  32 degrees of freedom as
           vibrations may cause significant error
 Vibrational temperatures:     49.64    70.25    92.20   114.31   141.11
          (Kelvin)            154.33   197.80   247.42   275.29   284.74
                              330.44   376.44   401.37   420.37   429.80
                              436.96   456.66   469.05   487.04   520.55
                              551.06   572.10   604.79   636.29   642.33
                              685.85   714.10   747.36   758.07   825.63
                              856.84   870.58   903.54   925.39   953.20
                             1013.45  1030.25  1032.40  1081.34  1101.96
                             1194.43  1220.04  1255.03  1319.54  1365.25
                             1401.64  1413.58  1421.83  1438.65  1453.86
                             1467.74  1496.97  1517.93  1519.84  1540.79
                             1544.95  1560.52  1577.33  1585.48  1593.62
                             1600.46  1615.57  1623.09  1633.79  1647.18
                             1655.23  1657.10  1674.73  1699.83  1706.00
                             1728.56  1738.38  1757.15  1771.31  1800.29
                             1813.95  1831.41  1839.66  1842.44  1848.64
                             1876.85  1880.58  1892.37  1916.14  1927.98
                             1930.87  1932.44  1935.04  1941.47  1968.26
                             1974.09  1980.63  2004.93  2065.48  2073.07
                             2077.41  2086.66  2113.22  2121.55  2141.06
                             2149.76  4688.05  4688.44  4694.30  4702.22
                             4708.49  4713.07  4716.03  4725.50  4728.72
                             4735.09  4746.70  4751.15  4754.72  4772.14
                             4782.87  4802.13  4828.54  4853.35  4857.28
                             4858.76  5595.33  5597.05

 Zero-point correction=                           0.370717 (Hartree/Particle)
 Thermal correction to Energy=                    0.389952
 Thermal correction to Enthalpy=                  0.390896
 Thermal correction to Gibbs Free Energy=         0.323382
 Sum of electronic and zero-point Energies=          -1297.623992
 Sum of electronic and thermal Energies=             -1297.604757
 Sum of electronic and thermal Enthalpies=           -1297.603813
 Sum of electronic and thermal Free Energies=        -1297.671327

                     E (Thermal)             CV                S
                      KCal/Mol        Cal/Mol-Kelvin    Cal/Mol-Kelvin
 Total                  244.699             78.032            142.096
 Electronic               0.000              0.000              0.000
 Translational            0.889              2.981             43.384
 Rotational               0.889              2.981             35.128
 Vibrational            242.921             72.070             63.583
 Vibration     1          0.594              1.983              5.552
 Vibration     2          0.595              1.978              4.864
 Vibration     3          0.597              1.971              4.327
 Vibration     4          0.600              1.963              3.904
 Vibration     5          0.604              1.951              3.492
 Vibration     6          0.606              1.943              3.318
 Vibration     7          0.614              1.916              2.839
 Vibration     8          0.626              1.877              2.414
 Vibration     9          0.634              1.852              2.215
 Vibration    10          0.637              1.843              2.152
 Vibration    11          0.652              1.796              1.882
 Vibration    12          0.669              1.743              1.651
 Vibration    13          0.679              1.712              1.540
 Vibration    14          0.688              1.688              1.461
 Vibration    15          0.692              1.676              1.424
 Vibration    16          0.695              1.667              1.396
 Vibration    17          0.704              1.640              1.323
 Vibration    18          0.710              1.623              1.280
 Vibration    19          0.719              1.599              1.219
 Vibration    20          0.736              1.551              1.114
 Vibration    21          0.752              1.506              1.027
 Vibration    22          0.764              1.475              0.971
 Vibration    23          0.783              1.426              0.891
 Vibration    24          0.802              1.378              0.820
 Vibration    25          0.806              1.369              0.807
 Vibration    26          0.833              1.302              0.719
 Vibration    27          0.852              1.258              0.667
 Vibration    28          0.874              1.207              0.611
 Vibration    29          0.882              1.190              0.594
 Vibration    30          0.930              1.088              0.497
 Vibration    31          0.953              1.041              0.457
 Vibration    32          0.964              1.021              0.441

 Normal termination of Gaussian 09 at Wed Mar 23 05:06:47 2016.
