 Gaussian 09, Revision B.01,
 Gaussian 09:  EM64L-G09RevB.01 12-Aug-2010

 --------------------------------------------------
 # freq=raman b3lyp/6-31+g(2df,p) geom=connectivity
 --------------------------------------------------

 ------------
 350 9000.com
 ------------
 Symbolic Z-matrix:
 Charge =  0 Multiplicity = 1

                         Standard orientation:
 ---------------------------------------------------------------------
 Center     Atomic      Atomic             Coordinates (Angstroms)
 Number     Number       Type             X           Y           Z
 ---------------------------------------------------------------------
      1          8           0       -5.039618   -0.322776    0.352192
      2          6           0       -3.698654   -0.014696   -0.054638
      3          6           0       -3.208661    1.326730    0.465363
      4          8           0       -4.099203    2.254987   -0.171068
      5          1           0       -4.946905    1.740474   -0.298286
      6          6           0       -1.784617    1.567960   -0.007910
      7          8           0       -1.205464    2.779722    0.497395
      8          1           0       -0.348529    2.877634   -0.008324
      9          6           0       -3.201792   -2.483093   -0.279361
     10          8           0       -4.390247   -3.126221    0.200553
     11          1           0       -4.281760   -4.119698    0.185553
     12          6           0       -2.785068   -1.161149    0.345530
     13          8           0       -1.469128   -0.875841   -0.150319
     14          6           0       -0.846184    0.383300    0.146155
     15          8           0        0.354963    0.487741   -0.632014
     16          6           0        1.541844    0.153506    0.103374
     17          6           0        2.039998   -1.191917   -0.398144
     18          8           0        1.042236   -2.223115   -0.418806
     19          1           0        0.121902   -1.842138   -0.499847
     20          6           0        3.371315   -1.534497    0.249506
     21          8           0        3.941144   -2.715410   -0.336084
     22          1           0        4.933343   -2.657367   -0.226768
     23          6           0        2.372145    2.660256   -0.145452
     24          8           0        1.123619    3.224318   -0.570850
     25          1           0        1.137396    4.224042   -0.543265
     26          6           0        2.604117    1.164620   -0.293845
     27          8           0        3.797821    0.819632    0.425177
     28          6           0        4.374629   -0.421134   -0.005811
     29          8           0        5.423971   -0.600392    0.956041
     30          1           0        6.236508   -0.836982    0.502820
     31          1           0        4.730758   -0.392622   -1.014404
     32          1           0        3.240983   -1.674766    1.302235
     33          1           0        2.275340   -1.028539   -1.429077
     34          1           0        1.370499    0.148273    1.159552
     35          1           0        2.807521    0.994633   -1.330490
     36          1           0        3.148335    3.158588   -0.687757
     37          1           0        2.494186    2.900585    0.890042
     38          1           0       -5.559628   -0.565806   -0.417305
     39          1           0       -0.551269    0.352525    1.174249
     40          1           0       -1.867828    1.719232   -1.063889
     41          1           0       -3.283382    1.382672    1.531283
     42          1           0       -3.694196    0.038651   -1.123298
     43          1           0       -2.760647   -1.253230    1.411281
     44          1           0       -2.390718   -3.169197   -0.151612
     45          1           0       -3.327083   -2.317457   -1.329012
 ---------------------------------------------------------------------

 SCF Done:  E(RB3LYP) =  -1298.00775943     A.U. after   14 cycles

 The electronic state is 1-A.
 Alpha  occ. eigenvalues --  -19.19267 -19.18599 -19.18409 -19.18086 -19.18036
 Alpha  occ. eigenvalues --  -19.17216 -19.16382 -19.16213 -19.14747 -19.13798
 Alpha  occ. eigenvalues --  -19.13079 -10.31245 -10.30220 -10.26347 -10.25924
 Alpha  occ. eigenvalues --  -10.25643 -10.25537 -10.25030 -10.24683 -10.24345
 Alpha  occ. eigenvalues --  -10.24281 -10.24081 -10.23819  -1.09955  -1.09270
 Alpha  occ. eigenvalues --   -1.06036  -1.05697  -1.04227  -1.03728  -1.02789
 Alpha  occ. eigenvalues --   -1.02603  -1.01839  -1.00274  -0.99879  -0.82254
 Alpha  occ. eigenvalues --   -0.79986  -0.79521  -0.78303  -0.72326  -0.70103
 Alpha  occ. eigenvalues --   -0.67310  -0.65041  -0.63291  -0.62895  -0.62026
 Alpha  occ. eigenvalues --   -0.60124  -0.57003  -0.55746  -0.55343  -0.54709
 Alpha  occ. eigenvalues --   -0.54338  -0.53460  -0.52791  -0.51617  -0.51081
 Alpha  occ. eigenvalues --   -0.50620  -0.49907  -0.49676  -0.48798  -0.47102
 Alpha  occ. eigenvalues --   -0.46313  -0.45300  -0.44864  -0.43708  -0.43150
 Alpha  occ. eigenvalues --   -0.42820  -0.41770  -0.41380  -0.40044  -0.39536
 Alpha  occ. eigenvalues --   -0.38681  -0.38378  -0.37963  -0.36320  -0.35643
 Alpha  occ. eigenvalues --   -0.35580  -0.35235  -0.34301  -0.33895  -0.33697
 Alpha  occ. eigenvalues --   -0.33062  -0.31417  -0.31108  -0.30298  -0.30126
 Alpha  occ. eigenvalues --   -0.29515  -0.29162  -0.27909  -0.27679  -0.26698
 Alpha  occ. eigenvalues --   -0.26039
 Alpha virt. eigenvalues --   -0.02792  -0.02185  -0.01946  -0.00250   0.00165
 Alpha virt. eigenvalues --    0.01065   0.01636   0.02418   0.03468   0.03720
 Alpha virt. eigenvalues --    0.04147   0.04306   0.04828   0.05275   0.05559

 Mulliken atomic charges:
              1
     1  O   -0.439166
     2  C   -0.392738
     3  C    0.192750
     4  O   -0.435039
     5  H    0.342830
     6  C   -0.314049
     7  O   -0.502881
     8  H    0.453123
     9  C   -0.337389
    10  O   -0.463760
    11  H    0.351478
    12  C    0.133565
    13  O   -0.074746
    14  C    0.233163
    15  O    0.016104
    16  C   -0.112530
    17  C    0.165190
    18  O   -0.512265
    19  H    0.410733
    20  C    0.012234
    21  O   -0.428108
    22  H    0.319342
    23  C   -0.470578
    24  O   -0.500185
    25  H    0.377545
    26  C    0.005117
    27  O   -0.062860
    28  C   -0.134978
    29  O   -0.439495
    30  H    0.341829
    31  H    0.154113
    32  H    0.140950
    33  H    0.111915
    34  H    0.125737
    35  H    0.122364
    36  H    0.153508
    37  H    0.163832
    38  H    0.361840
    39  H    0.103907
    40  H    0.134105
    41  H    0.136802
    42  H    0.139587
    43  H    0.121470
    44  H    0.150416
    45  H    0.145218
 Sum of Mulliken atomic charges =   0.00000

 Dipole moment (field-independent basis, Debye):
    X=              3.3313    Y=              0.1514    Z=             -2.3472  Tot=              4.0779
 Quadrupole moment (field-independent basis, Debye-Ang):
   XX=           -117.1028   YY=           -138.4722   ZZ=           -140.0748
   XY=             18.9591   XZ=              0.7629   YZ=             -4.2480

  Exact polarizability: 233.979   0.150 196.135   1.256   0.339 143.975
 Approx polarizability: 275.138   0.994 256.544   1.352   0.638 239.737

 ******    7 imaginary frequencies (negative Signs) ******

                     1                      2                      3
                     A                      A                      A
 Frequencies --  -271.0997              -266.1947              -236.1365
 Red. masses --     1.8112                 1.7382                 1.2388
 Frc consts  --     0.0784                 0.0726                 0.0407
 IR Inten    --     3.1948                 7.9100                96.5666
 Raman Activ --     0.0722                 0.0745                 0.8052

                     4                      5                      6
                     A                      A                      A
 Frequencies --  -109.7621               -72.0718               -52.8091
 Red. masses --     1.8191                 5.9613                 5.7587
 Frc consts  --     0.0129                 0.0182                 0.0095
 IR Inten    --    63.0731                 3.4414                 3.6258
 Raman Activ --     0.3446                 0.0239                 0.1005

                     7                      8                      9
                     A                      A                      A
 Frequencies --   -30.2860                23.1528                60.6684
 Red. masses --     6.3024                 6.8140                 5.6250
 Frc consts  --     0.0034                 0.0022                 0.0122
 IR Inten    --     0.1364                 0.7645                 5.3429
 Raman Activ --     0.0077                 0.0704                 0.1849

                    10                     11                     12
                     A                      A                      A
 Frequencies --    74.2557                88.8557               135.4101
 Red. masses --     3.2835                 6.2021                 5.6718
 Frc consts  --     0.0107                 0.0289                 0.0613
 IR Inten    --    32.8165                 1.3433                 1.2367
 Raman Activ --     0.1912                 0.3406                 0.1073

                    13                     14                     15
                     A                      A                      A
 Frequencies --   157.4913               179.1098               188.3964
 Red. masses --     6.3029                 6.7004                 6.6109
 Frc consts  --     0.0921                 0.1266                 0.1382
 IR Inten    --     4.0026                 5.0924                 2.6938
 Raman Activ --     0.5189                 0.8139                 0.4050

                    16                     17                     18
                     A                      A                      A
 Frequencies --   223.5662               232.3397               251.0576
 Red. masses --     7.0237                 4.9283                 5.1209
 Frc consts  --     0.2068                 0.1567                 0.1902
 IR Inten    --     0.2992                 8.3004                12.5462
 Raman Activ --     2.7991                 0.1508                 0.1144

                    19                     20                     21
                     A                      A                      A
 Frequencies --   279.5665               302.0418               304.2366
 Red. masses --     4.5917                 4.2301                 5.5025
 Frc consts  --     0.2114                 0.2274                 0.3001
 IR Inten    --     6.9758                 0.4544                 1.9030
 Raman Activ --     0.1639                 0.7861                 1.0443

                    22                     23                     24
                     A                      A                      A
 Frequencies --   308.3642               328.5502               332.2231
 Red. masses --     6.2210                 5.4805                 4.1931
 Frc consts  --     0.3485                 0.3486                 0.2727
 IR Inten    --     2.2886                 4.0413                 2.2004
 Raman Activ --     2.8096                 2.0646                 3.0766

                    25                     26                     27
                     A                      A                      A
 Frequencies --   354.2793               373.1115               390.2681
 Red. masses --     5.9345                 5.1715                 6.8349
 Frc consts  --     0.4389                 0.4242                 0.6134
 IR Inten    --    20.1140                 1.3734                 0.9422
 Raman Activ --     1.3235                 0.9052                 1.0206

                    28                     29                     30
                     A                      A                      A
 Frequencies --   410.4769               415.2461               432.8722
 Red. masses --     5.1366                 5.2244                 5.2575
 Frc consts  --     0.5099                 0.5308                 0.5804
 IR Inten    --     1.8344                15.0684                 6.8835
 Raman Activ --     6.4263                 1.0123                 2.4642

                    31                     32                     33
                     A                      A                      A
 Frequencies --   446.0444               483.8153               500.9913
 Red. masses --     4.7471                 4.1886                 4.6448
 Frc consts  --     0.5565                 0.5777                 0.6869
 IR Inten    --     3.7699                 6.5944                 4.6645
 Raman Activ --     2.4589                 1.3195                 1.7899

                    34                     35                     36
                     A                      A                      A
 Frequencies --   510.6186               541.4010               564.9128
 Red. masses --     3.2743                 3.2719                 4.5782
 Frc consts  --     0.5030                 0.5651                 0.8608
 IR Inten    --    23.2107                 6.8885                 9.4979
 Raman Activ --     2.6861                 4.8397                 0.9682

                    37                     38                     39
                     A                      A                      A
 Frequencies --   588.6423               599.2414               623.2238
 Red. masses --     4.5994                 3.2947                 5.8755
 Frc consts  --     0.9390                 0.6970                 1.3446
 IR Inten    --    16.1699                19.4556                15.1238
 Raman Activ --     0.9372                 0.3081                 0.6391

                    40                     41                     42
                     A                      A                      A
 Frequencies --   629.7618               677.1963               686.6505
 Red. masses --     3.8306                 2.0872                 1.5096
 Frc consts  --     0.8951                 0.5640                 0.4193
 IR Inten    --    14.4175                60.5753                53.8709
 Raman Activ --     0.6639                 0.5135                 1.7341

                    43                     44                     45
                     A                      A                      A
 Frequencies --   698.1348               716.1014               719.5576
 Red. masses --     1.1105                 1.0890                 1.0730
 Frc consts  --     0.3189                 0.3290                 0.3273
 IR Inten    --    70.0949                59.9678               154.0236
 Raman Activ --     1.7382                 1.7449                 1.2597

                    46                     47                     48
                     A                      A                      A
 Frequencies --   749.5355               847.6849               865.3296
 Red. masses --     1.0963                 1.7515                 1.5532
 Frc consts  --     0.3629                 0.7415                 0.6852
 IR Inten    --    72.6031                 1.7880                20.4790
 Raman Activ --     1.2369                 0.7437                 1.5563

                    49                     50                     51
                     A                      A                      A
 Frequencies --   904.0543               931.9461               948.2926
 Red. masses --     1.2678                 4.7297                 5.3924
 Frc consts  --     0.6105                 2.4203                 2.8571
 IR Inten    --    28.3874               180.0180                11.2904
 Raman Activ --     0.6065                 3.7589                 0.1664

                    52                     53                     54
                     A                      A                      A
 Frequencies --   973.6886               978.8019               992.9015
 Red. masses --     7.4261                 4.9677                 4.6878
 Frc consts  --     4.1481                 2.8041                 2.7229
 IR Inten    --    57.5318               134.5314               333.2277
 Raman Activ --     2.9034                 3.0141                 0.9398

                    55                     56                     57
                     A                      A                      A
 Frequencies --   998.0218              1002.7993              1027.9367
 Red. masses --     5.6047                 5.5142                 6.7442
 Frc consts  --     3.2892                 3.2671                 4.1987
 IR Inten    --   137.4850                51.9916               154.8559
 Raman Activ --     0.7847                 1.5888                 4.4025

                    58                     59                     60
                     A                      A                      A
 Frequencies --  1042.1711              1052.0671              1060.4842
 Red. masses --     5.5926                 4.7391                 3.1340
 Frc consts  --     3.5788                 3.0905                 2.0766
 IR Inten    --   409.0120                62.1745                39.5095
 Raman Activ --     2.5809                 5.8650                 3.6527

                    61                     62                     63
                     A                      A                      A
 Frequencies --  1065.2336              1073.3004              1075.6826
 Red. masses --     3.4275                 4.7881                 3.8529
 Frc consts  --     2.2915                 3.2498                 2.6267
 IR Inten    --    33.3193                62.4171                17.4628
 Raman Activ --    10.0171                 4.0914                 9.4996

                    64                     65                     66
                     A                      A                      A
 Frequencies --  1083.9377              1086.1864              1105.8628
 Red. masses --     3.7070                 2.6969                 2.2535
 Frc consts  --     2.5662                 1.8747                 1.6237
 IR Inten    --    19.1075                78.0840                18.0297
 Raman Activ --    19.4262                 2.0117                 5.2452

                    67                     68                     69
                     A                      A                      A
 Frequencies --  1113.0322              1125.4740              1129.8591
 Red. masses --     3.5919                 2.0662                 2.1651
 Frc consts  --     2.6218                 1.5420                 1.6285
 IR Inten    --    45.5480                 3.5604                 9.3320
 Raman Activ --     5.5939                 2.7207                 3.8768

                    70                     71                     72
                     A                      A                      A
 Frequencies --  1144.4856              1152.9829              1158.7220
 Red. masses --     3.4637                 2.4067                 1.9247
 Frc consts  --     2.6731                 1.8850                 1.5226
 IR Inten    --    79.6149                12.3748                 7.7460
 Raman Activ --     1.6302                 1.9110                 3.5591

                    73                     74                     75
                     A                      A                      A
 Frequencies --  1179.5998              1185.1945              1197.8404
 Red. masses --     1.5451                 2.1213                 1.9538
 Frc consts  --     1.2667                 1.7557                 1.6517
 IR Inten    --    10.9864                 3.0988                22.7975
 Raman Activ --     2.6418                 1.3519                 4.0825

                    76                     77                     78
                     A                      A                      A
 Frequencies --  1207.1451              1210.5218              1223.8929
 Red. masses --     1.3336                 1.5432                 1.2687
 Frc consts  --     1.1449                 1.3323                 1.1197
 IR Inten    --    18.1730                14.2246                30.3390
 Raman Activ --     5.3660                 2.1072                 0.5265

                    79                     80                     81
                     A                      A                      A
 Frequencies --  1231.7119              1251.2015              1260.9847
 Red. masses --     1.3255                 1.3413                 1.4242
 Frc consts  --     1.1848                 1.2372                 1.3343
 IR Inten    --     1.1989                 5.5221                33.1979
 Raman Activ --     2.2139                 1.1319                 1.9543

                    82                     83                     84
                     A                      A                      A
 Frequencies --  1273.5335              1276.3371              1287.0638
 Red. masses --     1.3149                 1.2706                 1.2218
 Frc consts  --     1.2565                 1.2195                 1.1925
 IR Inten    --    24.7681                31.0096                 3.5597
 Raman Activ --     1.4840                 5.0811                 1.4545

                    85                     86                     87
                     A                      A                      A
 Frequencies --  1288.8570              1294.7894              1297.4250
 Red. masses --     1.3559                 1.2313                 1.2904
 Frc consts  --     1.3270                 1.2163                 1.2798
 IR Inten    --    23.8625                 3.9767                15.8573
 Raman Activ --     2.6982                 1.6607                 0.4235

                    88                     89                     90
                     A                      A                      A
 Frequencies --  1300.4184              1316.6555              1319.4489
 Red. masses --     1.2171                 1.3295                 1.2709
 Frc consts  --     1.2127                 1.3579                 1.3036
 IR Inten    --    20.8409                22.7415                19.5211
 Raman Activ --     6.8052                 4.4659                 8.5854

                    91                     92                     93
                     A                      A                      A
 Frequencies --  1337.7526              1341.8434              1344.8753
 Red. masses --     1.1565                 1.2901                 1.3038
 Frc consts  --     1.2194                 1.3686                 1.3894
 IR Inten    --    41.8993                 5.9423                10.1207
 Raman Activ --     7.2242                 7.0698                 2.1597

                    94                     95                     96
                     A                      A                      A
 Frequencies --  1353.9222              1372.1940              1382.3935
 Red. masses --     1.3350                 1.7971                 1.2315
 Frc consts  --     1.4418                 1.9937                 1.3865
 IR Inten    --    29.8130                 3.6240                22.6394
 Raman Activ --     1.1394                 5.0338                 5.0221

                    97                     98                     99
                     A                      A                      A
 Frequencies --  1391.6595              1399.6980              1419.2793
 Red. masses --     1.3504                 1.2547                 1.2704
 Frc consts  --     1.5410                 1.4483                 1.5077
 IR Inten    --     0.8320                 2.8136                 7.0654
 Raman Activ --     3.8504                 5.0235                 8.1529

                   100                    101                    102
                     A                      A                      A
 Frequencies --  1442.9006              1447.4177              1454.2444
 Red. masses --     1.3293                 1.3426                 1.4218
 Frc consts  --     1.6306                 1.6573                 1.7716
 IR Inten    --    54.7500                14.5937                23.0742
 Raman Activ --     2.5217                 0.5980                 1.6698

                   103                    104                    105
                     A                      A                      A
 Frequencies --  1459.7583              1467.4685              1472.9295
 Red. masses --     1.0979                 1.3465                 1.0834
 Frc consts  --     1.3784                 1.7084                 1.3848
 IR Inten    --     4.0743                46.0294                 4.7988
 Raman Activ --     3.1618                 2.6936                 4.7385

                   106                    107                    108
                     A                      A                      A
 Frequencies --  1489.5897              1542.5617              3208.9453
 Red. masses --     1.2460                 1.2072                 1.0684
 Frc consts  --     1.6289                 1.6925                 6.4818
 IR Inten    --    84.3497                38.7815              1070.2598
 Raman Activ --     1.7964                 0.8366               161.5610

                   109                    110                    111
                     A                      A                      A
 Frequencies --  3247.2570              3254.0275              3257.3500
 Red. masses --     1.0822                 1.0577                 1.0812
 Frc consts  --     6.7233                 6.5988                 6.7588
 IR Inten    --    51.9599                27.2781                 7.2523
 Raman Activ --    13.8053                77.8630                31.8255

                   112                    113                    114
                     A                      A                      A
 Frequencies --  3262.0455              3264.1634              3271.0225
 Red. masses --     1.0593                 1.0801                 1.0836
 Frc consts  --     6.6411                 6.7803                 6.8311
 IR Inten    --     7.4436                33.2084                 8.4323
 Raman Activ --   200.5765                81.7046                64.9934

                   115                    116                    117
                     A                      A                      A
 Frequencies --  3274.2320              3282.8400              3287.8873
 Red. masses --     1.0831                 1.0847                 1.0848
 Frc consts  --     6.8411                 6.8872                 6.9095
 IR Inten    --    12.9743                29.5200                 0.0580
 Raman Activ --   101.7143                13.7863                72.8576

                   118                    119                    120
                     A                      A                      A
 Frequencies --  3295.6737              3296.8843              3301.9429
 Red. masses --     1.0865                 1.0861                 1.0852
 Frc consts  --     6.9530                 6.9558                 6.9708
 IR Inten    --    22.0816                39.1046               158.6832
 Raman Activ --    17.6859                77.6219                13.3241

                   121                    122                    123
                     A                      A                      A
 Frequencies --  3306.8247              3311.4764              3315.0176
 Red. masses --     1.0732                 1.1023                 1.1055
 Frc consts  --     6.9141                 7.1221                 7.1580
 IR Inten    --   450.4668                92.3172                42.0194
 Raman Activ --   142.3362                44.7461                56.1620

                   124                    125                    126
                     A                      A                      A
 Frequencies --  3337.0612              3348.8671              3359.3546
 Red. masses --     1.0656                 1.0656                 1.0667
 Frc consts  --     6.9913                 7.0414                 7.0928
 IR Inten    --    47.7291                17.4282                79.5997
 Raman Activ --    70.9156               119.3232               142.0712

                   127                    128                    129
                     A                      A                      A
 Frequencies --  3364.4914              3872.9674              3876.4183
 Red. masses --     1.0694                 1.0677                 1.0674
 Frc consts  --     7.1320                 9.4356                 9.4503
 IR Inten    --    45.9207                75.4958                61.8967
 Raman Activ --   161.2803                74.4917               123.5595

 - Thermochemistry -
 -------------------
 Temperature   298.150 Kelvin.  Pressure   1.00000 Atm.
 Atom     1 has atomic number  8 and mass  15.99491

 Molecular mass:   342.11621 amu.
 Principal axes and moments of inertia in atomic units:
                           1         2         3
     Eigenvalues --  4373.50512********************
           X            0.99997   0.00810  -0.00007
           Y           -0.00810   0.99997  -0.00080
           Z            0.00006   0.00080   1.00000
 This molecule is an asymmetric top.
 Rotational symmetry number  1.
 Warning -- assumption of classical behavior for rotation
           may cause significant error
 Rotational temperatures (Kelvin)      0.01980     0.00693     0.00529
 Rotational constants (GHZ):           0.41265     0.14430     0.11022
    7 imaginary frequencies ignored.
 Zero-point vibrational energy     974012.5 (Joules/Mol)
                                  232.79456 (Kcal/Mol)
 Warning -- explicit consideration of  31 degrees of freedom as
           vibrations may cause significant error
 Vibrational temperatures:     33.31    87.29   106.84   127.84   194.82
          (Kelvin)            226.59   257.70   271.06   321.66   334.28
                              361.22   402.23   434.57   437.73   443.67
                              472.71   477.99   509.73   536.82   561.51
                              590.58   597.45   622.81   641.76   696.10
                              720.81   734.67   778.95   812.78   846.92
                              862.17   896.68   906.09   974.33   987.94
                             1004.46  1030.31  1035.28  1078.41  1219.63
                             1245.01  1300.73  1340.86  1364.38  1400.92
                             1408.28  1428.56  1435.93  1442.80  1478.97
                             1499.45  1513.69  1525.80  1532.63  1544.24
                             1547.67  1559.54  1562.78  1591.09  1601.40
                             1619.30  1625.61  1646.66  1658.88  1667.14
                             1697.18  1705.23  1723.42  1736.81  1741.67
                             1760.91  1772.16  1800.20  1814.27  1832.33
                             1836.36  1851.80  1854.38  1862.91  1866.70
                             1871.01  1894.37  1898.39  1924.73  1930.61
                             1934.97  1947.99  1974.28  1988.95  2002.29
                             2013.85  2042.02  2076.01  2082.51  2092.33
                             2100.26  2111.36  2119.21  2143.18  2219.40
                             4616.95  4672.07  4681.81  4686.59  4693.35
                             4696.40  4706.27  4710.88  4723.27  4730.53
                             4741.73  4743.48  4750.75  4757.78  4764.47
                             4769.57  4801.28  4818.27  4833.36  4840.75
                             5572.33  5577.29

 Zero-point correction=                           0.370982 (Hartree/Particle)
 Thermal correction to Energy=                    0.389237
 Thermal correction to Enthalpy=                  0.390181
 Thermal correction to Gibbs Free Energy=         0.324987
 Sum of electronic and zero-point Energies=          -1297.636778
 Sum of electronic and thermal Energies=             -1297.618523
 Sum of electronic and thermal Enthalpies=           -1297.617579
 Sum of electronic and thermal Free Energies=        -1297.682773

                     E (Thermal)             CV                S
                      KCal/Mol        Cal/Mol-Kelvin    Cal/Mol-Kelvin
 Total                  244.250             75.751            137.213
 Electronic               0.000              0.000              0.000
 Translational            0.889              2.981             43.384
 Rotational               0.889              2.981             35.148
 Vibrational            242.472             69.790             58.681
 Vibration     1          0.593              1.985              6.344
 Vibration     2          0.597              1.973              4.435
 Vibration     3          0.599              1.966              4.037
 Vibration     4          0.602              1.957              3.685
 Vibration     5          0.613              1.918              2.868
 Vibration     6          0.621              1.894              2.580
 Vibration     7          0.629              1.868              2.338
 Vibration     8          0.633              1.856              2.244
 Vibration     9          0.649              1.805              1.930
 Vibration    10          0.653              1.791              1.861
 Vibration    11          0.663              1.761              1.723
 Vibration    12          0.680              1.711              1.536
 Vibration    13          0.694              1.670              1.406
 Vibration    14          0.695              1.666              1.393
 Vibration    15          0.698              1.658              1.371
 Vibration    16          0.712              1.618              1.267
 Vibration    17          0.714              1.611              1.249
 Vibration    18          0.730              1.566              1.147
 Vibration    19          0.745              1.527              1.067
 Vibration    20          0.758              1.491              0.999
 Vibration    21          0.775              1.447              0.925
 Vibration    22          0.779              1.437              0.908
 Vibration    23          0.794              1.399              0.849
 Vibration    24          0.805              1.370              0.808
 Vibration    25          0.840              1.286              0.700
 Vibration    26          0.856              1.248              0.656
 Vibration    27          0.866              1.226              0.632
 Vibration    28          0.896              1.159              0.562
 Vibration    29          0.921              1.107              0.514
 Vibration    30          0.946              1.056              0.470
 Vibration    31          0.957              1.033              0.451

 Normal termination of Gaussian 09 at Fri Feb 12 10:46:19 2016.
