 Gaussian 09, Revision B.01,
 Gaussian 09:  EM64L-G09RevB.01 12-Aug-2010

 -------------------------------------------------
 # freq=raman b3lyp/6-31+g(2d,p) geom=connectivity
 -------------------------------------------------

 -----------------
 423 6495/6495.com
 -----------------
 Symbolic Z-matrix:
 Charge =  0 Multiplicity = 1

                         Standard orientation:
 ---------------------------------------------------------------------
 Center     Atomic      Atomic             Coordinates (Angstroms)
 Number     Number       Type             X           Y           Z
 ---------------------------------------------------------------------
      1          8           0        5.034970   -0.325420   -0.309488
      2          6           0        3.730056   -0.139552    0.258750
      3          6           0        3.130399    1.156748   -0.261931
      4          8           0        4.092052    2.221239   -0.271955
      5          1           0        5.022470    1.863167   -0.343310
      6          6           0        1.829015    1.602894    0.382122
      7          8           0        1.450301    2.916523   -0.055247
      8          1           0        0.462575    3.048237    0.031346
      9          6           0        2.912503   -2.617271    0.141802
     10          8           0        4.197853   -3.247493    0.050025
     11          1           0        4.152885   -4.236278    0.197436
     12          6           0        2.753700   -1.168407   -0.287364
     13          8           0        1.442543   -0.866883    0.212530
     14          6           0        0.929876    0.450944   -0.034277
     15          8           0       -0.333507    0.547766    0.640262
     16          6           0       -1.503411    0.259059   -0.139079
     17          6           0       -1.930586   -1.169488    0.156809
     18          8           0       -1.010882   -2.152344   -0.342216
     19          1           0       -0.160393   -1.680872   -0.109009
     20          6           0       -3.375623   -1.481095   -0.194414
     21          8           0       -3.901056   -2.736039    0.260573
     22          1           0       -4.827229   -2.877635   -0.089025
     23          6           0       -2.329275    2.584656   -0.151086
     24          8           0       -1.084022    3.250785    0.102013
     25          1           0       -1.364291    4.210472    0.078508
     26          6           0       -2.572187    1.191418    0.407448
     27          8           0       -3.893744    0.948500   -0.094816
     28          6           0       -4.335254   -0.378824    0.225164
     29          8           0       -5.462992   -0.661326   -0.616592
     30          1           0       -6.224963   -0.870229   -0.071285
     31          1           0       -4.596231   -0.464395    1.259315
     32          1           0       -3.413714   -1.517001   -1.263133
     33          1           0       -1.879913   -1.257643    1.221967
     34          1           0       -1.334328    0.417118   -1.183746
     35          1           0       -2.564362    1.202924    1.477358
     36          1           0       -3.107677    3.215929    0.223727
     37          1           0        5.676179   -0.447189    0.394517
     38          1           0        2.231147   -3.198535   -0.443679
     39          1           0        2.598922   -2.682389    1.162745
     40          1           0        2.745777   -1.115275   -1.356015
     41          1           0        3.758707   -0.155509    1.328248
     42          1           0        2.893021    0.970189   -1.288453
     43          1           0        1.939809    1.600766    1.446368
     44          1           0        0.750031    0.540638   -1.085234
     45          1           0       -2.445817    2.524557   -1.213021
 ---------------------------------------------------------------------

 SCF Done:  E(RB3LYP) =  -1297.97518075     A.U. after   13 cycles

 The electronic state is 1-A.
 Alpha  occ. eigenvalues --  -19.19501 -19.18988 -19.18573 -19.18295 -19.18123
 Alpha  occ. eigenvalues --  -19.17273 -19.16048 -19.15820 -19.14113 -19.13618
 Alpha  occ. eigenvalues --  -19.12782 -10.30600 -10.30503 -10.26442 -10.26045
 Alpha  occ. eigenvalues --  -10.25822 -10.25521 -10.25388 -10.24436 -10.24037
 Alpha  occ. eigenvalues --  -10.23934 -10.23777 -10.23403  -1.10293  -1.09424
 Alpha  occ. eigenvalues --   -1.06713  -1.05542  -1.04569  -1.04095  -1.02458
 Alpha  occ. eigenvalues --   -1.02102  -1.01083  -1.00834  -0.98957  -0.82713
 Alpha  occ. eigenvalues --   -0.80695  -0.79520  -0.78669  -0.71897  -0.70004
 Alpha  occ. eigenvalues --   -0.67456  -0.64633  -0.63627  -0.62251  -0.61315
 Alpha  occ. eigenvalues --   -0.60478  -0.56604  -0.56528  -0.55414  -0.55010
 Alpha  occ. eigenvalues --   -0.53834  -0.53532  -0.52677  -0.52075  -0.51221
 Alpha  occ. eigenvalues --   -0.50760  -0.49739  -0.49283  -0.48843  -0.46173
 Alpha  occ. eigenvalues --   -0.45913  -0.45642  -0.44158  -0.43544  -0.43125
 Alpha  occ. eigenvalues --   -0.42501  -0.41804  -0.41026  -0.40483  -0.39653
 Alpha  occ. eigenvalues --   -0.38857  -0.38489  -0.38193  -0.37101  -0.36243
 Alpha  occ. eigenvalues --   -0.35153  -0.34711  -0.34493  -0.33639  -0.33160
 Alpha  occ. eigenvalues --   -0.32702  -0.31799  -0.30758  -0.30455  -0.29960
 Alpha  occ. eigenvalues --   -0.29271  -0.28310  -0.28175  -0.26964  -0.26547
 Alpha  occ. eigenvalues --   -0.26082
 Alpha virt. eigenvalues --   -0.02307  -0.02000  -0.01722  -0.00148   0.00173
 Alpha virt. eigenvalues --    0.01096   0.02053   0.02269   0.02961   0.03339
 Alpha virt. eigenvalues --    0.04220   0.04325   0.05143   0.05432   0.05870

 Mulliken atomic charges:
              1
     1  O   -0.550435
     2  C   -0.022126
     3  C    0.304351
     4  O   -0.594507
     5  H    0.350724
     6  C   -0.142936
     7  O   -0.607028
     8  H    0.450713
     9  C   -0.245541
    10  O   -0.552360
    11  H    0.342997
    12  C    0.097198
    13  O   -0.250731
    14  C    0.149083
    15  O   -0.209399
    16  C    0.352540
    17  C    0.153706
    18  O   -0.575207
    19  H    0.389339
    20  C    0.089737
    21  O   -0.558234
    22  H    0.339982
    23  C   -0.292903
    24  O   -0.567988
    25  H    0.363447
    26  C   -0.078200
    27  O   -0.257526
    28  C    0.185433
    29  O   -0.549009
    30  H    0.334615
    31  H    0.136921
    32  H    0.131855
    33  H    0.120019
    34  H    0.120768
    35  H    0.131255
    36  H    0.144074
    37  H    0.344135
    38  H    0.150253
    39  H    0.144652
    40  H    0.115706
    41  H    0.122880
    42  H    0.092840
    43  H    0.118319
    44  H    0.115147
    45  H    0.161441
 Sum of Mulliken atomic charges =   0.00000

 Dipole moment (field-independent basis, Debye):
    X=             -3.2098    Y=             -0.1128    Z=              2.3065  Tot=              3.9542
 Quadrupole moment (field-independent basis, Debye-Ang):
   XX=           -117.4943   YY=           -138.2051   ZZ=           -137.7999
   XY=            -17.9327   XZ=              1.5302   YZ=             -0.1737

  Exact polarizability: 234.079   1.499 197.586   0.266  -0.476 141.932
 Approx polarizability: 275.136   1.453 259.350   0.848  -0.308 236.596

 ******    7 imaginary frequencies (negative Signs) ******

                     1                      2                      3
                     A                      A                      A
 Frequencies --  -282.9459              -253.2780              -230.0116
 Red. masses --     1.7738                 1.8910                 1.1574
 Frc consts  --     0.0837                 0.0715                 0.0361
 IR Inten    --     8.8110                 0.3321                96.0880
 Raman Activ --     0.0760                 0.0548                 0.6541

                     4                      5                      6
                     A                      A                      A
 Frequencies --  -168.1320               -93.3873               -73.5684
 Red. masses --     1.2403                 6.2106                 5.9227
 Frc consts  --     0.0207                 0.0319                 0.0189
 IR Inten    --   117.3808                 0.9414                 2.6194
 Raman Activ --     1.1939                 0.0090                 0.0743

                     7                      8                      9
                     A                      A                      A
 Frequencies --   -43.5430                50.4690                69.8537
 Red. masses --     6.7168                 6.3650                 6.7675
 Frc consts  --     0.0075                 0.0096                 0.0195
 IR Inten    --     0.2926                 1.4281                 1.4486
 Raman Activ --     0.0244                 0.0519                 0.2807

                    10                     11                     12
                     A                      A                      A
 Frequencies --    87.3630                89.3635               111.3565
 Red. masses --     6.1121                 6.9026                 5.9493
 Frc consts  --     0.0275                 0.0325                 0.0435
 IR Inten    --     3.8943                 0.3868                 0.9022
 Raman Activ --     0.0331                 0.1055                 0.0529

                    13                     14                     15
                     A                      A                      A
 Frequencies --   165.6019               176.4729               191.2803
 Red. masses --     6.2762                 6.5339                 7.2580
 Frc consts  --     0.1014                 0.1199                 0.1565
 IR Inten    --     2.2641                 1.5242                 3.9501
 Raman Activ --     0.4391                 0.4580                 0.4321

                    16                     17                     18
                     A                      A                      A
 Frequencies --   214.5703               246.6760               274.7409
 Red. masses --     6.9155                 6.3227                 3.9768
 Frc consts  --     0.1876                 0.2267                 0.1769
 IR Inten    --     0.3068                 0.2315                16.6086
 Raman Activ --     2.6034                 0.6411                 0.3213

                    19                     20                     21
                     A                      A                      A
 Frequencies --   282.6192               303.1679               314.4736
 Red. masses --     4.4558                 6.1731                 5.4895
 Frc consts  --     0.2097                 0.3343                 0.3199
 IR Inten    --     1.0135                 2.7898                 3.4436
 Raman Activ --     0.1312                 0.2003                 2.1756

                    22                     23                     24
                     A                      A                      A
 Frequencies --   324.6916               327.8638               340.1679
 Red. masses --     6.8054                 5.5668                 4.9921
 Frc consts  --     0.4227                 0.3526                 0.3403
 IR Inten    --     1.4709                 4.2377                 6.6216
 Raman Activ --     2.0434                 2.8140                 1.0361

                    25                     26                     27
                     A                      A                      A
 Frequencies --   357.7675               373.6689               383.0939
 Red. masses --     4.4589                 5.9404                 7.1932
 Frc consts  --     0.3363                 0.4887                 0.6220
 IR Inten    --     8.2578                 3.8259                 0.7553
 Raman Activ --     0.7247                 0.7173                 2.8888

                    28                     29                     30
                     A                      A                      A
 Frequencies --   399.9172               429.6659               436.9770
 Red. masses --     4.1787                 5.8927                 5.2286
 Frc consts  --     0.3938                 0.6410                 0.5882
 IR Inten    --    26.6853                 5.6626                 1.9139
 Raman Activ --     0.7462                 5.9757                 2.2247

                    31                     32                     33
                     A                      A                      A
 Frequencies --   449.7753               491.3920               497.1906
 Red. masses --     5.4732                 4.8266                 4.3138
 Frc consts  --     0.6524                 0.6867                 0.6283
 IR Inten    --     2.3099                 9.7586                 5.4156
 Raman Activ --     2.0233                 4.6665                 0.9260

                    34                     35                     36
                     A                      A                      A
 Frequencies --   508.8536               543.8327               573.7148
 Red. masses --     3.3442                 3.9439                 4.8202
 Frc consts  --     0.5102                 0.6872                 0.9348
 IR Inten    --     6.3823                 5.3465                 2.1821
 Raman Activ --     5.8949                 2.2506                 0.5694

                    37                     38                     39
                     A                      A                      A
 Frequencies --   591.7041               605.8102               614.4446
 Red. masses --     4.6759                 3.9263                 3.6369
 Frc consts  --     0.9645                 0.8490                 0.8090
 IR Inten    --    16.9754                18.9251                28.6610
 Raman Activ --     0.7363                 0.3381                 0.4407

                    40                     41                     42
                     A                      A                      A
 Frequencies --   636.3183               674.8088               680.8309
 Red. masses --     3.7170                 1.0799                 5.1511
 Frc consts  --     0.8867                 0.2897                 1.4068
 IR Inten    --    22.4002               111.1084                10.2615
 Raman Activ --     1.2414                 2.0490                 0.4375

                    43                     44                     45
                     A                      A                      A
 Frequencies --   723.2855               737.1036               741.6565
 Red. masses --     1.0943                 1.0547                 1.0587
 Frc consts  --     0.3373                 0.3376                 0.3431
 IR Inten    --    77.8006                88.0422                73.4280
 Raman Activ --     1.3754                 1.7949                 1.4328

                    46                     47                     48
                     A                      A                      A
 Frequencies --   767.1327               838.7440               856.7912
 Red. masses --     1.0625                 1.0928                 1.8017
 Frc consts  --     0.3684                 0.4529                 0.7792
 IR Inten    --    92.4335                50.1406                 1.2968
 Raman Activ --     0.7976                 0.6579                 2.2073

                    49                     50                     51
                     A                      A                      A
 Frequencies --   865.7221               919.9283               954.4597
 Red. masses --     1.6344                 6.7593                 5.2400
 Frc consts  --     0.7217                 3.3702                 2.8125
 IR Inten    --     2.8495                62.9279                60.6065
 Raman Activ --     0.4379                 2.1265                 1.3863

                    52                     53                     54
                     A                      A                      A
 Frequencies --   970.1906               980.8860               984.2096
 Red. masses --     6.2214                 4.6096                 4.9805
 Frc consts  --     3.4503                 2.6130                 2.8425
 IR Inten    --    22.8621               194.8262                10.2057
 Raman Activ --     2.2933                 0.6080                 1.6558

                    55                     56                     57
                     A                      A                      A
 Frequencies --   999.2490              1006.8697              1022.0922
 Red. masses --     6.6224                 6.3090                 6.0447
 Frc consts  --     3.8959                 3.7684                 3.7206
 IR Inten    --   262.8807               203.2657               132.4380
 Raman Activ --     0.6091                 3.5523                 2.7552

                    58                     59                     60
                     A                      A                      A
 Frequencies --  1034.2963              1055.2406              1057.7852
 Red. masses --     5.3419                 5.0184                 5.9465
 Frc consts  --     3.3669                 3.2924                 3.9202
 IR Inten    --   325.9993                97.8857                50.6961
 Raman Activ --     2.3578                 5.2995                 1.3576

                    61                     62                     63
                     A                      A                      A
 Frequencies --  1065.3106              1068.6620              1081.5738
 Red. masses --     5.1156                 4.1693                 3.9927
 Frc consts  --     3.4205                 2.8054                 2.7519
 IR Inten    --    38.2533                47.8561                17.6368
 Raman Activ --    13.6682                 3.4595                25.3193

                    64                     65                     66
                     A                      A                      A
 Frequencies --  1087.4249              1101.7528              1108.6557
 Red. masses --     2.3695                 2.7074                 3.5841
 Frc consts  --     1.6508                 1.9363                 2.5955
 IR Inten    --    51.1834                54.5677                65.1140
 Raman Activ --     1.7459                10.9713                 3.8583

                    67                     68                     69
                     A                      A                      A
 Frequencies --  1123.7824              1127.1860              1131.4153
 Red. masses --     2.6150                 2.2171                 2.3881
 Frc consts  --     1.9458                 1.6597                 1.8011
 IR Inten    --    23.8085                15.2442                39.0729
 Raman Activ --     2.9223                 1.8490                 7.6952

                    70                     71                     72
                     A                      A                      A
 Frequencies --  1139.2520              1147.9344              1158.3044
 Red. masses --     1.9233                 1.8901                 2.5560
 Frc consts  --     1.4707                 1.4675                 2.0205
 IR Inten    --   102.4654                 0.7458                29.7784
 Raman Activ --     5.2856                 2.5931                 2.8076

                    73                     74                     75
                     A                      A                      A
 Frequencies --  1162.1644              1172.1250              1186.8542
 Red. masses --     1.4802                 2.4461                 2.0632
 Frc consts  --     1.1779                 1.9800                 1.7123
 IR Inten    --    22.5047                 2.1755                48.2561
 Raman Activ --     1.6301                 3.3520                 2.6482

                    76                     77                     78
                     A                      A                      A
 Frequencies --  1206.2969              1215.5866              1231.4062
 Red. masses --     1.3611                 1.5597                 1.3698
 Frc consts  --     1.1670                 1.3579                 1.2238
 IR Inten    --     4.7351                24.0780                 9.3162
 Raman Activ --     0.3046                 2.9966                 2.0121

                    79                     80                     81
                     A                      A                      A
 Frequencies --  1240.6229              1246.0487              1259.5178
 Red. masses --     1.2897                 1.2954                 1.3196
 Frc consts  --     1.1696                 1.1850                 1.2334
 IR Inten    --     1.1057                12.6047                26.0580
 Raman Activ --     2.8616                 2.1281                 0.7433

                    82                     83                     84
                     A                      A                      A
 Frequencies --  1280.2613              1285.1519              1287.7149
 Red. masses --     1.2311                 1.1809                 1.2238
 Frc consts  --     1.1889                 1.1492                 1.1956
 IR Inten    --     6.1296                18.9002                15.9012
 Raman Activ --     1.2806                 4.8013                 0.6271

                    85                     86                     87
                     A                      A                      A
 Frequencies --  1290.0682              1300.9639              1312.1375
 Red. masses --     1.2823                 1.2427                 1.2449
 Frc consts  --     1.2573                 1.2393                 1.2628
 IR Inten    --    17.6758                 2.7471                35.3140
 Raman Activ --     1.7932                 2.4569                 5.5111

                    88                     89                     90
                     A                      A                      A
 Frequencies --  1320.6827              1320.8892              1337.3802
 Red. masses --     1.1714                 1.2148                 1.2321
 Frc consts  --     1.2038                 1.2488                 1.2984
 IR Inten    --    21.6585                23.9363                12.0643
 Raman Activ --     3.9170                17.9613                 1.0531

                    91                     92                     93
                     A                      A                      A
 Frequencies --  1341.8459              1350.3384              1354.0383
 Red. masses --     1.3578                 1.3121                 1.2196
 Frc consts  --     1.4404                 1.4096                 1.3174
 IR Inten    --    16.9487                11.7994                31.8597
 Raman Activ --     6.0215                 2.1043                 6.7771

                    94                     95                     96
                     A                      A                      A
 Frequencies --  1364.4906              1366.7512              1382.5966
 Red. masses --     1.4785                 1.4372                 1.2543
 Frc consts  --     1.6219                 1.5818                 1.4126
 IR Inten    --    10.0430                 9.6704                27.8689
 Raman Activ --     6.8201                 4.1925                 2.5909

                    97                     98                     99
                     A                      A                      A
 Frequencies --  1392.7160              1396.2437              1401.2977
 Red. masses --     1.2886                 1.3730                 1.4333
 Frc consts  --     1.4727                 1.5770                 1.6582
 IR Inten    --     4.8695                36.2853                 1.1085
 Raman Activ --     2.3299                 2.7496                 5.0104

                   100                    101                    102
                     A                      A                      A
 Frequencies --  1424.9173              1426.9379              1453.2556
 Red. masses --     1.5157                 1.4997                 1.4017
 Frc consts  --     1.8131                 1.7992                 1.7442
 IR Inten    --    32.0403                22.0059                10.5660
 Raman Activ --     0.8724                 1.6414                 1.5349

                   103                    104                    105
                     A                      A                      A
 Frequencies --  1468.8925              1476.5746              1477.4755
 Red. masses --     1.3391                 1.1026                 1.0872
 Frc consts  --     1.7023                 1.4164                 1.3983
 IR Inten    --    20.9498                 1.6802                 2.2871
 Raman Activ --     0.7757                 3.7856                 4.6226

                   106                    107                    108
                     A                      A                      A
 Frequencies --  1544.2299              1568.3264              3229.5330
 Red. masses --     1.1909                 1.2183                 1.0678
 Frc consts  --     1.6732                 1.7655                 6.5618
 IR Inten    --    47.5259                54.2661              1097.6872
 Raman Activ --     0.9311                 1.3027               190.5292

                   109                    110                    111
                     A                      A                      A
 Frequencies --  3251.1360              3257.8545              3258.2708
 Red. masses --     1.0818                 1.0775                 1.0597
 Frc consts  --     6.7371                 6.7381                 6.6285
 IR Inten    --    66.9730                60.7971                17.0538
 Raman Activ --    25.4747               122.7203                34.0341

                   112                    113                    114
                     A                      A                      A
 Frequencies --  3263.0858              3271.3911              3277.5200
 Red. masses --     1.0586                 1.0824                 1.0834
 Frc consts  --     6.6409                 6.8253                 6.8569
 IR Inten    --     4.6441                10.1762                 8.7223
 Raman Activ --   171.3876                37.1592                39.5779

                   115                    116                    117
                     A                      A                      A
 Frequencies --  3280.9067              3287.4401              3289.7116
 Red. masses --     1.0836                 1.0856                 1.0854
 Frc consts  --     6.8724                 6.9127                 6.9207
 IR Inten    --    28.2005                23.0145                16.2178
 Raman Activ --   115.0435                22.5665                85.1961

                   118                    119                    120
                     A                      A                      A
 Frequencies --  3293.4054              3297.9170              3300.4991
 Red. masses --     1.0868                 1.0769                 1.0877
 Frc consts  --     6.9451                 6.9007                 6.9807
 IR Inten    --    15.7482               386.3169                69.0146
 Raman Activ --    68.1580                92.7077                33.0846

                   121                    122                    123
                     A                      A                      A
 Frequencies --  3301.9900              3313.8016              3318.8217
 Red. masses --     1.0825                 1.1026                 1.1037
 Frc consts  --     6.9539                 7.1337                 7.1623
 IR Inten    --   302.7424                74.7447                57.1708
 Raman Activ --    47.7488                38.2176                28.8490

                   124                    125                    126
                     A                      A                      A
 Frequencies --  3359.1515              3368.2035              3369.5065
 Red. masses --     1.0678                 1.0653                 1.0657
 Frc consts  --     7.0989                 7.1209                 7.1289
 IR Inten    --    52.8846                47.7048                43.8002
 Raman Activ --   175.7106               106.9815               134.5188

                   127                    128                    129
                     A                      A                      A
 Frequencies --  3373.6167              3886.9529              3891.9542
 Red. masses --     1.0668                 1.0674                 1.0676
 Frc consts  --     7.1539                 9.5019                 9.5276
 IR Inten    --    54.0074                66.3820                82.2141
 Raman Activ --   141.7299               120.7609                96.6673

 - Thermochemistry -
 -------------------
 Temperature   298.150 Kelvin.  Pressure   1.00000 Atm.
 Atom     1 has atomic number  8 and mass  15.99491

 Molecular mass:   342.11621 amu.
 Principal axes and moments of inertia in atomic units:
                           1         2         3
     Eigenvalues --  4397.48583********************
           X            0.99997  -0.00772   0.00001
           Y            0.00772   0.99997  -0.00167
           Z            0.00001   0.00167   1.00000
 This molecule is an asymmetric top.
 Rotational symmetry number  1.
 Warning -- assumption of classical behavior for rotation
           may cause significant error
 Rotational temperatures (Kelvin)      0.01970     0.00708     0.00532
 Rotational constants (GHZ):           0.41040     0.14758     0.11085
    7 imaginary frequencies ignored.
 Zero-point vibrational energy     976552.7 (Joules/Mol)
                                  233.40170 (Kcal/Mol)
 Warning -- explicit consideration of  32 degrees of freedom as
           vibrations may cause significant error
 Vibrational temperatures:     72.61   100.50   125.70   128.57   160.22
          (Kelvin)            238.26   253.90   275.21   308.72   354.91
                              395.29   406.63   436.19   452.46   467.16
                              471.72   489.43   514.75   537.63   551.19
                              575.39   618.19   628.71   647.13   707.00
                              715.35   732.13   782.45   825.45   851.33
                              871.62   884.05   915.52   970.90   979.56
                             1040.65  1060.53  1067.08  1103.73  1206.76
                             1232.73  1245.58  1323.57  1373.25  1395.89
                             1411.27  1416.06  1437.69  1448.66  1470.56
                             1488.12  1518.25  1521.92  1532.74  1537.56
                             1556.14  1564.56  1585.17  1595.11  1616.87
                             1621.77  1627.85  1639.13  1651.62  1666.54
                             1672.09  1686.42  1707.62  1735.59  1748.96
                             1771.72  1784.98  1792.78  1812.16  1842.01
                             1849.04  1852.73  1856.12  1871.79  1887.87
                             1900.17  1900.46  1924.19  1930.61  1942.83
                             1948.16  1963.20  1966.45  1989.25  2003.81
                             2008.88  2016.15  2050.14  2053.04  2090.91
                             2113.41  2124.46  2125.76  2221.80  2256.47
                             4646.57  4677.65  4687.32  4687.92  4694.85
                             4706.80  4715.61  4720.49  4729.89  4733.16
                             4738.47  4744.96  4748.68  4750.82  4767.82
                             4775.04  4833.06  4846.09  4847.96  4853.88
                             5592.45  5599.65

 Zero-point correction=                           0.371949 (Hartree/Particle)
 Thermal correction to Energy=                    0.390008
 Thermal correction to Enthalpy=                  0.390952
 Thermal correction to Gibbs Free Energy=         0.326897
 Sum of electronic and zero-point Energies=          -1297.603231
 Sum of electronic and thermal Energies=             -1297.585173
 Sum of electronic and thermal Enthalpies=           -1297.584229
 Sum of electronic and thermal Free Energies=        -1297.648284

                     E (Thermal)             CV                S
                      KCal/Mol        Cal/Mol-Kelvin    Cal/Mol-Kelvin
 Total                  244.734             75.461            134.816
 Electronic               0.000              0.000              0.000
 Translational            0.889              2.981             43.384
 Rotational               0.889              2.981             35.125
 Vibrational            242.956             69.499             56.306
 Vibration     1          0.595              1.977              4.799
 Vibration     2          0.598              1.968              4.157
 Vibration     3          0.601              1.958              3.718
 Vibration     4          0.602              1.957              3.674
 Vibration     5          0.607              1.940              3.245
 Vibration     6          0.624              1.885              2.485
 Vibration     7          0.628              1.871              2.365
 Vibration     8          0.634              1.852              2.215
 Vibration     9          0.644              1.819              2.004
 Vibration    10          0.661              1.768              1.754
 Vibration    11          0.677              1.720              1.566
 Vibration    12          0.682              1.706              1.518
 Vibration    13          0.695              1.668              1.399
 Vibration    14          0.702              1.646              1.339
 Vibration    15          0.709              1.626              1.286
 Vibration    16          0.711              1.620              1.271
 Vibration    17          0.720              1.595              1.211
 Vibration    18          0.733              1.559              1.132
 Vibration    19          0.745              1.526              1.065
 Vibration    20          0.752              1.506              1.027
 Vibration    21          0.766              1.470              0.963
 Vibration    22          0.791              1.406              0.860
 Vibration    23          0.797              1.390              0.836
 Vibration    24          0.809              1.361              0.796
 Vibration    25          0.847              1.269              0.680
 Vibration    26          0.853              1.256              0.665
 Vibration    27          0.864              1.230              0.636
 Vibration    28          0.899              1.153              0.557
 Vibration    29          0.930              1.088              0.497
 Vibration    30          0.949              1.049              0.464
 Vibration    31          0.964              1.019              0.440
 Vibration    32          0.974              1.001              0.425

 Normal termination of Gaussian 09 at Sun Mar 27 04:05:32 2016.
