 Gaussian 09, Revision B.01,
 Gaussian 09:  EM64L-G09RevB.01 12-Aug-2010

 -------------------------------------------------
 # freq=raman b3lyp/6-31+g(2d,p) geom=connectivity
 -------------------------------------------------

 -----------------
 400 5160/5160.com
 -----------------
 Symbolic Z-matrix:
 Charge =  0 Multiplicity = 1

                         Standard orientation:
 ---------------------------------------------------------------------
 Center     Atomic      Atomic             Coordinates (Angstroms)
 Number     Number       Type             X           Y           Z
 ---------------------------------------------------------------------
      1          8           0       -5.032184   -0.488974    0.596407
      2          6           0       -3.791268   -0.170991   -0.051212
      3          6           0       -3.367319    1.223574    0.380133
      4          8           0       -4.288685    2.234005   -0.054384
      5          1           0       -5.193823    1.809976   -0.088011
      6          6           0       -1.935967    1.493626   -0.054737
      7          8           0       -1.488246    2.854736    0.026120
      8          1           0       -0.572002    2.869430   -0.374870
      9          6           0       -2.774643   -2.603090   -0.201070
     10          8           0       -3.856833   -3.483916    0.134574
     11          1           0       -3.569968   -4.427089   -0.033449
     12          6           0       -2.729800   -1.184955    0.342811
     13          8           0       -1.442129   -0.812114   -0.169388
     14          6           0       -0.917783    0.430044    0.322270
     15          8           0        0.201288    0.677307   -0.541141
     16          6           0        1.484451    0.201586   -0.106695
     17          6           0        2.123642   -1.085971   -0.602221
     18          8           0        1.134096   -2.118515   -0.713626
     19          1           0        0.234204   -1.770032   -0.979209
     20          6           0        3.376436   -1.418703    0.191571
     21          8           0        3.846571   -2.702429   -0.243573
     22          1           0        4.617542   -2.973745    0.332091
     23          6           0        2.257262    2.656825    0.050606
     24          8           0        1.149458    3.318151   -0.576570
     25          1           0        1.100628    4.219476   -0.144794
     26          6           0        2.615668    1.207415   -0.234273
     27          8           0        3.761538    0.891147    0.569583
     28          6           0        4.400224   -0.300192    0.086857
     29          8           0        5.492829   -0.589629    0.970594
     30          1           0        6.301971   -0.676404    0.461321
     31          1           0        4.738351   -0.177109   -0.920824
     32          1           0        3.097020   -1.506710    1.220688
     33          1           0        2.454278   -0.888408   -1.600494
     34          1           0        1.361499    0.052131    0.945657
     35          1           0        2.937779    1.168869   -1.253910
     36          1           0        3.127237    3.236505   -0.177462
     37          1           0        2.097965    2.729694    1.106170
     38          1           0       -5.725135   -0.571842   -0.062798
     39          1           0       -1.870967   -3.085581    0.107917
     40          1           0       -2.750016   -2.529984   -1.268286
     41          1           0       -2.677630   -1.227985    1.410672
     42          1           0       -3.927161   -0.190540   -1.112368
     43          1           0       -3.375484    1.235295    1.450037
     44          1           0       -2.005898    1.355923   -1.113532
     45          1           0       -0.667413    0.414975    1.362457
 ---------------------------------------------------------------------

 SCF Done:  E(RB3LYP) =  -1297.96501862     A.U. after   13 cycles

 The electronic state is 1-A.
 Alpha  occ. eigenvalues --  -19.18917 -19.18767 -19.18725 -19.18282 -19.18018
 Alpha  occ. eigenvalues --  -19.17194 -19.16545 -19.15814 -19.15529 -19.14281
 Alpha  occ. eigenvalues --  -19.13225 -10.31442 -10.30994 -10.26342 -10.25703
 Alpha  occ. eigenvalues --  -10.25584 -10.25530 -10.25390 -10.25004 -10.24881
 Alpha  occ. eigenvalues --  -10.24365 -10.23887 -10.23602  -1.10190  -1.09670
 Alpha  occ. eigenvalues --   -1.05585  -1.05136  -1.04245  -1.04007  -1.03219
 Alpha  occ. eigenvalues --   -1.02214  -1.02004  -1.00738  -0.99847  -0.82800
 Alpha  occ. eigenvalues --   -0.80320  -0.79794  -0.78828  -0.71873  -0.70054
 Alpha  occ. eigenvalues --   -0.67714  -0.65235  -0.62912  -0.62464  -0.62068
 Alpha  occ. eigenvalues --   -0.60516  -0.56862  -0.55925  -0.55279  -0.54814
 Alpha  occ. eigenvalues --   -0.53960  -0.53416  -0.52974  -0.51536  -0.51167
 Alpha  occ. eigenvalues --   -0.50808  -0.50080  -0.49495  -0.48596  -0.46891
 Alpha  occ. eigenvalues --   -0.46079  -0.45196  -0.44994  -0.44074  -0.43572
 Alpha  occ. eigenvalues --   -0.42652  -0.41673  -0.41022  -0.40225  -0.39465
 Alpha  occ. eigenvalues --   -0.38753  -0.38437  -0.37182  -0.36215  -0.35875
 Alpha  occ. eigenvalues --   -0.35781  -0.35119  -0.34728  -0.33932  -0.33659
 Alpha  occ. eigenvalues --   -0.33454  -0.31587  -0.31148  -0.30608  -0.29734
 Alpha  occ. eigenvalues --   -0.29454  -0.28432  -0.28234  -0.27327  -0.26672
 Alpha  occ. eigenvalues --   -0.25985
 Alpha virt. eigenvalues --   -0.02159  -0.01950  -0.01675  -0.00583  -0.00045
 Alpha virt. eigenvalues --    0.00643   0.01682   0.02249   0.02922   0.03027
 Alpha virt. eigenvalues --    0.03807   0.03925   0.04447   0.05161   0.05811

 Mulliken atomic charges:
              1
     1  O   -0.528968
     2  C   -0.119897
     3  C    0.207984
     4  O   -0.536275
     5  H    0.329382
     6  C   -0.005519
     7  O   -0.611620
     8  H    0.415699
     9  C   -0.239489
    10  O   -0.547021
    11  H    0.334647
    12  C    0.178829
    13  O   -0.201923
    14  C    0.351851
    15  O   -0.257806
    16  C    0.284609
    17  C   -0.105028
    18  O   -0.542555
    19  H    0.365351
    20  C    0.176830
    21  O   -0.540125
    22  H    0.337324
    23  C   -0.389849
    24  O   -0.537256
    25  H    0.351627
    26  C    0.054460
    27  O   -0.256725
    28  C    0.142232
    29  O   -0.548937
    30  H    0.337203
    31  H    0.133364
    32  H    0.125779
    33  H    0.105169
    34  H    0.092728
    35  H    0.112429
    36  H    0.148055
    37  H    0.152099
    38  H    0.335158
    39  H    0.153393
    40  H    0.139376
    41  H    0.111300
    42  H    0.123926
    43  H    0.116183
    44  H    0.120907
    45  H    0.131098
 Sum of Mulliken atomic charges =   0.00000

 Dipole moment (field-independent basis, Debye):
    X=              3.1674    Y=             -0.6650    Z=             -0.8905  Tot=              3.3567
 Quadrupole moment (field-independent basis, Debye-Ang):
   XX=           -115.3260   YY=           -141.5421   ZZ=           -140.7783
   XY=             11.7964   XZ=              3.6571   YZ=              0.4774

  Exact polarizability: 233.773  -2.307 197.971   1.400   0.648 144.731
 Approx polarizability: 275.486  -2.729 257.757   1.363   0.159 241.100

 ******    7 imaginary frequencies (negative Signs) ******

                     1                      2                      3
                     A                      A                      A
 Frequencies --  -298.7152              -271.7453              -209.6362
 Red. masses --     1.7246                 1.7502                 1.1772
 Frc consts  --     0.0907                 0.0761                 0.0305
 IR Inten    --     3.2994                 5.6045                94.1113
 Raman Activ --     0.0414                 0.0923                 0.7290

                     4                      5                      6
                     A                      A                      A
 Frequencies --  -204.0521               -73.4752               -41.8390
 Red. masses --     1.2601                 6.8664                 6.8553
 Frc consts  --     0.0309                 0.0218                 0.0071
 IR Inten    --   111.6112                 1.1995                 0.8171
 Raman Activ --     0.7208                 0.0793                 0.0237

                     7                      8                      9
                     A                      A                      A
 Frequencies --   -40.8408                28.1086                57.6841
 Red. masses --     6.1298                 6.3466                 6.7820
 Frc consts  --     0.0060                 0.0030                 0.0133
 IR Inten    --     1.0112                 0.0153                 0.2146
 Raman Activ --     0.0209                 0.0425                 0.1684

                    10                     11                     12
                     A                      A                      A
 Frequencies --    77.6803                83.2616               137.8164
 Red. masses --     7.0954                 6.5316                 6.0134
 Frc consts  --     0.0252                 0.0267                 0.0673
 IR Inten    --     0.2362                 1.6155                 0.8914
 Raman Activ --     0.0644                 0.2111                 0.0526

                    13                     14                     15
                     A                      A                      A
 Frequencies --   148.2199               176.7535               184.7732
 Red. masses --     6.4614                 6.8789                 6.5636
 Frc consts  --     0.0836                 0.1266                 0.1320
 IR Inten    --     2.5639                 0.7181                 3.5330
 Raman Activ --     0.3535                 0.3527                 1.1292

                    16                     17                     18
                     A                      A                      A
 Frequencies --   203.7306               231.9708               264.0130
 Red. masses --     6.6886                 6.3928                 4.1368
 Frc consts  --     0.1636                 0.2027                 0.1699
 IR Inten    --     0.2725                 4.4895                15.7970
 Raman Activ --     1.2092                 1.5910                 0.1400

                    19                     20                     21
                     A                      A                      A
 Frequencies --   276.5930               284.9533               293.3499
 Red. masses --     4.3023                 4.3631                 5.3639
 Frc consts  --     0.1939                 0.2087                 0.2720
 IR Inten    --     4.4849                 0.1545                 3.3686
 Raman Activ --     0.2316                 0.1965                 0.3444

                    22                     23                     24
                     A                      A                      A
 Frequencies --   299.6338               310.5733               330.6431
 Red. masses --     6.1235                 4.7904                 5.5115
 Frc consts  --     0.3239                 0.2722                 0.3550
 IR Inten    --     3.0959                 3.4880                 1.2582
 Raman Activ --     1.5926                 1.8061                 1.6199

                    25                     26                     27
                     A                      A                      A
 Frequencies --   341.2288               353.2461               381.6746
 Red. masses --     7.1581                 4.7005                 5.5876
 Frc consts  --     0.4911                 0.3456                 0.4796
 IR Inten    --     7.6593                 6.7514                 2.2594
 Raman Activ --     6.2525                 0.3419                 0.5762

                    28                     29                     30
                     A                      A                      A
 Frequencies --   400.3085               411.5968               418.0438
 Red. masses --     5.1435                 6.0353                 5.9113
 Frc consts  --     0.4856                 0.6024                 0.6087
 IR Inten    --     8.5219                 2.1635                 7.5543
 Raman Activ --     1.7507                 4.6674                 3.9806

                    31                     32                     33
                     A                      A                      A
 Frequencies --   438.3966               474.4597               486.7195
 Red. masses --     4.3596                 4.4733                 4.3373
 Frc consts  --     0.4937                 0.5933                 0.6054
 IR Inten    --     1.6831                 6.2311                16.3162
 Raman Activ --     3.4792                 2.3424                 1.0416

                    34                     35                     36
                     A                      A                      A
 Frequencies --   505.8380               508.6508               566.6660
 Red. masses --     3.0742                 4.1693                 4.8123
 Frc consts  --     0.4635                 0.6356                 0.9105
 IR Inten    --     6.4725                10.8584                13.9993
 Raman Activ --     4.3177                 3.0745                 1.1653

                    37                     38                     39
                     A                      A                      A
 Frequencies --   582.4579               596.7850               610.8593
 Red. masses --     3.1845                 6.0742                 5.0463
 Frc consts  --     0.6365                 1.2746                 1.1094
 IR Inten    --    26.5123                 9.3805                25.7210
 Raman Activ --     0.9348                 1.3266                 0.5556

                    40                     41                     42
                     A                      A                      A
 Frequencies --   632.1557               676.8770               683.7533
 Red. masses --     3.5604                 4.2538                 1.0776
 Frc consts  --     0.8383                 1.1483                 0.2968
 IR Inten    --    23.6361                32.4018               112.5528
 Raman Activ --     0.4815                 1.6434                 2.7740

                    43                     44                     45
                     A                      A                      A
 Frequencies --   693.2021               695.7533               728.7356
 Red. masses --     1.0710                 1.1266                 1.0819
 Frc consts  --     0.3032                 0.3213                 0.3385
 IR Inten    --    13.2371               187.6160               115.5646
 Raman Activ --     1.3943                 2.4701                 1.3498

                    46                     47                     48
                     A                      A                      A
 Frequencies --   741.1977               840.3201               840.7531
 Red. masses --     1.0747                 1.2516                 1.5679
 Frc consts  --     0.3479                 0.5207                 0.6530
 IR Inten    --    98.4357                74.1297                33.6675
 Raman Activ --     1.7814                 1.0535                 1.9430

                    49                     50                     51
                     A                      A                      A
 Frequencies --   873.8098               920.7256               950.4778
 Red. masses --     1.7309                 5.5756                 5.1566
 Frc consts  --     0.7787                 2.7849                 2.7447
 IR Inten    --    32.1793                80.5316                45.7615
 Raman Activ --     1.2262                 1.9618                 1.3553

                    52                     53                     54
                     A                      A                      A
 Frequencies --   963.6163               975.9124               984.0575
 Red. masses --     6.2597                 5.0269                 4.7347
 Frc consts  --     3.4246                 2.8208                 2.7014
 IR Inten    --   123.6015                88.1741               264.1809
 Raman Activ --     1.6047                 2.1865                 0.9252

                    55                     56                     57
                     A                      A                      A
 Frequencies --   990.2460              1005.5086              1015.1144
 Red. masses --     6.9818                 7.0107                 5.3704
 Frc consts  --     4.0337                 4.1762                 3.2605
 IR Inten    --   109.0081                19.3096               149.3440
 Raman Activ --     0.6184                 2.4976                 1.9904

                    58                     59                     60
                     A                      A                      A
 Frequencies --  1029.0032              1050.0881              1063.2208
 Red. masses --     7.1796                 3.9921                 4.5551
 Frc consts  --     4.4790                 2.5936                 3.0338
 IR Inten    --   391.1071                50.4637                34.0929
 Raman Activ --     2.1089                 8.9463                 3.3879

                    61                     62                     63
                     A                      A                      A
 Frequencies --  1073.0783              1079.8271              1086.5147
 Red. masses --     3.8812                 4.9203                 6.1353
 Frc consts  --     2.6332                 3.3803                 4.2673
 IR Inten    --    18.0589                70.6262               121.8295
 Raman Activ --    15.9387                 6.0920                 5.9472

                    64                     65                     66
                     A                      A                      A
 Frequencies --  1090.8805              1099.4901              1105.2011
 Red. masses --     2.6864                 2.4120                 2.7030
 Frc consts  --     1.8835                 1.7180                 1.9453
 IR Inten    --    34.3955                44.6497                19.4514
 Raman Activ --     9.3500                 3.5036                 6.1865

                    67                     68                     69
                     A                      A                      A
 Frequencies --  1120.1699              1133.2718              1142.7221
 Red. masses --     3.2542                 2.5200                 2.5208
 Frc consts  --     2.4058                 1.9069                 1.9394
 IR Inten    --    18.1869                41.6617                49.6713
 Raman Activ --     6.6078                 5.7161                 3.7550

                    70                     71                     72
                     A                      A                      A
 Frequencies --  1147.0321              1156.1711              1160.3877
 Red. masses --     2.0193                 1.6518                 2.2206
 Frc consts  --     1.5653                 1.3009                 1.7617
 IR Inten    --    26.7661                 3.7590                44.8723
 Raman Activ --     3.5656                 1.8550                 2.0235

                    73                     74                     75
                     A                      A                      A
 Frequencies --  1174.2641              1190.5173              1206.0053
 Red. masses --     2.8753                 1.7666                 1.9010
 Frc consts  --     2.3359                 1.4752                 1.6290
 IR Inten    --    89.0797                 8.9681                 9.0073
 Raman Activ --     3.5814                 2.7315                 1.8353

                    76                     77                     78
                     A                      A                      A
 Frequencies --  1207.7626              1213.4775              1219.4517
 Red. masses --     1.2879                 1.3341                 1.4835
 Frc consts  --     1.1069                 1.1574                 1.2997
 IR Inten    --    14.9831                 8.8370                 6.0227
 Raman Activ --     0.8101                 3.6389                 3.4924

                    79                     80                     81
                     A                      A                      A
 Frequencies --  1247.1577              1250.1414              1268.5138
 Red. masses --     1.2320                 1.3617                 1.3647
 Frc consts  --     1.1290                 1.2539                 1.2938
 IR Inten    --    20.4799                 5.3091                15.5106
 Raman Activ --     1.4115                 1.9527                 2.3898

                    82                     83                     84
                     A                      A                      A
 Frequencies --  1273.8585              1297.8727              1300.2447
 Red. masses --     1.3913                 1.3333                 1.2918
 Frc consts  --     1.3302                 1.3233                 1.2868
 IR Inten    --     6.4887                19.6428                18.9264
 Raman Activ --     2.5041                 1.7053                 3.1252

                    85                     86                     87
                     A                      A                      A
 Frequencies --  1303.7433              1306.4608              1324.8237
 Red. masses --     1.1866                 1.2624                 1.3118
 Frc consts  --     1.1883                 1.2695                 1.3566
 IR Inten    --     3.9194                14.6978                20.2128
 Raman Activ --     3.4513                 3.4467                 1.1157

                    88                     89                     90
                     A                      A                      A
 Frequencies --  1326.6850              1332.5633              1339.2036
 Red. masses --     1.2957                 1.2444                 1.0863
 Frc consts  --     1.3437                 1.3020                 1.1478
 IR Inten    --    15.9297                 6.6910                51.9734
 Raman Activ --     8.8664                 7.4623                 3.1224

                    91                     92                     93
                     A                      A                      A
 Frequencies --  1354.8794              1360.3372              1363.8407
 Red. masses --     1.2008                 1.3306                 1.3469
 Frc consts  --     1.2988                 1.4508                 1.4761
 IR Inten    --    16.0437                 6.5350                34.3779
 Raman Activ --     4.1785                 3.7587                 4.8571

                    94                     95                     96
                     A                      A                      A
 Frequencies --  1368.3156              1374.9995              1392.7563
 Red. masses --     1.3027                 1.2923                 1.1256
 Frc consts  --     1.4370                 1.4395                 1.2864
 IR Inten    --    15.4824                 8.9173                23.0316
 Raman Activ --     9.5163                 0.3982                 1.7743

                    97                     98                     99
                     A                      A                      A
 Frequencies --  1396.3949              1397.7492              1421.7062
 Red. masses --     1.4449                 1.5148                 1.2839
 Frc consts  --     1.6600                 1.7437                 1.5290
 IR Inten    --     6.9930                 3.5805                21.3297
 Raman Activ --     6.7303                 3.7227                 2.7971

                   100                    101                    102
                     A                      A                      A
 Frequencies --  1438.8037              1442.6089              1451.1979
 Red. masses --     1.2073                 1.3957                 1.4231
 Frc consts  --     1.4726                 1.7113                 1.7658
 IR Inten    --    20.1992                30.4971                43.9850
 Raman Activ --     3.7986                 1.7405                 3.5377

                   103                    104                    105
                     A                      A                      A
 Frequencies --  1468.4759              1474.3098              1476.0554
 Red. masses --     1.3515                 1.1094                 1.0755
 Frc consts  --     1.7171                 1.4207                 1.3806
 IR Inten    --     7.7916                 5.2135                 6.2862
 Raman Activ --     1.6368                 2.8319                 4.6924

                   106                    107                    108
                     A                      A                      A
 Frequencies --  1488.7948              1538.3425              3246.5789
 Red. masses --     1.3887                 1.2407                 1.0779
 Frc consts  --     1.8135                 1.7299                 6.6938
 IR Inten    --    18.2437                52.6719                53.6256
 Raman Activ --     0.6631                 1.6537                94.2927

                   109                    110                    111
                     A                      A                      A
 Frequencies --  3247.8481              3253.8593              3256.0101
 Red. masses --     1.0810                 1.0790                 1.0604
 Frc consts  --     6.7186                 6.7309                 6.6234
 IR Inten    --    15.8900                 7.7652               138.6545
 Raman Activ --     3.2892               120.1611                72.4302

                   112                    113                    114
                     A                      A                      A
 Frequencies --  3256.9833              3267.0796              3270.5060
 Red. masses --     1.0581                 1.0826                 1.0845
 Frc consts  --     6.6132                 6.8080                 6.8345
 IR Inten    --    33.2442                28.9367                21.9586
 Raman Activ --   105.1859                15.2767                50.5128

                   115                    116                    117
                     A                      A                      A
 Frequencies --  3275.5709              3277.4217              3282.2063
 Red. masses --     1.0694                 1.0823                 1.0840
 Frc consts  --     6.7606                 6.8497                 6.8806
 IR Inten    --   503.5689                12.1628                 2.8780
 Raman Activ --   197.6778                83.2762               105.0470

                   118                    119                    120
                     A                      A                      A
 Frequencies --  3293.6619              3296.5199              3299.2393
 Red. masses --     1.0873                 1.0878                 1.0873
 Frc consts  --     6.9497                 6.9650                 6.9734
 IR Inten    --    19.0482                44.1321                72.5287
 Raman Activ --    29.6977                18.0914                32.9406

                   121                    122                    123
                     A                      A                      A
 Frequencies --  3308.0165              3312.1765              3337.2027
 Red. masses --     1.1048                 1.1045                 1.0678
 Frc consts  --     7.1234                 7.1394                 7.0064
 IR Inten    --    67.3631                48.0004               273.3079
 Raman Activ --    58.4205                21.6459               124.9445

                   124                    125                    126
                     A                      A                      A
 Frequencies --  3364.2566              3364.6141              3368.3382
 Red. masses --     1.0662                 1.0655                 1.0677
 Frc consts  --     7.1099                 7.1066                 7.1373
 IR Inten    --    72.7004                26.6031                48.0250
 Raman Activ --   105.3838                95.4861               148.6796

                   127                    128                    129
                     A                      A                      A
 Frequencies --  3376.8102              3886.4221              3894.3279
 Red. masses --     1.0660                 1.0677                 1.0674
 Frc consts  --     7.1619                 9.5016                 9.5380
 IR Inten    --    39.4052                69.8057                86.9094
 Raman Activ --   141.7882                95.2345               116.9529

 - Thermochemistry -
 -------------------
 Temperature   298.150 Kelvin.  Pressure   1.00000 Atm.
 Atom     1 has atomic number  8 and mass  15.99491

 Molecular mass:   342.11621 amu.
 Principal axes and moments of inertia in atomic units:
                           1         2         3
     Eigenvalues --  4567.72846********************
           X            0.99998   0.00706   0.00012
           Y           -0.00706   0.99997   0.00154
           Z           -0.00011  -0.00154   1.00000
 This molecule is an asymmetric top.
 Rotational symmetry number  1.
 Warning -- assumption of classical behavior for rotation
           may cause significant error
 Rotational temperatures (Kelvin)      0.01896     0.00701     0.00529
 Rotational constants (GHZ):           0.39511     0.14613     0.11025
    7 imaginary frequencies ignored.
 Zero-point vibrational energy     974621.1 (Joules/Mol)
                                  232.94004 (Kcal/Mol)
 Warning -- explicit consideration of  32 degrees of freedom as
           vibrations may cause significant error
 Vibrational temperatures:     40.44    82.99   111.76   119.79   198.29
          (Kelvin)            213.26   254.31   265.85   293.12   333.75
                              379.86   397.96   409.98   422.06   431.11
                              446.85   475.72   490.95   508.24   549.14
                              575.95   592.20   601.47   630.75   682.64
                              700.28   727.79   731.83   815.30   838.03
                              858.64   878.89   909.53   973.87   983.77
                              997.36  1001.03  1048.49  1066.42  1209.03
                             1209.65  1257.22  1324.72  1367.52  1386.43
                             1404.12  1415.84  1424.74  1446.70  1460.52
                             1480.50  1510.84  1529.74  1543.92  1553.63
                             1563.25  1569.53  1581.92  1590.14  1611.67
                             1630.52  1644.12  1650.32  1663.47  1669.54
                             1689.50  1712.89  1735.17  1737.70  1745.92
                             1754.52  1794.38  1798.67  1825.11  1832.80
                             1867.35  1870.76  1875.79  1879.70  1906.12
                             1908.80  1917.26  1926.81  1949.37  1957.22
                             1962.26  1968.70  1978.32  2003.86  2009.10
                             2011.05  2045.52  2070.12  2075.59  2087.95
                             2112.81  2121.20  2123.71  2142.04  2213.33
                             4671.10  4672.92  4681.57  4684.67  4686.07
                             4700.59  4705.52  4712.81  4715.47  4722.36
                             4738.84  4742.95  4746.86  4759.49  4765.48
                             4801.48  4840.41  4840.92  4846.28  4858.47
                             5591.69  5603.06

 Zero-point correction=                           0.371214 (Hartree/Particle)
 Thermal correction to Energy=                    0.389721
 Thermal correction to Enthalpy=                  0.390666
 Thermal correction to Gibbs Free Energy=         0.325064
 Sum of electronic and zero-point Energies=          -1297.593805
 Sum of electronic and thermal Energies=             -1297.575297
 Sum of electronic and thermal Enthalpies=           -1297.574353
 Sum of electronic and thermal Free Energies=        -1297.639955

                     E (Thermal)             CV                S
                      KCal/Mol        Cal/Mol-Kelvin    Cal/Mol-Kelvin
 Total                  244.554             76.244            138.070
 Electronic               0.000              0.000              0.000
 Translational            0.889              2.981             43.384
 Rotational               0.889              2.981             35.178
 Vibrational            242.776             70.282             59.508
 Vibration     1          0.593              1.984              5.959
 Vibration     2          0.596              1.974              4.535
 Vibration     3          0.599              1.964              3.949
 Vibration     4          0.600              1.961              3.812
 Vibration     5          0.614              1.916              2.834
 Vibration     6          0.618              1.905              2.695
 Vibration     7          0.628              1.871              2.362
 Vibration     8          0.631              1.861              2.280
 Vibration     9          0.639              1.835              2.099
 Vibration    10          0.653              1.792              1.864
 Vibration    11          0.671              1.739              1.635
 Vibration    12          0.678              1.717              1.555
 Vibration    13          0.683              1.702              1.504
 Vibration    14          0.688              1.686              1.455
 Vibration    15          0.692              1.674              1.419
 Vibration    16          0.699              1.654              1.359
 Vibration    17          0.713              1.614              1.257
 Vibration    18          0.721              1.593              1.206
 Vibration    19          0.729              1.569              1.152
 Vibration    20          0.751              1.509              1.033
 Vibration    21          0.766              1.469              0.962
 Vibration    22          0.776              1.445              0.921
 Vibration    23          0.781              1.431              0.899
 Vibration    24          0.799              1.386              0.832
 Vibration    25          0.831              1.307              0.725
 Vibration    26          0.843              1.279              0.692
 Vibration    27          0.861              1.237              0.644
 Vibration    28          0.864              1.231              0.637
 Vibration    29          0.923              1.103              0.511
 Vibration    30          0.939              1.069              0.481
 Vibration    31          0.955              1.039              0.455
 Vibration    32          0.970              1.009              0.431

 Normal termination of Gaussian 09 at Fri Mar 25 23:03:22 2016.
