 Gaussian 09, Revision B.01,
 Gaussian 09:  EM64L-G09RevB.01 12-Aug-2010

 -------------------------------------------------
 # freq=raman b3lyp/6-31+g(2d,p) geom=connectivity
 -------------------------------------------------

 -----------------
 550 9511/9511.com
 -----------------
 Symbolic Z-matrix:
 Charge =  0 Multiplicity = 1

                         Standard orientation:
 ---------------------------------------------------------------------
 Center     Atomic      Atomic             Coordinates (Angstroms)
 Number     Number       Type             X           Y           Z
 ---------------------------------------------------------------------
      1          8           0        5.058822   -0.487113    0.145959
      2          6           0        3.716201   -0.032143    0.371330
      3          6           0        3.372844    1.169358   -0.494419
      4          8           0        4.414601    2.148703   -0.610604
      5          1           0        5.287134    1.795599   -0.274913
      6          6           0        1.989574    1.615778   -0.049150
      7          8           0        1.528005    2.771713   -0.763847
      8          1           0        2.279411    3.411805   -0.923827
      9          6           0        2.989414   -2.401296    0.766762
     10          8           0        2.155880   -3.529532    0.462986
     11          1           0        2.648968   -4.337293    0.784749
     12          6           0        2.754135   -1.134951   -0.040307
     13          8           0        1.404839   -0.758999    0.272732
     14          6           0        1.060218    0.463095   -0.394668
     15          8           0       -0.122492    0.624320    0.401592
     16          6           0       -1.399254    0.299357   -0.166546
     17          6           0       -1.750874   -1.174929   -0.063467
     18          8           0       -0.793211   -1.983207   -0.762189
     19          1           0        0.065663   -1.760575   -0.300837
     20          6           0       -3.177911   -1.551265   -0.427146
     21          8           0       -3.265376   -2.978983   -0.310228
     22          1           0       -2.762081   -3.285673   -1.116879
     23          6           0       -2.298693    2.662041    0.145483
     24          8           0       -2.765622    3.729283    0.983149
     25          1           0       -2.888387    3.390644    1.916183
     26          6           0       -2.447530    1.187582    0.484055
     27          8           0       -3.685836    0.775960   -0.114104
     28          6           0       -4.053187   -0.546390    0.303659
     29          8           0       -5.328653   -0.629189   -0.347520
     30          1           0       -6.017718   -0.355901    0.262483
     31          1           0        5.572286   -0.379732    0.949964
     32          1           0        2.854570   -2.161888    1.800880
     33          1           0        4.007820   -2.697220    0.624709
     34          1           0        2.848578   -1.339202   -1.086376
     35          1           0        3.578110    0.208307    1.404778
     36          1           0        3.242583    0.783887   -1.484038
     37          1           0        1.978276    1.799436    1.004910
     38          1           0        0.858439    0.347248   -1.439065
     39          1           0       -2.770574    2.799645   -0.804934
     40          1           0       -1.252113    2.831427    0.000991
     41          1           0       -2.470138    1.038869    1.543429
     42          1           0       -4.096099   -0.678086    1.364656
     43          1           0       -3.295737   -1.337099   -1.468851
     44          1           0       -1.642935   -1.424688    0.971362
     45          1           0       -1.363316    0.549414   -1.206296
 ---------------------------------------------------------------------

 SCF Done:  E(RB3LYP) =  -1297.96597122     A.U. after   13 cycles

 The electronic state is 1-A.
 Alpha  occ. eigenvalues --  -19.19855 -19.19297 -19.18177 -19.17312 -19.16778
 Alpha  occ. eigenvalues --  -19.16532 -19.16295 -19.15254 -19.14992 -19.14611
 Alpha  occ. eigenvalues --  -19.13551 -10.31256 -10.29487 -10.27653 -10.26623
 Alpha  occ. eigenvalues --  -10.26424 -10.26381 -10.24674 -10.24484 -10.24246
 Alpha  occ. eigenvalues --  -10.23479 -10.22673 -10.21839  -1.11336  -1.08000
 Alpha  occ. eigenvalues --   -1.07821  -1.04983  -1.03830  -1.03143  -1.02768
 Alpha  occ. eigenvalues --   -1.02319  -1.01314  -1.00396  -0.99725  -0.83502
 Alpha  occ. eigenvalues --   -0.81946  -0.78148  -0.77890  -0.71928  -0.69365
 Alpha  occ. eigenvalues --   -0.67294  -0.64507  -0.63824  -0.63241  -0.61974
 Alpha  occ. eigenvalues --   -0.59981  -0.57617  -0.55899  -0.55203  -0.54492
 Alpha  occ. eigenvalues --   -0.53771  -0.53522  -0.52398  -0.52094  -0.51089
 Alpha  occ. eigenvalues --   -0.50017  -0.49690  -0.48836  -0.48557  -0.46873
 Alpha  occ. eigenvalues --   -0.45876  -0.44577  -0.44224  -0.43792  -0.43418
 Alpha  occ. eigenvalues --   -0.42699  -0.41941  -0.40394  -0.40200  -0.39623
 Alpha  occ. eigenvalues --   -0.38631  -0.37699  -0.37494  -0.37422  -0.36607
 Alpha  occ. eigenvalues --   -0.35807  -0.35335  -0.34282  -0.33529  -0.33203
 Alpha  occ. eigenvalues --   -0.32676  -0.31867  -0.31154  -0.29906  -0.29802
 Alpha  occ. eigenvalues --   -0.29690  -0.29305  -0.28171  -0.26969  -0.26447
 Alpha  occ. eigenvalues --   -0.25966
 Alpha virt. eigenvalues --   -0.04087  -0.01865  -0.00807  -0.00492   0.00462
 Alpha virt. eigenvalues --    0.01359   0.01519   0.02145   0.02324   0.02986
 Alpha virt. eigenvalues --    0.03742   0.04370   0.05200   0.05316   0.05498

 Mulliken atomic charges:
              1
     1  O   -0.546342
     2  C   -0.193861
     3  C   -0.030163
     4  O   -0.589082
     5  H    0.344064
     6  C    0.389387
     7  O   -0.569065
     8  H    0.360820
     9  C   -0.431239
    10  O   -0.517510
    11  H    0.339398
    12  C    0.446928
    13  O   -0.241570
    14  C    0.001864
    15  O   -0.247439
    16  C    0.232190
    17  C    0.310382
    18  O   -0.601450
    19  H    0.403871
    20  C   -0.328624
    21  O   -0.509027
    22  H    0.349770
    23  C   -0.308284
    24  O   -0.472698
    25  H    0.308387
    26  C   -0.022246
    27  O   -0.210311
    28  C    0.299254
    29  O   -0.498996
    30  H    0.317791
    31  H    0.340017
    32  H    0.139346
    33  H    0.150066
    34  H    0.124505
    35  H    0.127374
    36  H    0.115048
    37  H    0.133900
    38  H    0.163514
    39  H    0.157817
    40  H    0.167972
    41  H    0.102834
    42  H    0.132467
    43  H    0.130563
    44  H    0.112730
    45  H    0.115649
 Sum of Mulliken atomic charges =   0.00000

 Dipole moment (field-independent basis, Debye):
    X=              7.3487    Y=             -0.8178    Z=              4.0517  Tot=              8.4314
 Quadrupole moment (field-independent basis, Debye-Ang):
   XX=           -120.0039   YY=           -154.7120   ZZ=           -128.8358
   XY=             -6.6491   XZ=              1.8043   YZ=             -0.4354

  Exact polarizability: 223.443   2.687 199.686   0.389  -0.165 148.667
 Approx polarizability: 266.556   1.058 260.460   0.916  -0.671 246.481

 ******    7 imaginary frequencies (negative Signs) ******

                     1                      2                      3
                     A                      A                      A
 Frequencies --  -261.3209              -249.2691              -238.4146
 Red. masses --     1.7668                 1.7916                 1.0885
 Frc consts  --     0.0711                 0.0656                 0.0365
 IR Inten    --     9.7369                 3.5731                92.9637
 Raman Activ --     0.2360                 0.0572                 1.5837

                     4                      5                      6
                     A                      A                      A
 Frequencies --   -90.6705               -70.5589               -42.7464
 Red. masses --     1.4565                 5.2337                 6.5194
 Frc consts  --     0.0071                 0.0154                 0.0070
 IR Inten    --    92.3458                 4.8511                 1.0782
 Raman Activ --     0.6335                 0.0784                 0.2008

                     7                      8                      9
                     A                      A                      A
 Frequencies --   -18.6822                47.5510                73.9785
 Red. masses --     6.1381                 6.4666                 6.4410
 Frc consts  --     0.0013                 0.0086                 0.0208
 IR Inten    --     2.4679                 0.9889                 1.0097
 Raman Activ --     0.1416                 0.0430                 0.1138

                    10                     11                     12
                     A                      A                      A
 Frequencies --    98.3222               101.0280               121.2023
 Red. masses --     6.8557                 5.8179                 6.8723
 Frc consts  --     0.0390                 0.0350                 0.0595
 IR Inten    --     1.2343                 2.0123                 0.0606
 Raman Activ --     0.2163                 0.0329                 0.1200

                    13                     14                     15
                     A                      A                      A
 Frequencies --   125.3348               161.9266               170.0578
 Red. masses --     5.6121                 5.8925                 5.8701
 Frc consts  --     0.0519                 0.0910                 0.1000
 IR Inten    --     1.4918                 1.4316                 2.1384
 Raman Activ --     0.5304                 0.1139                 0.6461

                    16                     17                     18
                     A                      A                      A
 Frequencies --   189.5344               221.9098               268.2221
 Red. masses --     6.3449                 5.9684                 5.2721
 Frc consts  --     0.1343                 0.1732                 0.2235
 IR Inten    --     1.2954                 0.3130                 2.5116
 Raman Activ --     1.0120                 1.6704                 0.1794

                    19                     20                     21
                     A                      A                      A
 Frequencies --   270.4905               288.4531               298.8063
 Red. masses --     6.4173                 4.6919                 4.8763
 Frc consts  --     0.2766                 0.2300                 0.2565
 IR Inten    --     2.9675                 5.7035                 9.3481
 Raman Activ --     0.8263                 0.2336                 0.9703

                    22                     23                     24
                     A                      A                      A
 Frequencies --   305.9798               313.5896               337.2030
 Red. masses --     4.7616                 4.2801                 6.0721
 Frc consts  --     0.2627                 0.2480                 0.4068
 IR Inten    --     2.8759                 1.0329                 2.3963
 Raman Activ --     3.0768                 1.2489                 1.8742

                    25                     26                     27
                     A                      A                      A
 Frequencies --   341.8735               367.9139               380.8196
 Red. masses --     4.7580                 4.8166                 5.5168
 Frc consts  --     0.3276                 0.3841                 0.4714
 IR Inten    --     6.2736                 5.5829                 2.3928
 Raman Activ --     4.4172                 1.3286                 1.3326

                    28                     29                     30
                     A                      A                      A
 Frequencies --   417.5279               424.3606               440.4806
 Red. masses --     4.7957                 5.5625                 5.6272
 Frc consts  --     0.4926                 0.5902                 0.6433
 IR Inten    --     8.9252                 4.2258                 4.8392
 Raman Activ --     5.1916                 2.0634                 1.5019

                    31                     32                     33
                     A                      A                      A
 Frequencies --   446.1131               477.1114               511.0382
 Red. masses --     5.3148                 3.6382                 4.1279
 Frc consts  --     0.6232                 0.4880                 0.6352
 IR Inten    --     1.9300                13.0857                 9.7774
 Raman Activ --     3.5998                 0.5537                 0.5457

                    34                     35                     36
                     A                      A                      A
 Frequencies --   540.3911               542.5188               568.8597
 Red. masses --     3.3727                 3.9996                 3.8494
 Frc consts  --     0.5803                 0.6936                 0.7339
 IR Inten    --    22.0629                13.7538                13.3827
 Raman Activ --     4.2592                 1.1608                 3.9907

                    37                     38                     39
                     A                      A                      A
 Frequencies --   591.2184               605.0626               620.5378
 Red. masses --     3.2237                 2.7582                 2.3548
 Frc consts  --     0.6639                 0.5949                 0.5342
 IR Inten    --    21.9331                10.2576                 8.2926
 Raman Activ --     0.8208                 0.6589                 0.5452

                    40                     41                     42
                     A                      A                      A
 Frequencies --   625.1108               630.0781               659.3327
 Red. masses --     1.0968                 2.3406                 1.5709
 Frc consts  --     0.2525                 0.5475                 0.4023
 IR Inten    --    83.6604                15.5853               132.8079
 Raman Activ --     1.0025                 1.3483                 0.6179

                    43                     44                     45
                     A                      A                      A
 Frequencies --   664.8376               683.6533               696.8429
 Red. masses --     1.2556                 4.1107                 1.0824
 Frc consts  --     0.3270                 1.1320                 0.3097
 IR Inten    --    88.7129                 3.5424               108.2178
 Raman Activ --     1.3526                 0.1538                 1.6377

                    46                     47                     48
                     A                      A                      A
 Frequencies --   707.7464               852.0848               857.7164
 Red. masses --     1.0804                 2.1318                 2.6296
 Frc consts  --     0.3188                 0.9119                 1.1398
 IR Inten    --    97.4583                68.7834                 2.8661
 Raman Activ --     1.6059                 5.0339                 4.1759

                    49                     50                     51
                     A                      A                      A
 Frequencies --   880.6913               919.2396               952.6098
 Red. masses --     1.2566                 6.4143                 6.2896
 Frc consts  --     0.5742                 3.1934                 3.3628
 IR Inten    --    54.1884               127.5447               220.7925
 Raman Activ --     2.5495                 3.6304                 1.2862

                    52                     53                     54
                     A                      A                      A
 Frequencies --   968.3814               981.7318               982.6253
 Red. masses --     4.9647                 4.5147                 4.4509
 Frc consts  --     2.7431                 2.5637                 2.5321
 IR Inten    --    64.8293                79.2306               111.7830
 Raman Activ --     3.8375                 5.9323                 0.5643

                    55                     56                     57
                     A                      A                      A
 Frequencies --   994.4607              1015.0203              1020.6185
 Red. masses --     4.4467                 4.4778                 4.8186
 Frc consts  --     2.5910                 2.7181                 2.9573
 IR Inten    --    11.4670               190.6657                18.8719
 Raman Activ --     3.1249                 0.4987                 0.4925

                    58                     59                     60
                     A                      A                      A
 Frequencies --  1035.0962              1055.3129              1057.1089
 Red. masses --     3.8226                 6.0432                 3.0043
 Frc consts  --     2.4131                 3.9653                 1.9780
 IR Inten    --   244.2091                44.9245                42.1518
 Raman Activ --     2.2410                15.7699                 2.1389

                    61                     62                     63
                     A                      A                      A
 Frequencies --  1063.1023              1077.7246              1082.1596
 Red. masses --     2.6347                 4.8291                 2.9791
 Frc consts  --     1.7544                 3.3047                 2.0555
 IR Inten    --   109.8171               131.3098                19.5517
 Raman Activ --    20.3542                 3.3050                 5.7572

                    64                     65                     66
                     A                      A                      A
 Frequencies --  1094.4025              1101.8847              1103.2153
 Red. masses --     3.4418                 2.6338                 2.3197
 Frc consts  --     2.4288                 1.8841                 1.6634
 IR Inten    --    90.8379                 5.7553                35.2773
 Raman Activ --     2.5063                 5.7335                 5.2514

                    67                     68                     69
                     A                      A                      A
 Frequencies --  1110.5904              1126.4245              1129.8810
 Red. masses --     3.0548                 2.0309                 1.8380
 Frc consts  --     2.2199                 1.5183                 1.3825
 IR Inten    --    14.7888                25.5512                51.0897
 Raman Activ --     2.5510                 2.1990                 6.1122

                    70                     71                     72
                     A                      A                      A
 Frequencies --  1137.1327              1140.8729              1150.5569
 Red. masses --     2.2421                 2.1513                 2.4127
 Frc consts  --     1.7082                 1.6498                 1.8818
 IR Inten    --     7.1129                34.0766                80.9682
 Raman Activ --     1.5561                 3.8348                 8.1142

                    73                     74                     75
                     A                      A                      A
 Frequencies --  1156.0299              1167.5582              1170.2242
 Red. masses --     2.5765                 2.7481                 1.9117
 Frc consts  --     2.0287                 2.2072                 1.5425
 IR Inten    --     8.7116                 4.7630                 1.5900
 Raman Activ --     3.7506                 3.9129                 1.1729

                    76                     77                     78
                     A                      A                      A
 Frequencies --  1187.5803              1198.8509              1215.0771
 Red. masses --     1.4083                 1.2799                 1.4040
 Frc consts  --     1.1702                 1.0838                 1.2213
 IR Inten    --    25.2775                 7.0915                11.8213
 Raman Activ --     2.9000                 2.6589                 3.7088

                    79                     80                     81
                     A                      A                      A
 Frequencies --  1217.9921              1225.5028              1251.4129
 Red. masses --     1.7204                 1.2952                 1.4051
 Frc consts  --     1.5037                 1.1461                 1.2965
 IR Inten    --     3.8606                13.7675                13.6852
 Raman Activ --     1.2202                 0.9931                 0.2078

                    82                     83                     84
                     A                      A                      A
 Frequencies --  1263.4730              1266.7935              1284.5541
 Red. masses --     1.2974                 1.2373                 1.2899
 Frc consts  --     1.2203                 1.1699                 1.2541
 IR Inten    --     3.3289                 6.3329                47.4215
 Raman Activ --     4.5664                 4.3060                 5.2422

                    85                     86                     87
                     A                      A                      A
 Frequencies --  1297.1856              1302.3604              1311.8895
 Red. masses --     1.3095                 1.2955                 1.2210
 Frc consts  --     1.2982                 1.2947                 1.2381
 IR Inten    --     6.5861                 3.5979                31.2255
 Raman Activ --     0.6280                 3.9703                 9.3671

                    88                     89                     90
                     A                      A                      A
 Frequencies --  1312.4719              1321.6725              1330.6138
 Red. masses --     1.3446                 1.4039                 1.2752
 Frc consts  --     1.3647                 1.4449                 1.3303
 IR Inten    --    10.8140                 8.4691                16.4830
 Raman Activ --     0.7083                 1.9950                 1.6856

                    91                     92                     93
                     A                      A                      A
 Frequencies --  1332.1777              1348.6509              1354.9017
 Red. masses --     1.4693                 1.3389                 1.3502
 Frc consts  --     1.5364                 1.4349                 1.4603
 IR Inten    --     7.8888                17.0953                18.7927
 Raman Activ --     6.0906                 7.1827                 4.6195

                    94                     95                     96
                     A                      A                      A
 Frequencies --  1359.5453              1365.2703              1380.7443
 Red. masses --     1.2944                 1.3879                 1.1813
 Frc consts  --     1.4096                 1.5243                 1.3269
 IR Inten    --    11.9591                17.9420                29.4194
 Raman Activ --     7.5642                 1.4825                 2.9181

                    97                     98                     99
                     A                      A                      A
 Frequencies --  1384.8183              1388.0465              1402.9458
 Red. masses --     1.2838                 1.3822                 1.5536
 Frc consts  --     1.4506                 1.5690                 1.8016
 IR Inten    --    12.9063                 4.6504                33.3725
 Raman Activ --     1.3250                 5.8511                 1.6604

                   100                    101                    102
                     A                      A                      A
 Frequencies --  1410.5032              1432.1878              1447.9819
 Red. masses --     1.1422                 1.4236                 1.2289
 Frc consts  --     1.3389                 1.7205                 1.5180
 IR Inten    --    15.8086                76.3360                62.5913
 Raman Activ --     2.8611                 2.2196                 2.3520

                   103                    104                    105
                     A                      A                      A
 Frequencies --  1463.6953              1471.0369              1475.1205
 Red. masses --     1.1470                 1.2615                 1.0602
 Frc consts  --     1.4478                 1.6084                 1.3593
 IR Inten    --     7.3191                13.8575                13.4341
 Raman Activ --     2.5639                 3.1372                 3.4569

                   106                    107                    108
                     A                      A                      A
 Frequencies --  1500.0227              1527.2565              3257.5354
 Red. masses --     1.3225                 1.2567                 1.0746
 Frc consts  --     1.7533                 1.7271                 6.7183
 IR Inten    --    24.8896                47.1477               124.3886
 Raman Activ --     2.8199                 1.7505                42.7395

                   109                    110                    111
                     A                      A                      A
 Frequencies --  3258.7352              3260.8492              3269.9431
 Red. masses --     1.0660                 1.0785                 1.0690
 Frc consts  --     6.6699                 6.7566                 6.7345
 IR Inten    --    23.7161                 4.9097                 1.0184
 Raman Activ --   102.0756                96.6009               174.3337

                   112                    113                    114
                     A                      A                      A
 Frequencies --  3272.8824              3277.1188              3280.8889
 Red. masses --     1.0745                 1.0699                 1.0835
 Frc consts  --     6.7811                 6.7698                 6.8717
 IR Inten    --    22.3596               486.3254                 5.8439
 Raman Activ --    29.4517                87.7778                48.2882

                   115                    116                    117
                     A                      A                      A
 Frequencies --  3283.3186              3288.1140              3290.8359
 Red. masses --     1.0829                 1.0851                 1.0857
 Frc consts  --     6.8780                 6.9120                 6.9273
 IR Inten    --    54.9027                41.0613                29.4547
 Raman Activ --    51.2077                36.6481                90.8204

                   118                    119                    120
                     A                      A                      A
 Frequencies --  3299.0726              3300.5016              3313.0615
 Red. masses --     1.0876                 1.0872                 1.0996
 Frc consts  --     6.9741                 6.9779                 7.1110
 IR Inten    --    30.0667                71.4079                24.0933
 Raman Activ --    50.9357                34.5373                38.7134

                   121                    122                    123
                     A                      A                      A
 Frequencies --  3316.5883              3318.9815              3366.4383
 Red. masses --     1.0912                 1.1043                 1.0670
 Frc consts  --     7.0720                 7.1668                 7.1247
 IR Inten    --    59.2939                20.1086                12.4235
 Raman Activ --    45.1720                39.3432                52.8565

                   124                    125                    126
                     A                      A                      A
 Frequencies --  3373.8236              3376.5309              3377.0491
 Red. masses --     1.0669                 1.0676                 1.0663
 Frc consts  --     7.1550                 7.1711                 7.1648
 IR Inten    --    69.3222                50.4532                50.6187
 Raman Activ --   108.2845               178.0147                79.1275

                   127                    128                    129
                     A                      A                      A
 Frequencies --  3389.7185              3886.9883              3887.2158
 Red. masses --     1.0657                 1.0670                 1.0677
 Frc consts  --     7.2149                 9.4981                 9.5051
 IR Inten    --    58.7306                56.6491                60.6362
 Raman Activ --    60.4903               123.4536               119.4841

 - Thermochemistry -
 -------------------
 Temperature   298.150 Kelvin.  Pressure   1.00000 Atm.
 Atom     1 has atomic number  8 and mass  15.99491

 Molecular mass:   342.11621 amu.
 Principal axes and moments of inertia in atomic units:
                           1         2         3
     Eigenvalues --  4805.35787********************
           X            0.99997  -0.00718   0.00100
           Y            0.00718   0.99997  -0.00187
           Z           -0.00099   0.00188   1.00000
 This molecule is an asymmetric top.
 Rotational symmetry number  1.
 Warning -- assumption of classical behavior for rotation
           may cause significant error
 Rotational temperatures (Kelvin)      0.01802     0.00747     0.00552
 Rotational constants (GHZ):           0.37557     0.15559     0.11506
    7 imaginary frequencies ignored.
 Zero-point vibrational energy     973162.1 (Joules/Mol)
                                  232.59133 (Kcal/Mol)
 Warning -- explicit consideration of  32 degrees of freedom as
           vibrations may cause significant error
 Vibrational temperatures:     68.42   106.44   141.46   145.36   174.38
          (Kelvin)            180.33   232.98   244.67   272.70   319.28
                              385.91   389.18   415.02   429.92   440.24
                              451.18   485.16   491.88   529.35   547.91
                              600.73   610.56   633.75   641.86   686.46
                              735.27   777.50   780.56   818.46   850.63
                              870.55   892.81   899.39   906.54   948.63
                              956.55   983.62  1002.60  1018.29  1225.96
                             1234.06  1267.12  1322.58  1370.59  1393.28
                             1412.49  1413.78  1430.81  1460.39  1468.44
                             1489.27  1518.36  1520.94  1529.57  1550.60
                             1556.98  1574.60  1585.36  1587.28  1597.89
                             1620.67  1625.64  1636.08  1641.46  1655.39
                             1663.27  1679.85  1683.69  1708.66  1724.88
                             1748.22  1752.42  1763.22  1800.50  1817.85
                             1822.63  1848.18  1866.36  1873.80  1887.51
                             1888.35  1901.59  1914.45  1916.70  1940.41
                             1949.40  1956.08  1964.32  1986.58  1992.44
                             1997.09  2018.52  2029.40  2060.60  2083.32
                             2105.93  2116.49  2122.37  2158.20  2197.38
                             4686.86  4688.59  4691.63  4704.71  4708.94
                             4715.04  4720.46  4723.96  4730.86  4734.77
                             4746.62  4748.68  4766.75  4771.82  4775.27
                             4843.55  4854.17  4858.07  4858.81  4877.04
                             5592.50  5592.83

 Zero-point correction=                           0.370658 (Hartree/Particle)
 Thermal correction to Energy=                    0.389085
 Thermal correction to Enthalpy=                  0.390029
 Thermal correction to Gibbs Free Energy=         0.325243
 Sum of electronic and zero-point Energies=          -1297.595313
 Sum of electronic and thermal Energies=             -1297.576886
 Sum of electronic and thermal Enthalpies=           -1297.575942
 Sum of electronic and thermal Free Energies=        -1297.640728

                     E (Thermal)             CV                S
                      KCal/Mol        Cal/Mol-Kelvin    Cal/Mol-Kelvin
 Total                  244.155             76.403            136.354
 Electronic               0.000              0.000              0.000
 Translational            0.889              2.981             43.384
 Rotational               0.889              2.981             35.124
 Vibrational            242.377             70.442             57.846
 Vibration     1          0.595              1.979              4.917
 Vibration     2          0.599              1.966              4.045
 Vibration     3          0.604              1.950              3.487
 Vibration     4          0.604              1.948              3.434
 Vibration     5          0.609              1.932              3.081
 Vibration     6          0.610              1.928              3.016
 Vibration     7          0.622              1.889              2.527
 Vibration     8          0.625              1.879              2.435
 Vibration     9          0.633              1.854              2.232
 Vibration    10          0.648              1.808              1.943
 Vibration    11          0.673              1.732              1.608
 Vibration    12          0.674              1.728              1.593
 Vibration    13          0.685              1.695              1.483
 Vibration    14          0.692              1.676              1.424
 Vibration    15          0.696              1.662              1.384
 Vibration    16          0.701              1.648              1.343
 Vibration    17          0.718              1.601              1.225
 Vibration    18          0.721              1.592              1.203
 Vibration    19          0.741              1.538              1.088
 Vibration    20          0.751              1.511              1.036
 Vibration    21          0.781              1.432              0.900
 Vibration    22          0.786              1.417              0.877
 Vibration    23          0.800              1.382              0.825
 Vibration    24          0.805              1.369              0.808
 Vibration    25          0.834              1.301              0.718
 Vibration    26          0.866              1.226              0.631
 Vibration    27          0.895              1.161              0.564
 Vibration    28          0.898              1.156              0.560
 Vibration    29          0.925              1.099              0.506
 Vibration    30          0.949              1.050              0.465
 Vibration    31          0.964              1.021              0.441
 Vibration    32          0.981              0.989              0.416

 Normal termination of Gaussian 09 at Mon Apr  4 21:49:12 2016.
