 Gaussian 09, Revision B.01,
 Gaussian 09:  EM64L-G09RevB.01 12-Aug-2010

 -------------------------------------------------
 # freq=raman b3lyp/6-31+g(2d,p) geom=connectivity
 -------------------------------------------------

 -----------------
 320 5227/5227.com
 -----------------
 Symbolic Z-matrix:
 Charge =  0 Multiplicity = 1

                         Standard orientation:
 ---------------------------------------------------------------------
 Center     Atomic      Atomic             Coordinates (Angstroms)
 Number     Number       Type             X           Y           Z
 ---------------------------------------------------------------------
      1          8           0        5.042097   -0.433531   -0.389951
      2          6           0        3.771678   -0.132736    0.203843
      3          6           0        3.294506    1.206290   -0.335436
      4          8           0        4.252429    2.235472   -0.049414
      5          1           0        5.167953    1.896450   -0.264719
      6          6           0        1.860138    1.560266    0.021583
      7          8           0        1.279235    2.694517   -0.637496
      8          1           0        0.404778    2.821588   -0.170643
      9          6           0        2.945866   -2.482631    0.471230
     10          8           0        4.046855   -3.301157    0.049186
     11          1           0        3.766900   -4.255077    0.158254
     12          6           0        2.715965   -1.144728   -0.211429
     13          8           0        1.445648   -0.818508    0.370938
     14          6           0        0.946491    0.375514   -0.248670
     15          8           0       -0.241570    0.583734    0.530275
     16          6           0       -1.503586    0.343031   -0.108435
     17          6           0       -1.975450   -1.085525    0.106782
     18          8           0       -1.065498   -2.139806   -0.237329
     19          1           0       -0.200838   -1.818183    0.147582
     20          6           0       -3.385636   -1.439703   -0.338189
     21          8           0       -3.873301   -2.729606    0.056482
     22          1           0       -4.834302   -2.830681   -0.199297
     23          6           0       -2.316797    2.645772    0.098859
     24          8           0       -1.073966    3.204393    0.548456
     25          1           0       -1.177450    4.196213    0.477065
     26          6           0       -2.623185    1.201123    0.458536
     27          8           0       -3.920165    0.883862   -0.065273
     28          6           0       -4.366279   -0.442323    0.255519
     29          8           0       -5.473461   -0.597095   -0.643847
     30          1           0       -6.289224   -0.651674   -0.140706
     31          1           0       -3.105825    3.252074    0.492220
     32          1           0       -2.341398    2.726443   -0.967812
     33          1           0       -2.639481    1.099297    1.523555
     34          1           0       -1.410464    0.530772   -1.157712
     35          1           0       -2.033751   -1.153835    1.173006
     36          1           0       -3.432105   -1.370576   -1.404942
     37          1           0       -4.607261   -0.603079    1.285560
     38          1           0        5.703560   -0.526718    0.299530
     39          1           0        2.053274   -3.060451    0.351632
     40          1           0        3.071719   -2.291126    1.516403
     41          1           0        2.651074   -1.246917   -1.274559
     42          1           0        3.856011   -0.096862    1.269911
     43          1           0        3.300434    1.101393   -1.400265
     44          1           0        1.833369    1.754502    1.073465
     45          1           0        0.734341    0.242144   -1.288913
 ---------------------------------------------------------------------

 SCF Done:  E(RB3LYP) =  -1297.98114774     A.U. after   13 cycles

 The electronic state is 1-A.
 Alpha  occ. eigenvalues --  -19.19235 -19.18488 -19.18230 -19.18190 -19.17919
 Alpha  occ. eigenvalues --  -19.17167 -19.15703 -19.15657 -19.14759 -19.14178
 Alpha  occ. eigenvalues --  -19.13453 -10.30703 -10.30279 -10.26331 -10.25739
 Alpha  occ. eigenvalues --  -10.25358 -10.25156 -10.25132 -10.24491 -10.24084
 Alpha  occ. eigenvalues --  -10.23887 -10.23816 -10.23466  -1.10364  -1.09634
 Alpha  occ. eigenvalues --   -1.06114  -1.05359  -1.04082  -1.03593  -1.02423
 Alpha  occ. eigenvalues --   -1.02078  -1.01606  -1.00744  -1.00188  -0.82592
 Alpha  occ. eigenvalues --   -0.80333  -0.79259  -0.78157  -0.71659  -0.69626
 Alpha  occ. eigenvalues --   -0.67427  -0.64871  -0.63196  -0.62189  -0.61405
 Alpha  occ. eigenvalues --   -0.60354  -0.56697  -0.56044  -0.55221  -0.54604
 Alpha  occ. eigenvalues --   -0.53919  -0.53409  -0.52608  -0.51630  -0.51260
 Alpha  occ. eigenvalues --   -0.50642  -0.49932  -0.48993  -0.48706  -0.46478
 Alpha  occ. eigenvalues --   -0.46101  -0.45314  -0.44248  -0.43248  -0.42937
 Alpha  occ. eigenvalues --   -0.42444  -0.41602  -0.40975  -0.40674  -0.39635
 Alpha  occ. eigenvalues --   -0.39337  -0.38473  -0.37907  -0.36672  -0.35844
 Alpha  occ. eigenvalues --   -0.35575  -0.34432  -0.34140  -0.34095  -0.33695
 Alpha  occ. eigenvalues --   -0.33164  -0.31729  -0.30940  -0.30214  -0.30045
 Alpha  occ. eigenvalues --   -0.29384  -0.28374  -0.27766  -0.27251  -0.26699
 Alpha  occ. eigenvalues --   -0.26227
 Alpha virt. eigenvalues --   -0.02031  -0.01915  -0.01560  -0.00109   0.00263
 Alpha virt. eigenvalues --    0.01057   0.01954   0.02229   0.03145   0.03339
 Alpha virt. eigenvalues --    0.03780   0.04181   0.04875   0.05426   0.05820

 Mulliken atomic charges:
              1
     1  O   -0.545410
     2  C   -0.020669
     3  C    0.296978
     4  O   -0.579343
     5  H    0.343926
     6  C   -0.134307
     7  O   -0.578967
     8  H    0.434726
     9  C   -0.242379
    10  O   -0.541559
    11  H    0.334518
    12  C    0.175496
    13  O   -0.204102
    14  C    0.189684
    15  O   -0.245928
    16  C    0.071585
    17  C    0.166039
    18  O   -0.565471
    19  H    0.372113
    20  C    0.080001
    21  O   -0.550771
    22  H    0.342859
    23  C   -0.303357
    24  O   -0.563092
    25  H    0.364364
    26  C    0.023583
    27  O   -0.241495
    28  C    0.151516
    29  O   -0.536029
    30  H    0.329336
    31  H    0.141962
    32  H    0.158411
    33  H    0.125570
    34  H    0.114667
    35  H    0.104216
    36  H    0.131623
    37  H    0.149788
    38  H    0.341581
    39  H    0.136213
    40  H    0.138348
    41  H    0.121996
    42  H    0.121516
    43  H    0.114803
    44  H    0.131097
    45  H    0.144368
 Sum of Mulliken atomic charges =   0.00000

 Dipole moment (field-independent basis, Debye):
    X=             -3.2166    Y=              0.6020    Z=              2.7129  Tot=              4.2507
 Quadrupole moment (field-independent basis, Debye-Ang):
   XX=           -115.1691   YY=           -139.1681   ZZ=           -138.7579
   XY=            -12.9291   XZ=             -0.3429   YZ=              0.0017

  Exact polarizability: 235.063   1.950 195.774   0.097  -0.429 143.427
 Approx polarizability: 276.428   2.045 255.713   0.453  -0.364 239.745

 ******    6 imaginary frequencies (negative Signs) ******

                     1                      2                      3
                     A                      A                      A
 Frequencies --  -251.6781              -245.7633              -203.0838
 Red. masses --     1.7231                 1.8549                 1.2382
 Frc consts  --     0.0643                 0.0660                 0.0301
 IR Inten    --    17.1135                 2.5657                90.6776
 Raman Activ --     0.1982                 0.0513                 0.7298

                     4                      5                      6
                     A                      A                      A
 Frequencies --   -76.6147               -56.2578                -9.1580
 Red. masses --     3.0443                 2.7848                 2.7141
 Frc consts  --     0.0105                 0.0052                 0.0001
 IR Inten    --    23.0889                25.7476                28.5145
 Raman Activ --     0.1922                 0.3771                 0.2294

                     7                      8                      9
                     A                      A                      A
 Frequencies --    35.6737                40.8427                69.1424
 Red. masses --     4.2763                 6.8961                 5.1626
 Frc consts  --     0.0032                 0.0068                 0.0145
 IR Inten    --    13.5472                 1.6963                13.7705
 Raman Activ --     0.2904                 0.0546                 0.1825

                    10                     11                     12
                     A                      A                      A
 Frequencies --    99.2895               106.1920               122.5427
 Red. masses --     6.7106                 6.4453                 5.4112
 Frc consts  --     0.0390                 0.0428                 0.0479
 IR Inten    --     0.1702                 0.9984                 5.1530
 Raman Activ --     0.1753                 0.1422                 0.0922

                    13                     14                     15
                     A                      A                      A
 Frequencies --   162.6355               182.8584               193.0363
 Red. masses --     6.5409                 7.4148                 5.7876
 Frc consts  --     0.1019                 0.1461                 0.1271
 IR Inten    --     1.8304                 2.8081                 2.9398
 Raman Activ --     0.4653                 0.2048                 0.4114

                    16                     17                     18
                     A                      A                      A
 Frequencies --   206.8729               233.7726               278.9604
 Red. masses --     7.2525                 6.0922                 4.4111
 Frc consts  --     0.1829                 0.1962                 0.2022
 IR Inten    --     0.0329                 0.5826                11.7894
 Raman Activ --     2.8485                 0.2409                 0.3318

                    19                     20                     21
                     A                      A                      A
 Frequencies --   290.3952               297.6029               300.4709
 Red. masses --     5.5447                 4.5780                 4.8097
 Frc consts  --     0.2755                 0.2389                 0.2558
 IR Inten    --     2.9316                 2.8945                 0.0596
 Raman Activ --     0.3153                 0.1885                 0.1956

                    22                     23                     24
                     A                      A                      A
 Frequencies --   311.1738               329.4583               333.3004
 Red. masses --     6.4549                 5.2608                 6.4041
 Frc consts  --     0.3683                 0.3364                 0.4192
 IR Inten    --     6.7815                 3.4944                 0.1681
 Raman Activ --     1.3036                 2.4085                 2.4849

                    25                     26                     27
                     A                      A                      A
 Frequencies --   340.8454               367.9572               376.3490
 Red. masses --     6.8162                 4.3669                 7.7135
 Frc consts  --     0.4666                 0.3484                 0.6437
 IR Inten    --    14.5659                 3.7678                 2.1469
 Raman Activ --     3.1600                 0.3740                 2.0538

                    28                     29                     30
                     A                      A                      A
 Frequencies --   406.6767               418.5670               439.6549
 Red. masses --     4.5525                 6.3234                 4.4964
 Frc consts  --     0.4436                 0.6527                 0.5121
 IR Inten    --    16.0384                 4.1804                 2.9353
 Raman Activ --     1.4538                 3.0008                 3.8511

                    31                     32                     33
                     A                      A                      A
 Frequencies --   441.2567               483.2041               499.5005
 Red. masses --     4.8600                 4.3116                 3.9266
 Frc consts  --     0.5575                 0.5931                 0.5772
 IR Inten    --     1.5674                 4.2792                 8.0524
 Raman Activ --     4.4773                 1.8170                 0.7754

                    34                     35                     36
                     A                      A                      A
 Frequencies --   507.4989               527.1888               571.9465
 Red. masses --     3.8195                 3.1281                 3.3963
 Frc consts  --     0.5796                 0.5122                 0.6546
 IR Inten    --     6.5762                11.6971                12.1579
 Raman Activ --     5.6083                 3.6201                 0.5648

                    37                     38                     39
                     A                      A                      A
 Frequencies --   601.1126               611.5075               628.6719
 Red. masses --     3.0362                 6.4569                 4.6340
 Frc consts  --     0.6464                 1.4226                 1.0791
 IR Inten    --    35.9802                 9.3755                41.0725
 Raman Activ --     0.2310                 0.5350                 1.5097

                    40                     41                     42
                     A                      A                      A
 Frequencies --   633.8026               691.0581               705.2972
 Red. masses --     5.3745                 3.9676                 1.1632
 Frc consts  --     1.2720                 1.1164                 0.3409
 IR Inten    --    15.6917                28.5235                79.2837
 Raman Activ --     0.1909                 1.0835                 1.8358

                    43                     44                     45
                     A                      A                      A
 Frequencies --   727.1314               745.3981               754.4972
 Red. masses --     1.0549                 1.0527                 1.0960
 Frc consts  --     0.3286                 0.3446                 0.3676
 IR Inten    --    96.3670                88.5648               125.9996
 Raman Activ --     1.9824                 1.6240                 1.5684

                    46                     47                     48
                     A                      A                      A
 Frequencies --   843.4907               850.8780               867.8795
 Red. masses --     1.1088                 1.6688                 1.5474
 Frc consts  --     0.4648                 0.7118                 0.6867
 IR Inten    --    79.2943                10.7847                11.8141
 Raman Activ --     2.1143                 0.5291                 0.2433

                    49                     50                     51
                     A                      A                      A
 Frequencies --   912.3011               925.8267               948.8159
 Red. masses --     1.6560                 2.3961                 5.2654
 Frc consts  --     0.8121                 1.2101                 2.7928
 IR Inten    --    51.7723               101.7170                55.9348
 Raman Activ --     1.4301                 2.8258                 0.8709

                    52                     53                     54
                     A                      A                      A
 Frequencies --   984.3353               985.5832               989.1453
 Red. masses --     4.6396                 5.6013                 5.7645
 Frc consts  --     2.6486                 3.2057                 3.3230
 IR Inten    --    72.2892               183.4653                21.8777
 Raman Activ --     1.7431                 1.4761                 3.2899

                    55                     56                     57
                     A                      A                      A
 Frequencies --   997.0640              1011.2604              1021.0718
 Red. masses --     5.6582                 6.1744                 5.4576
 Frc consts  --     3.3142                 3.7203                 3.3525
 IR Inten    --   253.4457                38.4191                81.5218
 Raman Activ --     3.7711                 0.9426                 3.3561

                    58                     59                     60
                     A                      A                      A
 Frequencies --  1033.9547              1050.4308              1064.4204
 Red. masses --     5.3355                 3.9590                 4.2480
 Frc consts  --     3.3607                 2.5738                 2.8357
 IR Inten    --   352.7263                97.8717                23.2675
 Raman Activ --     2.5150                 8.3412                 4.3086

                    61                     62                     63
                     A                      A                      A
 Frequencies --  1067.0809              1075.0103              1080.1668
 Red. masses --     3.9437                 2.8465                 3.6757
 Frc consts  --     2.6457                 1.9381                 2.5268
 IR Inten    --     7.2782                24.5111                31.9821
 Raman Activ --     2.9631                15.0228                 4.9676

                    64                     65                     66
                     A                      A                      A
 Frequencies --  1083.2003              1096.3597              1108.6802
 Red. masses --     4.0136                 3.3735                 2.4861
 Frc consts  --     2.7746                 2.3891                 1.8004
 IR Inten    --   177.3936                77.2899                50.5310
 Raman Activ --     2.3898                18.1989                 0.5955

                    67                     68                     69
                     A                      A                      A
 Frequencies --  1118.0684              1126.1101              1129.9281
 Red. masses --     2.3838                 1.8704                 2.8616
 Frc consts  --     1.7557                 1.3975                 2.1526
 IR Inten    --     3.3380                16.6455                27.0259
 Raman Activ --     1.4617                 3.9056                 7.4871

                    70                     71                     72
                     A                      A                      A
 Frequencies --  1132.3507              1139.2776              1148.7344
 Red. masses --     2.0753                 2.1465                 2.1232
 Frc consts  --     1.5678                 1.6415                 1.6508
 IR Inten    --    32.6098                83.7521                27.7033
 Raman Activ --     3.8603                 5.5275                 5.3469

                    73                     74                     75
                     A                      A                      A
 Frequencies --  1156.0862              1162.8233              1174.0302
 Red. masses --     1.8041                 2.2062                 1.8675
 Frc consts  --     1.4207                 1.7576                 1.5166
 IR Inten    --    10.3236                21.8662                 6.0274
 Raman Activ --     1.5880                 3.1861                 2.9848

                    76                     77                     78
                     A                      A                      A
 Frequencies --  1203.5466              1211.7986              1216.5720
 Red. masses --     1.2801                 1.4194                 1.4120
 Frc consts  --     1.0925                 1.2281                 1.2313
 IR Inten    --    19.9580                28.4863                 8.8783
 Raman Activ --     1.4677                 4.0263                 0.9571

                    79                     80                     81
                     A                      A                      A
 Frequencies --  1222.9163              1229.7939              1257.4084
 Red. masses --     1.3407                 1.3039                 1.3506
 Frc consts  --     1.1814                 1.1618                 1.2581
 IR Inten    --     3.4827                 0.6089                21.8546
 Raman Activ --     2.0632                 1.7071                 2.2837

                    82                     83                     84
                     A                      A                      A
 Frequencies --  1272.5614              1284.8405              1288.1421
 Red. masses --     1.2326                 1.3260                 1.3401
 Frc consts  --     1.1760                 1.2897                 1.3101
 IR Inten    --     0.9122                33.5563                20.4592
 Raman Activ --     1.4125                 2.2553                 1.4702

                    85                     86                     87
                     A                      A                      A
 Frequencies --  1292.5520              1294.3984              1300.8487
 Red. masses --     1.3099                 1.2083                 1.2436
 Frc consts  --     1.2894                 1.1927                 1.2399
 IR Inten    --     4.7959                11.6317                 2.2465
 Raman Activ --     1.6786                 5.5880                 2.6519

                    88                     89                     90
                     A                      A                      A
 Frequencies --  1309.1428              1333.5972              1339.0058
 Red. masses --     1.3071                 1.2371                 1.2468
 Frc consts  --     1.3199                 1.2963                 1.3171
 IR Inten    --     8.4001                35.1926                25.2129
 Raman Activ --     8.1362                 9.5041                 8.7605

                    91                     92                     93
                     A                      A                      A
 Frequencies --  1344.2355              1345.9627              1349.9947
 Red. masses --     1.3783                 1.3384                 1.3398
 Frc consts  --     1.4674                 1.4286                 1.4386
 IR Inten    --     7.4149                19.6570                12.4245
 Raman Activ --     5.7283                 4.6822                 3.6502

                    94                     95                     96
                     A                      A                      A
 Frequencies --  1355.0507              1362.3256              1362.9625
 Red. masses --     1.1960                 1.4098                 1.3807
 Frc consts  --     1.2939                 1.5416                 1.5112
 IR Inten    --    49.2215                24.5302                26.8763
 Raman Activ --     5.2776                 3.5733                 2.5173

                    97                     98                     99
                     A                      A                      A
 Frequencies --  1378.0109              1390.5565              1394.0464
 Red. masses --     1.3503                 1.2956                 1.4845
 Frc consts  --     1.5108                 1.4760                 1.6998
 IR Inten    --    25.0312                 3.3152                 6.5944
 Raman Activ --     6.7451                 1.6242                 4.2810

                   100                    101                    102
                     A                      A                      A
 Frequencies --  1421.1021              1429.0501              1467.4173
 Red. masses --     1.5596                 1.4833                 1.1428
 Frc consts  --     1.8557                 1.7847                 1.4499
 IR Inten    --    23.1946                32.5498                10.3312
 Raman Activ --     0.6196                 1.6215                 4.8218

                   103                    104                    105
                     A                      A                      A
 Frequencies --  1476.1535              1477.9202              1482.6579
 Red. masses --     1.2552                 1.2095                 1.2047
 Frc consts  --     1.6115                 1.5565                 1.5604
 IR Inten    --    19.1269                21.8723                 7.1932
 Raman Activ --     0.6309                 4.3755                 1.7083

                   106                    107                    108
                     A                      A                      A
 Frequencies --  1525.6104              1536.6984              3237.9468
 Red. masses --     1.2686                 1.2221                 1.0682
 Frc consts  --     1.7396                 1.7003                 6.5988
 IR Inten    --    36.5221                31.1951               805.8392
 Raman Activ --     1.5192                 1.0736               142.3503

                   109                    110                    111
                     A                      A                      A
 Frequencies --  3243.4176              3256.0076              3261.2462
 Red. masses --     1.0792                 1.0577                 1.0743
 Frc consts  --     6.6887                 6.6064                 6.7321
 IR Inten    --   127.8380                30.1260                15.9060
 Raman Activ --    44.9143                58.8389               210.3692

                   112                    113                    114
                     A                      A                      A
 Frequencies --  3263.1182              3275.2786              3283.9692
 Red. masses --     1.0646                 1.0827                 1.0843
 Frc consts  --     6.6789                 6.8430                 6.8894
 IR Inten    --    37.3440                 0.8541                16.4719
 Raman Activ --    88.2733                65.9587                32.1439

                   115                    116                    117
                     A                      A                      A
 Frequencies --  3285.0852              3290.1258              3290.7876
 Red. masses --     1.0851                 1.0852                 1.0866
 Frc consts  --     6.8996                 6.9212                 6.9330
 IR Inten    --     3.9372                11.6183                28.3585
 Raman Activ --    31.0864               107.7098                41.2215

                   118                    119                    120
                     A                      A                      A
 Frequencies --  3298.6864              3305.2648              3309.7258
 Red. masses --     1.0900                 1.0874                 1.0884
 Frc consts  --     6.9881                 6.9993                 7.0249
 IR Inten    --     7.4549                69.3596                32.1551
 Raman Activ --    18.2910                26.4938                54.3493

                   121                    122                    123
                     A                      A                      A
 Frequencies --  3313.5270              3316.3786              3320.2805
 Red. masses --     1.0989                 1.1048                 1.0706
 Frc consts  --     7.1087                 7.1591                 6.9541
 IR Inten    --    56.3519                64.8380               427.0831
 Raman Activ --     8.8828                56.5467               160.6489

                   124                    125                    126
                     A                      A                      A
 Frequencies --  3367.8080              3368.1729              3372.9472
 Red. masses --     1.0672                 1.0667                 1.0656
 Frc consts  --     7.1320                 7.1301                 7.1430
 IR Inten    --    30.2554                48.5679                48.4431
 Raman Activ --    68.2179               179.4818               127.9632

                   127                    128                    129
                     A                      A                      A
 Frequencies --  3375.7619              3886.4982              3889.7380
 Red. masses --     1.0665                 1.0673                 1.0676
 Frc consts  --     7.1607                 9.4981                 9.5169
 IR Inten    --    59.0228                54.8469                76.2962
 Raman Activ --   139.3479               144.3022                97.6930

 - Thermochemistry -
 -------------------
 Temperature   298.150 Kelvin.  Pressure   1.00000 Atm.
 Atom     1 has atomic number  8 and mass  15.99491

 Molecular mass:   342.11621 amu.
 Principal axes and moments of inertia in atomic units:
                           1         2         3
     Eigenvalues --  4322.19856********************
           X            0.99998  -0.00666   0.00010
           Y            0.00666   0.99997  -0.00242
           Z           -0.00008   0.00242   1.00000
 This molecule is an asymmetric top.
 Rotational symmetry number  1.
 Warning -- assumption of classical behavior for rotation
           may cause significant error
 Rotational temperatures (Kelvin)      0.02004     0.00700     0.00532
 Rotational constants (GHZ):           0.41755     0.14587     0.11095
    6 imaginary frequencies ignored.
 Zero-point vibrational energy     976908.6 (Joules/Mol)
                                  233.48675 (Kcal/Mol)
 Warning -- explicit consideration of  32 degrees of freedom as
           vibrations may cause significant error
 Vibrational temperatures:     51.33    58.76    99.48   142.86   152.79
          (Kelvin)            176.31   234.00   263.09   277.74   297.64
                              336.35   401.36   417.81   428.18   432.31
                              447.71   474.02   479.54   490.40   529.41
                              541.48   585.12   602.22   632.56   634.87
                              695.22   718.67   730.18   758.51   822.90
                              864.87   879.82   904.52   911.90   994.28
                             1014.76  1046.18  1072.46  1085.55  1213.59
                             1224.22  1248.68  1312.60  1332.06  1365.13
                             1416.24  1418.03  1423.16  1434.55  1454.98
                             1469.09  1487.63  1511.33  1531.46  1535.29
                             1546.70  1554.12  1558.48  1577.42  1595.14
                             1608.65  1620.22  1625.71  1629.20  1639.16
                             1652.77  1663.35  1673.04  1689.17  1731.63
                             1743.51  1750.37  1759.50  1769.40  1809.13
                             1830.93  1848.60  1853.35  1859.69  1862.35
                             1871.63  1883.56  1918.75  1926.53  1934.05
                             1936.54  1942.34  1949.61  1960.08  1961.00
                             1982.65  2000.70  2005.72  2044.65  2056.08
                             2111.28  2123.85  2126.39  2133.21  2195.01
                             2210.96  4658.68  4666.55  4684.66  4692.20
                             4694.89  4712.39  4724.89  4726.50  4733.75
                             4734.70  4746.07  4755.53  4761.95  4767.42
                             4771.52  4777.14  4845.52  4846.04  4852.91
                             4856.96  5591.80  5596.46

 Zero-point correction=                           0.372085 (Hartree/Particle)
 Thermal correction to Energy=                    0.390996
 Thermal correction to Enthalpy=                  0.391940
 Thermal correction to Gibbs Free Energy=         0.325319
 Sum of electronic and zero-point Energies=          -1297.609063
 Sum of electronic and thermal Energies=             -1297.590152
 Sum of electronic and thermal Enthalpies=           -1297.589208
 Sum of electronic and thermal Free Energies=        -1297.655829

                     E (Thermal)             CV                S
                      KCal/Mol        Cal/Mol-Kelvin    Cal/Mol-Kelvin
 Total                  245.353             77.321            140.216
 Electronic               0.000              0.000              0.000
 Translational            0.889              2.981             43.384
 Rotational               0.889              2.981             35.119
 Vibrational            243.576             71.359             61.713
 Vibration     1          0.594              1.982              5.486
 Vibration     2          0.594              1.981              5.218
 Vibration     3          0.598              1.969              4.178
 Vibration     4          0.604              1.950              3.468
 Vibration     5          0.605              1.944              3.337
 Vibration     6          0.610              1.930              3.060
 Vibration     7          0.623              1.888              2.519
 Vibration     8          0.630              1.863              2.299
 Vibration     9          0.635              1.850              2.198
 Vibration    10          0.641              1.830              2.071
 Vibration    11          0.654              1.789              1.850
 Vibration    12          0.679              1.712              1.540
 Vibration    13          0.686              1.692              1.472
 Vibration    14          0.691              1.678              1.430
 Vibration    15          0.693              1.673              1.414
 Vibration    16          0.700              1.652              1.356
 Vibration    17          0.712              1.617              1.263
 Vibration    18          0.715              1.609              1.244
 Vibration    19          0.720              1.594              1.208
 Vibration    20          0.741              1.538              1.088
 Vibration    21          0.747              1.521              1.054
 Vibration    22          0.771              1.456              0.938
 Vibration    23          0.781              1.430              0.897
 Vibration    24          0.800              1.384              0.828
 Vibration    25          0.801              1.380              0.823
 Vibration    26          0.839              1.287              0.701
 Vibration    27          0.855              1.251              0.659
 Vibration    28          0.863              1.233              0.640
 Vibration    29          0.882              1.190              0.594
 Vibration    30          0.928              1.092              0.501
 Vibration    31          0.959              1.029              0.448
 Vibration    32          0.971              1.007              0.430

 Normal termination of Gaussian 09 at Thu Mar 24 13:03:08 2016.
