 Gaussian 09, Revision B.01,
 Gaussian 09:  EM64L-G09RevB.01 12-Aug-2010

 -------------------------------------------------
 # freq=raman b3lyp/6-31+g(2d,p) geom=connectivity
 -------------------------------------------------

 -----------------
 310 9420/9420.com
 -----------------
 Symbolic Z-matrix:
 Charge =  0 Multiplicity = 1

                         Standard orientation:
 ---------------------------------------------------------------------
 Center     Atomic      Atomic             Coordinates (Angstroms)
 Number     Number       Type             X           Y           Z
 ---------------------------------------------------------------------
      1          8           0        4.967505   -0.369445   -0.417307
      2          6           0        3.706787   -0.095981    0.212034
      3          6           0        3.250601    1.272363   -0.268034
      4          8           0        4.180232    2.289600    0.130185
      5          1           0        4.977612    2.156233   -0.458123
      6          6           0        1.811742    1.516616    0.159848
      7          8           0        1.334702    2.733742   -0.431035
      8          1           0        0.420070    2.839233   -0.039211
      9          6           0        3.115414   -2.590167    0.260434
     10          8           0        4.221250   -3.243572   -0.379746
     11          1           0        4.135056   -4.212683   -0.147004
     12          6           0        2.740049   -1.192114   -0.204527
     13          8           0        1.440104   -0.911674    0.335793
     14          6           0        0.915174    0.330517   -0.155074
     15          8           0       -0.228517    0.539925    0.685932
     16          6           0       -1.482579    0.186540    0.084180
     17          6           0       -2.106809   -1.132613    0.508111
     18          8           0       -1.070273   -2.037290    0.101987
     19          1           0       -0.187549   -1.569040    0.056017
     20          6           0       -3.442036   -1.490890   -0.123480
     21          8           0       -4.012585   -2.759478    0.227647
     22          1           0       -4.816987   -2.936352   -0.340759
     23          6           0       -2.216232    2.586141   -0.205883
     24          8           0       -1.156594    3.328443    0.413323
     25          1           0       -1.333048    4.305147    0.297025
     26          6           0       -2.579219    1.210291    0.329401
     27          8           0       -3.760844    0.871808   -0.411573
     28          6           0       -4.393865   -0.321252    0.071833
     29          8           0       -5.529980   -0.586968   -0.763070
     30          1           0       -6.284655   -0.812493   -0.214249
     31          1           0       -3.098437    3.189623   -0.156640
     32          1           0       -1.961298    2.468741   -1.238417
     33          1           0       -2.803611    1.268593    1.373982
     34          1           0       -1.321278    0.137124   -0.972437
     35          1           0       -2.200661   -1.155025    1.573752
     36          1           0       -3.257821   -1.543651   -1.176182
     37          1           0       -4.680995   -0.221172    1.097718
     38          1           0        5.623066   -0.572003    0.254117
     39          1           0        2.255092   -3.214223    0.136737
     40          1           0        3.333274   -2.535671    1.306601
     41          1           0        2.671702   -1.196242   -1.272334
     42          1           0        3.821365   -0.092348    1.275875
     43          1           0        3.257050    1.247281   -1.337721
     44          1           0        1.808450    1.649951    1.221503
     45          1           0        0.649446    0.281547   -1.190396
 ---------------------------------------------------------------------

 SCF Done:  E(RB3LYP) =  -1297.98706672     A.U. after   13 cycles

 The electronic state is 1-A.
 Alpha  occ. eigenvalues --  -19.18871 -19.18863 -19.18833 -19.18414 -19.18252
 Alpha  occ. eigenvalues --  -19.16347 -19.16145 -19.16128 -19.15264 -19.13546
 Alpha  occ. eigenvalues --  -19.12941 -10.30980 -10.30749 -10.26092 -10.25586
 Alpha  occ. eigenvalues --  -10.25434 -10.25067 -10.24607 -10.24515 -10.24254
 Alpha  occ. eigenvalues --  -10.24008 -10.24004 -10.23876  -1.10801  -1.09313
 Alpha  occ. eigenvalues --   -1.05670  -1.05105  -1.04166  -1.03916  -1.02674
 Alpha  occ. eigenvalues --   -1.02542  -1.01888  -1.00568  -1.00083  -0.82169
 Alpha  occ. eigenvalues --   -0.80128  -0.79446  -0.78215  -0.71857  -0.69852
 Alpha  occ. eigenvalues --   -0.67077  -0.65277  -0.63176  -0.62774  -0.61621
 Alpha  occ. eigenvalues --   -0.60117  -0.56707  -0.55915  -0.55354  -0.54840
 Alpha  occ. eigenvalues --   -0.53893  -0.53433  -0.52754  -0.51644  -0.51065
 Alpha  occ. eigenvalues --   -0.50651  -0.50312  -0.49508  -0.48331  -0.46706
 Alpha  occ. eigenvalues --   -0.46193  -0.44983  -0.44415  -0.43806  -0.43604
 Alpha  occ. eigenvalues --   -0.42640  -0.42033  -0.40913  -0.40344  -0.39573
 Alpha  occ. eigenvalues --   -0.39438  -0.38105  -0.37521  -0.36120  -0.36071
 Alpha  occ. eigenvalues --   -0.35427  -0.34874  -0.34544  -0.33712  -0.33562
 Alpha  occ. eigenvalues --   -0.33020  -0.31478  -0.31227  -0.30384  -0.29736
 Alpha  occ. eigenvalues --   -0.29378  -0.28721  -0.28264  -0.27586  -0.26812
 Alpha  occ. eigenvalues --   -0.25884
 Alpha virt. eigenvalues --   -0.01940  -0.01855  -0.01447  -0.00108   0.00320
 Alpha virt. eigenvalues --    0.00890   0.01892   0.02044   0.02900   0.03453
 Alpha virt. eigenvalues --    0.03635   0.04337   0.04583   0.05424   0.05644

 Mulliken atomic charges:
              1
     1  O   -0.537062
     2  C    0.100927
     3  C    0.025292
     4  O   -0.534467
     5  H    0.342497
     6  C   -0.081074
     7  O   -0.574938
     8  H    0.427204
     9  C   -0.191030
    10  O   -0.514636
    11  H    0.334287
    12  C    0.103116
    13  O   -0.243517
    14  C    0.256036
    15  O   -0.201453
    16  C   -0.001707
    17  C    0.314570
    18  O   -0.590227
    19  H    0.395113
    20  C    0.056422
    21  O   -0.563392
    22  H    0.341422
    23  C   -0.253573
    24  O   -0.574777
    25  H    0.360044
    26  C   -0.084625
    27  O   -0.242252
    28  C    0.182315
    29  O   -0.562226
    30  H    0.339099
    31  H    0.143558
    32  H    0.157873
    33  H    0.125141
    34  H    0.115251
    35  H    0.118207
    36  H    0.128318
    37  H    0.128556
    38  H    0.334716
    39  H    0.150796
    40  H    0.135963
    41  H    0.116595
    42  H    0.120800
    43  H    0.120635
    44  H    0.134399
    45  H    0.141805
 Sum of Mulliken atomic charges =   0.00000

 Dipole moment (field-independent basis, Debye):
    X=             -2.6680    Y=              0.3137    Z=              1.4445  Tot=              3.0501
 Quadrupole moment (field-independent basis, Debye-Ang):
   XX=           -116.9656   YY=           -135.8301   ZZ=           -139.8391
   XY=            -14.1985   XZ=             -0.2881   YZ=             -0.9001

  Exact polarizability: 234.158   3.055 196.179  -0.571  -0.392 143.723
 Approx polarizability: 273.702   4.113 255.211  -2.210   0.447 240.645

 ******    6 imaginary frequencies (negative Signs) ******

                     1                      2                      3
                     A                      A                      A
 Frequencies --  -287.9644              -258.4119              -253.4103
 Red. masses --     1.4508                 1.1882                 1.7474
 Frc consts  --     0.0709                 0.0467                 0.0661
 IR Inten    --    51.1548               128.3730                 1.4550
 Raman Activ --     0.3169                 1.1701                 0.0171

                     4                      5                      6
                     A                      A                      A
 Frequencies --  -246.4797               -93.9312               -45.4481
 Red. masses --     1.3132                 6.7337                 5.8496
 Frc consts  --     0.0470                 0.0350                 0.0071
 IR Inten    --    58.2786                 2.2742                 0.6040
 Raman Activ --     0.5688                 0.0133                 0.0098

                     7                      8                      9
                     A                      A                      A
 Frequencies --    23.0237                63.6455                74.0192
 Red. masses --     6.8664                 6.8254                 6.3515
 Frc consts  --     0.0021                 0.0163                 0.0205
 IR Inten    --     0.3869                 0.8955                 1.5284
 Raman Activ --     0.0455                 0.0213                 0.0946

                    10                     11                     12
                     A                      A                      A
 Frequencies --    82.1167               105.4196               130.4495
 Red. masses --     6.1450                 6.2035                 5.6672
 Frc consts  --     0.0244                 0.0406                 0.0568
 IR Inten    --     2.1191                 1.0853                 0.8844
 Raman Activ --     0.2007                 0.1515                 0.0632

                    13                     14                     15
                     A                      A                      A
 Frequencies --   161.0912               181.1211               190.0788
 Red. masses --     6.4290                 6.6910                 6.0270
 Frc consts  --     0.0983                 0.1293                 0.1283
 IR Inten    --     5.1705                 0.6571                 4.5422
 Raman Activ --     0.3845                 0.3404                 0.7546

                    16                     17                     18
                     A                      A                      A
 Frequencies --   212.7939               233.7674               266.3766
 Red. masses --     7.0239                 6.1375                 4.4935
 Frc consts  --     0.1874                 0.1976                 0.1879
 IR Inten    --     0.1026                 2.4791                15.2249
 Raman Activ --     2.6036                 0.5017                 0.3127

                    19                     20                     21
                     A                      A                      A
 Frequencies --   281.4966               293.1951               304.7981
 Red. masses --     5.1009                 5.7818                 5.7606
 Frc consts  --     0.2381                 0.2928                 0.3153
 IR Inten    --     1.5676                 3.3138                 9.5570
 Raman Activ --     0.1141                 0.2467                 1.0016

                    22                     23                     24
                     A                      A                      A
 Frequencies --   307.1195               320.4680               324.5717
 Red. masses --     4.6636                 5.5878                 6.0893
 Frc consts  --     0.2592                 0.3381                 0.3780
 IR Inten    --     4.7294                 0.5831                 3.3919
 Raman Activ --     0.4461                 2.2561                 3.1024

                    25                     26                     27
                     A                      A                      A
 Frequencies --   348.0046               366.4520               384.5393
 Red. masses --     7.0425                 5.0066                 7.0889
 Frc consts  --     0.5025                 0.3961                 0.6176
 IR Inten    --     6.8674                 3.2929                 3.1847
 Raman Activ --     4.8038                 0.2280                 0.5426

                    28                     29                     30
                     A                      A                      A
 Frequencies --   403.3302               425.0343               439.1700
 Red. masses --     4.0926                 5.9538                 4.6332
 Frc consts  --     0.3923                 0.6337                 0.5265
 IR Inten    --    22.4444                 2.2490                 0.7705
 Raman Activ --     2.0111                 5.1286                 0.8901

                    31                     32                     33
                     A                      A                      A
 Frequencies --   445.8018               474.2880               495.3580
 Red. masses --     5.8213                 4.5018                 3.9026
 Frc consts  --     0.6816                 0.5966                 0.5642
 IR Inten    --     2.6990                 4.6878                13.9103
 Raman Activ --     4.1423                 2.9685                 0.5713

                    34                     35                     36
                     A                      A                      A
 Frequencies --   529.6084               538.6755               570.1108
 Red. masses --     3.0474                 4.2602                 4.5464
 Frc consts  --     0.5036                 0.7283                 0.8706
 IR Inten    --     5.3875                 8.6087                 8.6484
 Raman Activ --     4.2202                 1.6612                 1.4779

                    37                     38                     39
                     A                      A                      A
 Frequencies --   581.3194               589.3656               611.9261
 Red. masses --     2.9057                 6.3845                 4.7431
 Frc consts  --     0.5785                 1.3066                 1.0464
 IR Inten    --    35.4131                 0.9038                23.2012
 Raman Activ --     0.3393                 1.4606                 0.7174

                    40                     41                     42
                     A                      A                      A
 Frequencies --   639.1410               685.9419               713.5789
 Red. masses --     3.7364                 5.1184                 1.0849
 Frc consts  --     0.8993                 1.4189                 0.3255
 IR Inten    --    32.2747                 8.3182               103.3557
 Raman Activ --     0.9087                 1.3991                 1.3673

                    43                     44                     45
                     A                      A                      A
 Frequencies --   719.5446               720.7287               732.1965
 Red. masses --     1.1133                 1.0729                 1.0610
 Frc consts  --     0.3396                 0.3284                 0.3351
 IR Inten    --    73.6281               121.9350                93.3360
 Raman Activ --     1.6783                 1.4774                 1.8199

                    46                     47                     48
                     A                      A                      A
 Frequencies --   740.6902               852.7906               859.4975
 Red. masses --     1.0890                 1.7807                 1.6603
 Frc consts  --     0.3520                 0.7630                 0.7226
 IR Inten    --    56.0505                 4.4483                 7.7686
 Raman Activ --     0.8819                 1.0385                 0.6777

                    49                     50                     51
                     A                      A                      A
 Frequencies --   922.6473               930.6948               960.6249
 Red. masses --     2.5785                 1.5307                 4.0699
 Frc consts  --     1.2933                 0.7812                 2.2128
 IR Inten    --    73.3608                70.8869                49.6323
 Raman Activ --     1.8103                 1.6044                 0.3432

                    52                     53                     54
                     A                      A                      A
 Frequencies --   977.9230               986.7919               994.1675
 Red. masses --     7.1786                 5.5743                 7.4087
 Frc consts  --     4.0448                 3.1981                 4.3143
 IR Inten    --    35.6150               274.6006               106.0134
 Raman Activ --     2.0148                 1.0891                 1.6462

                    55                     56                     57
                     A                      A                      A
 Frequencies --  1000.7476              1013.1152              1029.3806
 Red. masses --     4.4722                 6.5489                 6.4730
 Frc consts  --     2.6389                 3.9604                 4.0412
 IR Inten    --   229.8945                19.2064               209.9182
 Raman Activ --     1.6526                 4.1549                 3.6644

                    58                     59                     60
                     A                      A                      A
 Frequencies --  1033.2083              1055.0610              1064.2023
 Red. masses --     6.1103                 5.5376                 5.3982
 Frc consts  --     3.8431                 3.6319                 3.6020
 IR Inten    --   348.9287               135.5926                58.3654
 Raman Activ --     1.2817                 5.7910                 2.1979

                    61                     62                     63
                     A                      A                      A
 Frequencies --  1069.5695              1073.4833              1076.9296
 Red. masses --     4.0288                 4.2643                 4.3419
 Frc consts  --     2.7155                 2.8953                 2.9669
 IR Inten    --     4.4589                74.3233                26.7890
 Raman Activ --    12.4680                10.0230                15.9348

                    64                     65                     66
                     A                      A                      A
 Frequencies --  1096.4062              1103.6452              1108.2694
 Red. masses --     2.5627                 2.5242                 3.0005
 Frc consts  --     1.8151                 1.8115                 2.1714
 IR Inten    --    14.1868                18.1845                36.4612
 Raman Activ --     6.1551                 0.6374                 4.8304

                    67                     68                     69
                     A                      A                      A
 Frequencies --  1116.3569              1119.1254              1131.7065
 Red. masses --     2.5761                 2.9745                 3.0381
 Frc consts  --     1.8915                 2.1950                 2.2926
 IR Inten    --    43.2100                 3.0991                 7.7511
 Raman Activ --     2.7780                 2.6844                 7.4390

                    70                     71                     72
                     A                      A                      A
 Frequencies --  1141.0583              1142.7633              1150.4813
 Red. masses --     2.4154                 1.8124                 1.6822
 Frc consts  --     1.8529                 1.3945                 1.3119
 IR Inten    --    68.1536                 1.0173                 7.6336
 Raman Activ --     3.1713                 5.6800                 5.3531

                    73                     74                     75
                     A                      A                      A
 Frequencies --  1159.3800              1168.2119              1184.0008
 Red. masses --     1.6324                 1.6349                 1.9870
 Frc consts  --     1.2928                 1.3146                 1.6411
 IR Inten    --    13.7708                 8.2578                 6.8128
 Raman Activ --     1.9012                 2.6369                 2.1194

                    76                     77                     78
                     A                      A                      A
 Frequencies --  1193.5234              1197.0567              1234.0169
 Red. masses --     1.3930                 1.2832                 1.2798
 Frc consts  --     1.1692                 1.0834                 1.1483
 IR Inten    --    19.3476                16.2765                 4.6209
 Raman Activ --     2.9457                 0.6633                 1.4129

                    79                     80                     81
                     A                      A                      A
 Frequencies --  1235.4229              1237.7244              1265.8369
 Red. masses --     1.1772                 1.3099                 1.2969
 Frc consts  --     1.0586                 1.1823                 1.2243
 IR Inten    --     8.4699                 6.0406                 5.3653
 Raman Activ --     1.1296                 1.1510                 2.0514

                    82                     83                     84
                     A                      A                      A
 Frequencies --  1268.7937              1272.2488              1287.0980
 Red. masses --     1.2457                 1.3581                 1.2314
 Frc consts  --     1.1815                 1.2952                 1.2019
 IR Inten    --     1.5305                25.4634                 1.7031
 Raman Activ --     0.5382                 3.1455                 5.1060

                    85                     86                     87
                     A                      A                      A
 Frequencies --  1287.4637              1299.8253              1300.5722
 Red. masses --     1.3209                 1.2531                 1.3446
 Frc consts  --     1.2900                 1.2474                 1.3400
 IR Inten    --    14.0396                 7.9944                10.3223
 Raman Activ --     2.7310                 2.5643                 2.0494

                    88                     89                     90
                     A                      A                      A
 Frequencies --  1310.1453              1314.9385              1335.0918
 Red. masses --     1.3975                 1.3353                 1.3801
 Frc consts  --     1.4133                 1.3603                 1.4494
 IR Inten    --    35.5029                 8.7335                21.0931
 Raman Activ --     4.3189                14.3034                 4.0986

                    91                     92                     93
                     A                      A                      A
 Frequencies --  1343.3713              1344.5795              1351.6283
 Red. masses --     1.2033                 1.1664                 1.1987
 Frc consts  --     1.2795                 1.2424                 1.2902
 IR Inten    --    29.5198                40.7545                11.3467
 Raman Activ --     5.6513                 0.8677                 1.5327

                    94                     95                     96
                     A                      A                      A
 Frequencies --  1354.6785              1362.7716              1365.7931
 Red. masses --     1.2534                 1.3726                 1.6463
 Frc consts  --     1.3552                 1.5019                 1.8094
 IR Inten    --    39.9845                15.4184                 6.6879
 Raman Activ --     2.6767                 3.3685                 7.5142

                    97                     98                     99
                     A                      A                      A
 Frequencies --  1371.7972              1382.1080              1412.3312
 Red. masses --     1.6529                 1.5519                 1.3230
 Frc consts  --     1.8326                 1.7466                 1.5549
 IR Inten    --    21.5071                 3.3808                 1.1779
 Raman Activ --     6.1816                 5.0769                 7.4374

                   100                    101                    102
                     A                      A                      A
 Frequencies --  1426.9681              1461.2940              1465.9349
 Red. masses --     1.4181                 1.3308                 1.3071
 Frc consts  --     1.7013                 1.6743                 1.6550
 IR Inten    --    26.2256                45.2474                10.3084
 Raman Activ --     1.4568                 2.3066                 1.1754

                   103                    104                    105
                     A                      A                      A
 Frequencies --  1471.9453              1474.1815              1482.3062
 Red. masses --     1.0841                 1.1012                 1.3526
 Frc consts  --     1.3839                 1.4100                 1.7510
 IR Inten    --     4.9007                 3.6593                30.6617
 Raman Activ --     5.4077                 3.5473                 0.6695

                   106                    107                    108
                     A                      A                      A
 Frequencies --  1508.8135              1526.9664              3240.5406
 Red. masses --     1.1922                 1.2549                 1.0673
 Frc consts  --     1.5991                 1.7240                 6.6032
 IR Inten    --    77.0578                57.9576               677.1895
 Raman Activ --     6.7323                 1.0038               132.8439

                   109                    110                    111
                     A                      A                      A
 Frequencies --  3255.3472              3263.1630              3269.1086
 Red. masses --     1.0581                 1.0598                 1.0803
 Frc consts  --     6.6064                 6.6491                 6.8025
 IR Inten    --    23.0478                34.0441                83.6025
 Raman Activ --    78.2845               189.0452               128.3822

                   112                    113                    114
                     A                      A                      A
 Frequencies --  3270.7189              3271.4883              3277.2027
 Red. masses --     1.0821                 1.0831                 1.0822
 Frc consts  --     6.8206                 6.8301                 6.8481
 IR Inten    --    20.3161                17.5564                34.0939
 Raman Activ --    42.2847                 2.8928               150.3714

                   115                    116                    117
                     A                      A                      A
 Frequencies --  3279.1649              3284.0952              3285.3143
 Red. masses --     1.0837                 1.0842                 1.0855
 Frc consts  --     6.8659                 6.8898                 6.9032
 IR Inten    --     5.7807                 4.1991                 4.2754
 Raman Activ --    76.3172                44.8407                 4.3427

                   118                    119                    120
                     A                      A                      A
 Frequencies --  3294.8567              3295.1219              3300.2895
 Red. masses --     1.0817                 1.0859                 1.0833
 Frc consts  --     6.9185                 6.9465                 6.9520
 IR Inten    --   386.1040                20.8315               195.9353
 Raman Activ --    96.4377                34.0575                39.4237

                   121                    122                    123
                     A                      A                      A
 Frequencies --  3304.3165              3311.7435              3317.1818
 Red. masses --     1.0819                 1.1034                 1.1055
 Frc consts  --     6.9599                 7.1301                 7.1671
 IR Inten    --   271.2201                80.2323                52.7623
 Raman Activ --    59.5828                42.1110                31.6007

                   124                    125                    126
                     A                      A                      A
 Frequencies --  3362.3107              3363.8465              3375.8968
 Red. masses --     1.0661                 1.0672                 1.0657
 Frc consts  --     7.1008                 7.1147                 7.1561
 IR Inten    --    49.6335                41.1853                44.6976
 Raman Activ --   128.5539               154.7860               108.8129

                   127                    128                    129
                     A                      A                      A
 Frequencies --  3382.6277              3889.6834              3892.7860
 Red. masses --     1.0677                 1.0675                 1.0673
 Frc consts  --     7.1977                 9.5158                 9.5294
 IR Inten    --    66.9791                71.3092                78.8039
 Raman Activ --   143.6148                90.3102               113.8997

 - Thermochemistry -
 -------------------
 Temperature   298.150 Kelvin.  Pressure   1.00000 Atm.
 Atom     1 has atomic number  8 and mass  15.99491

 Molecular mass:   342.11621 amu.
 Principal axes and moments of inertia in atomic units:
                           1         2         3
     Eigenvalues --  4393.15297********************
           X            0.99997  -0.00736  -0.00002
           Y            0.00736   0.99997  -0.00249
           Z            0.00003   0.00249   1.00000
 This molecule is an asymmetric top.
 Rotational symmetry number  1.
 Warning -- assumption of classical behavior for rotation
           may cause significant error
 Rotational temperatures (Kelvin)      0.01972     0.00695     0.00528
 Rotational constants (GHZ):           0.41081     0.14485     0.10997
    6 imaginary frequencies ignored.
 Zero-point vibrational energy     975953.2 (Joules/Mol)
                                  233.25841 (Kcal/Mol)
 Warning -- explicit consideration of  33 degrees of freedom as
           vibrations may cause significant error
 Vibrational temperatures:     33.13    91.57   106.50   118.15   151.68
          (Kelvin)            187.69   231.77   260.59   273.48   306.16
                              336.34   383.26   405.01   421.84   438.54
                              441.88   461.08   466.99   500.70   527.24
                              553.27   580.30   611.53   631.87   641.41
                              682.39   712.71   761.99   775.03   820.26
                              836.39   847.96   880.42   919.58   986.92
                             1026.68  1035.26  1036.97  1053.47  1065.69
                             1226.97  1236.62  1327.48  1339.06  1382.12
                             1407.01  1419.77  1430.38  1439.85  1457.64
                             1481.05  1486.55  1518.00  1531.15  1538.87
                             1544.50  1549.46  1577.48  1587.90  1594.55
                             1606.19  1610.17  1628.27  1641.73  1644.18
                             1655.28  1668.09  1680.79  1703.51  1717.21
                             1722.30  1775.47  1777.50  1780.81  1821.25
                             1825.51  1830.48  1851.84  1852.37  1870.16
                             1871.23  1885.00  1891.90  1920.90  1932.81
                             1934.55  1944.69  1949.08  1960.72  1965.07
                             1973.71  1988.54  2032.03  2053.09  2102.47
                             2109.15  2117.80  2121.02  2132.71  2170.84
                             2196.96  4662.41  4683.71  4694.96  4703.51
                             4705.83  4706.94  4715.16  4717.98  4725.07
                             4726.83  4740.56  4740.94  4748.37  4754.17
                             4764.85  4772.68  4837.61  4839.82  4857.16
                             4866.84  5596.38  5600.84

 Zero-point correction=                           0.371721 (Hartree/Particle)
 Thermal correction to Energy=                    0.390714
 Thermal correction to Enthalpy=                  0.391658
 Thermal correction to Gibbs Free Energy=         0.324800
 Sum of electronic and zero-point Energies=          -1297.615346
 Sum of electronic and thermal Energies=             -1297.596353
 Sum of electronic and thermal Enthalpies=           -1297.595409
 Sum of electronic and thermal Free Energies=        -1297.662267

                     E (Thermal)             CV                S
                      KCal/Mol        Cal/Mol-Kelvin    Cal/Mol-Kelvin
 Total                  245.177             77.617            140.715
 Electronic               0.000              0.000              0.000
 Translational            0.889              2.981             43.384
 Rotational               0.889              2.981             35.151
 Vibrational            243.399             71.655             62.180
 Vibration     1          0.593              1.985              6.355
 Vibration     2          0.597              1.972              4.341
 Vibration     3          0.599              1.966              4.044
 Vibration     4          0.600              1.961              3.840
 Vibration     5          0.605              1.945              3.352
 Vibration     6          0.612              1.923              2.939
 Vibration     7          0.622              1.890              2.537
 Vibration     8          0.630              1.865              2.317
 Vibration     9          0.633              1.854              2.227
 Vibration    10          0.644              1.821              2.020
 Vibration    11          0.654              1.789              1.850
 Vibration    12          0.672              1.735              1.620
 Vibration    13          0.681              1.708              1.525
 Vibration    14          0.688              1.686              1.455
 Vibration    15          0.696              1.665              1.390
 Vibration    16          0.697              1.660              1.378
 Vibration    17          0.706              1.634              1.308
 Vibration    18          0.709              1.626              1.287
 Vibration    19          0.726              1.579              1.175
 Vibration    20          0.739              1.541              1.095
 Vibration    21          0.753              1.503              1.021
 Vibration    22          0.769              1.463              0.950
 Vibration    23          0.787              1.416              0.875
 Vibration    24          0.799              1.385              0.829
 Vibration    25          0.805              1.370              0.809
 Vibration    26          0.831              1.307              0.726
 Vibration    27          0.851              1.260              0.670
 Vibration    28          0.885              1.184              0.588
 Vibration    29          0.894              1.165              0.568
 Vibration    30          0.926              1.096              0.504
 Vibration    31          0.938              1.072              0.483
 Vibration    32          0.947              1.054              0.468
 Vibration    33          0.971              1.007              0.430

 Normal termination of Gaussian 09 at Thu Mar 24 13:24:18 2016.
