 Gaussian 09, Revision B.01,
 Gaussian 09:  EM64L-G09RevB.01 12-Aug-2010

 ------------------------------------------------
 # freq=raman b3lyp/6-31+g(d,p) geom=connectivity
 ------------------------------------------------

 ------------
 320 8000.com
 ------------
 Symbolic Z-matrix:
 Charge =  0 Multiplicity = 1

                         Standard orientation:
 ---------------------------------------------------------------------
 Center     Atomic      Atomic             Coordinates (Angstroms)
 Number     Number       Type             X           Y           Z
 ---------------------------------------------------------------------
      1          8           0       -5.034181   -0.428436    0.512351
      2          6           0       -3.759012   -0.139647   -0.080042
      3          6           0       -3.259577    1.256571    0.252474
      4          8           0       -4.227469    2.261004   -0.085041
      5          1           0       -5.093161    1.853669    0.205582
      6          6           0       -1.863627    1.528168   -0.284228
      7          8           0       -1.289756    2.728864    0.253209
      8          1           0       -0.312795    2.807858    0.058242
      9          6           0       -2.959322   -2.539097   -0.084664
     10          8           0       -4.178723   -3.249540    0.173895
     11          1           0       -3.810954   -4.150933   -0.053874
     12          6           0       -2.654594   -1.104957    0.317823
     13          8           0       -1.406906   -0.820478   -0.332226
     14          6           0       -0.873453    0.440131    0.097773
     15          8           0        0.287941    0.484186   -0.744094
     16          6           0        1.489528    0.218804   -0.006376
     17          6           0        2.063377   -1.143510   -0.358592
     18          8           0        1.034323   -2.143506   -0.325961
     19          1           0        0.186063   -1.755967   -0.686670
     20          6           0        3.371447   -1.503583    0.326119
     21          8           0        3.909113   -2.717821   -0.217797
     22          1           0        4.871107   -2.743386    0.054208
     23          6           0        2.282992    2.634655    0.206570
     24          8           0        1.115095    3.298328   -0.298773
     25          1           0        1.419935    4.241028   -0.431170
     26          6           0        2.589030    1.228966   -0.286158
     27          8           0        3.831059    0.926255    0.364951
     28          6           0        4.282778   -0.359283   -0.085721
     29          8           0        5.413295   -0.654802    0.747736
     30          1           0        6.162112   -0.896019    0.197566
     31          1           0       -5.665585   -0.645758   -0.177359
     32          1           0       -2.181115   -3.132735    0.347642
     33          1           0       -2.820854   -2.577908   -1.144957
     34          1           0       -2.515817   -1.060257    1.377843
     35          1           0       -3.875621   -0.199280   -1.141996
     36          1           0       -3.170127    1.287145    1.318290
     37          1           0       -1.906516    1.605803   -1.350546
     38          1           0       -0.627335    0.446265    1.139065
     39          1           0        3.128206    3.248573   -0.024984
     40          1           0        2.193052    2.590400    1.271864
     41          1           0        2.756504    1.265662   -1.342334
     42          1           0        1.262368    0.237459    1.039067
     43          1           0        2.323992   -1.063645   -1.393291
     44          1           0        3.260738   -1.557210    1.389024
     45          1           0        4.528073   -0.376502   -1.127082
 ---------------------------------------------------------------------

 SCF Done:  E(RB3LYP) =  -1297.92141832     A.U. after   13 cycles

 The electronic state is 1-A.
 Alpha  occ. eigenvalues --  -19.20737 -19.20194 -19.19906 -19.19415 -19.19280
 Alpha  occ. eigenvalues --  -19.18090 -19.17636 -19.17154 -19.15698 -19.14246
 Alpha  occ. eigenvalues --  -19.12945 -10.31781 -10.31209 -10.26968 -10.26447
 Alpha  occ. eigenvalues --  -10.26219 -10.25907 -10.25636 -10.25418 -10.24489
 Alpha  occ. eigenvalues --  -10.24480 -10.24243 -10.23951  -1.11022  -1.10362
 Alpha  occ. eigenvalues --   -1.06983  -1.05521  -1.04967  -1.04291  -1.03288
 Alpha  occ. eigenvalues --   -1.03001  -1.01738  -1.00371  -0.99528  -0.82639
 Alpha  occ. eigenvalues --   -0.80420  -0.80250  -0.78400  -0.72156  -0.69746
 Alpha  occ. eigenvalues --   -0.67468  -0.65608  -0.63915  -0.62362  -0.62008
 Alpha  occ. eigenvalues --   -0.60472  -0.57280  -0.56911  -0.55811  -0.55083
 Alpha  occ. eigenvalues --   -0.53931  -0.53477  -0.53193  -0.52118  -0.51420
 Alpha  occ. eigenvalues --   -0.51237  -0.49940  -0.49312  -0.48758  -0.47101
 Alpha  occ. eigenvalues --   -0.46459  -0.45842  -0.44447  -0.44041  -0.43342
 Alpha  occ. eigenvalues --   -0.42603  -0.41858  -0.41320  -0.40706  -0.40500
 Alpha  occ. eigenvalues --   -0.39457  -0.38755  -0.38527  -0.36843  -0.36591
 Alpha  occ. eigenvalues --   -0.35993  -0.35285  -0.34574  -0.33902  -0.33763
 Alpha  occ. eigenvalues --   -0.33163  -0.32131  -0.31157  -0.31014  -0.30155
 Alpha  occ. eigenvalues --   -0.29335  -0.28807  -0.28337  -0.26978  -0.26407
 Alpha  occ. eigenvalues --   -0.26180
 Alpha virt. eigenvalues --   -0.02700  -0.02579  -0.01750  -0.00256   0.00061
 Alpha virt. eigenvalues --    0.00724   0.01953   0.02265   0.03224   0.03480
 Alpha virt. eigenvalues --    0.03910   0.04182   0.04711   0.05167   0.05650

 Mulliken atomic charges:
              1
     1  O   -0.531374
     2  C   -0.223561
     3  C    0.113368
     4  O   -0.495878
     5  H    0.354665
     6  C    0.065881
     7  O   -0.599425
     8  H    0.491896
     9  C   -0.204942
    10  O   -0.499767
    11  H    0.344469
    12  C    0.338489
    13  O   -0.424243
    14  C    0.056513
    15  O   -0.307812
    16  C    0.077412
    17  C   -0.041892
    18  O   -0.515047
    19  H    0.407340
    20  C    0.109467
    21  O   -0.479922
    22  H    0.334089
    23  C   -0.094413
    24  O   -0.621941
    25  H    0.402041
    26  C   -0.038676
    27  O   -0.293323
    28  C    0.194610
    29  O   -0.583448
    30  H    0.365412
    31  H    0.376192
    32  H    0.140993
    33  H    0.139791
    34  H    0.131896
    35  H    0.133292
    36  H    0.131091
    37  H    0.142198
    38  H    0.130294
    39  H    0.136453
    40  H    0.156430
    41  H    0.140361
    42  H    0.114196
    43  H    0.123078
    44  H    0.153547
    45  H    0.150201
 Sum of Mulliken atomic charges =   0.00000

 Dipole moment (field-independent basis, Debye):
    X=              4.3917    Y=              0.3949    Z=             -1.9828  Tot=              4.8347
 Quadrupole moment (field-independent basis, Debye-Ang):
   XX=           -119.6737   YY=           -141.1425   ZZ=           -139.6527
   XY=             16.2653   XZ=             -0.7123   YZ=             -0.7979

  Exact polarizability: 228.336  -0.868 190.578   1.011   0.914 140.203
 Approx polarizability: 267.277   0.049 246.472   1.410   1.681 230.900

 ******    7 imaginary frequencies (negative Signs) ******

                     1                      2                      3
                     A                      A                      A
 Frequencies --  -337.7194              -286.6907              -263.8694
 Red. masses --     1.7065                 1.1997                 1.1667
 Frc consts  --     0.1147                 0.0581                 0.0479
 IR Inten    --     5.2781               127.2179               121.6838
 Raman Activ --     0.0770                 1.3889                 0.7064

                     4                      5                      6
                     A                      A                      A
 Frequencies --  -249.2689               -91.9949               -81.5031
 Red. masses --     1.7408                 6.8177                 6.6572
 Frc consts  --     0.0637                 0.0340                 0.0261
 IR Inten    --     0.6466                 3.1247                 0.5802
 Raman Activ --     0.0394                 0.0611                 0.0322

                     7                      8                      9
                     A                      A                      A
 Frequencies --   -44.3079                35.3827                76.1351
 Red. masses --     6.0821                 6.5454                 6.3090
 Frc consts  --     0.0070                 0.0048                 0.0215
 IR Inten    --     0.3835                 0.1509                 0.3242
 Raman Activ --     0.0199                 0.0490                 0.2300

                    10                     11                     12
                     A                      A                      A
 Frequencies --    84.0970                85.9787               119.1116
 Red. masses --     6.7037                 6.1989                 5.6141
 Frc consts  --     0.0279                 0.0270                 0.0469
 IR Inten    --     0.2196                 3.9358                 1.0375
 Raman Activ --     0.0671                 0.0234                 0.0520

                    13                     14                     15
                     A                      A                      A
 Frequencies --   154.5449               171.2757               191.2876
 Red. masses --     6.5263                 7.0070                 6.1125
 Frc consts  --     0.0918                 0.1211                 0.1318
 IR Inten    --     2.0624                 0.3813                 4.3288
 Raman Activ --     0.3198                 0.7572                 0.8074

                    16                     17                     18
                     A                      A                      A
 Frequencies --   220.7496               233.9053               273.2930
 Red. masses --     6.7509                 6.2786                 4.4720
 Frc consts  --     0.1938                 0.2024                 0.1968
 IR Inten    --     1.7157                 1.3826                13.7207
 Raman Activ --     2.2954                 0.6399                 0.5984

                    19                     20                     21
                     A                      A                      A
 Frequencies --   276.6460               299.6068               317.5680
 Red. masses --     4.5837                 5.0941                 5.2025
 Frc consts  --     0.2067                 0.2694                 0.3091
 IR Inten    --     3.1687                 2.3486                 2.8382
 Raman Activ --     0.0588                 0.3459                 1.3116

                    22                     23                     24
                     A                      A                      A
 Frequencies --   322.6792               325.7518               340.6756
 Red. masses --     5.1456                 6.6181                 5.0239
 Frc consts  --     0.3157                 0.4138                 0.3435
 IR Inten    --     1.6747                 3.1569                 5.5195
 Raman Activ --     0.7624                 4.4799                 0.3021

                    25                     26                     27
                     A                      A                      A
 Frequencies --   355.9484               362.7320               383.8397
 Red. masses --     5.0370                 5.4596                 8.1803
 Frc consts  --     0.3760                 0.4232                 0.7101
 IR Inten    --    13.7461                 5.5398                 4.6149
 Raman Activ --     0.6990                 0.9108                 2.6574

                    28                     29                     30
                     A                      A                      A
 Frequencies --   415.9296               432.5356               441.8625
 Red. masses --     3.7623                 5.4081                 5.1916
 Frc consts  --     0.3835                 0.5961                 0.5972
 IR Inten    --    24.5561                 1.7449                 0.9956
 Raman Activ --     0.9672                 5.0289                 4.6353

                    31                     32                     33
                     A                      A                      A
 Frequencies --   443.4805               479.2594               495.6210
 Red. masses --     5.5950                 4.8703                 4.9352
 Frc consts  --     0.6483                 0.6591                 0.7143
 IR Inten    --     0.4487                 5.2207                 6.6258
 Raman Activ --     1.6131                 3.0963                 2.5703

                    34                     35                     36
                     A                      A                      A
 Frequencies --   509.4701               537.2947               574.0140
 Red. masses --     3.3972                 3.0754                 3.9129
 Frc consts  --     0.5195                 0.5231                 0.7596
 IR Inten    --    17.0489                 3.8000                25.7542
 Raman Activ --     1.8335                 4.8281                 1.3849

                    37                     38                     39
                     A                      A                      A
 Frequencies --   597.7595               607.4916               632.1583
 Red. masses --     3.3219                 5.2025                 5.5918
 Frc consts  --     0.6993                 1.1312                 1.3166
 IR Inten    --    22.4007                 5.5008                45.6424
 Raman Activ --     0.2739                 0.9800                 0.9902

                    40                     41                     42
                     A                      A                      A
 Frequencies --   646.9848               680.0735               696.1529
 Red. masses --     3.8209                 1.1073                 5.7842
 Frc consts  --     0.9423                 0.3017                 1.6516
 IR Inten    --    17.5028               118.0707                12.9097
 Raman Activ --     0.7019                 1.8709                 2.5156

                    43                     44                     45
                     A                      A                      A
 Frequencies --   716.6779               748.9146               750.2442
 Red. masses --     1.1400                 1.0801                 1.0754
 Frc consts  --     0.3450                 0.3569                 0.3566
 IR Inten    --    80.0211               170.8803               118.8274
 Raman Activ --     1.2121                 5.0073                 1.3905

                    46                     47                     48
                     A                      A                      A
 Frequencies --   752.2339               835.7952               853.6208
 Red. masses --     1.0711                 1.2602                 1.7597
 Frc consts  --     0.3571                 0.5186                 0.7555
 IR Inten    --    68.3877                36.3196                 9.7209
 Raman Activ --     1.6401                 0.3201                 1.2350

                    49                     50                     51
                     A                      A                      A
 Frequencies --   878.7945               944.1682               970.2836
 Red. masses --     1.3430                 5.3556                 3.9614
 Frc consts  --     0.6111                 2.8129                 2.1974
 IR Inten    --    26.4493               105.9167                53.5450
 Raman Activ --     0.6969                 3.1597                 0.6072

                    52                     53                     54
                     A                      A                      A
 Frequencies --   982.8360               990.2195              1002.0271
 Red. masses --     4.4956                 4.5906                 6.6457
 Frc consts  --     2.5586                 2.6521                 3.9315
 IR Inten    --    60.7060                52.3716                77.8224
 Raman Activ --     1.5930                 1.6267                 1.5785

                    55                     56                     57
                     A                      A                      A
 Frequencies --  1011.9939              1026.7313              1033.4024
 Red. masses --     5.5719                 5.6670                 5.4653
 Frc consts  --     3.3621                 3.5198                 3.4388
 IR Inten    --   401.1256                51.2036                59.1967
 Raman Activ --     1.1158                 3.2479                 2.3675

                    58                     59                     60
                     A                      A                      A
 Frequencies --  1055.3025              1067.5803              1072.2303
 Red. masses --     4.2413                 3.1291                 3.0228
 Frc consts  --     2.7829                 2.1012                 2.0476
 IR Inten    --   262.8457               103.4700                12.5112
 Raman Activ --     3.0330                 7.7640                 2.5542

                    61                     62                     63
                     A                      A                      A
 Frequencies --  1076.2961              1087.1893              1093.2100
 Red. masses --     2.4105                 4.1556                 4.7830
 Frc consts  --     1.6452                 2.8940                 3.3679
 IR Inten    --    12.5002                66.9554                13.1661
 Raman Activ --    13.6026                 1.5376                 4.2857

                    64                     65                     66
                     A                      A                      A
 Frequencies --  1095.9858              1114.2992              1121.7115
 Red. masses --     4.3563                 2.3068                 2.5976
 Frc consts  --     3.0830                 1.6876                 1.9257
 IR Inten    --   179.0940                94.5489                10.8710
 Raman Activ --     0.3036                 1.8522                 4.7298

                    67                     68                     69
                     A                      A                      A
 Frequencies --  1125.6600              1130.7211              1143.7952
 Red. masses --     2.9041                 2.2676                 2.7284
 Frc consts  --     2.1681                 1.7082                 2.1031
 IR Inten    --    54.4474                37.0520                41.3757
 Raman Activ --    13.8410                 7.9970                16.2220

                    70                     71                     72
                     A                      A                      A
 Frequencies --  1145.1478              1152.2070              1164.7412
 Red. masses --     3.1291                 2.7017                 2.0070
 Frc consts  --     2.4176                 2.1133                 1.6042
 IR Inten    --    20.7378                34.2945                38.8549
 Raman Activ --     1.5611                 4.0355                 4.1818

                    73                     74                     75
                     A                      A                      A
 Frequencies --  1173.0474              1179.4345              1190.4755
 Red. masses --     1.9618                 1.6850                 2.1397
 Frc consts  --     1.5905                 1.3810                 1.7867
 IR Inten    --    22.1660                14.3915                 1.7751
 Raman Activ --     3.9447                 2.0737                 2.2662

                    76                     77                     78
                     A                      A                      A
 Frequencies --  1201.6752              1221.1483              1230.7346
 Red. masses --     1.5835                 1.2752                 1.4872
 Frc consts  --     1.3472                 1.1204                 1.3272
 IR Inten    --    19.1579                18.4496                 2.8330
 Raman Activ --     4.4198                 2.3678                 0.4519

                    79                     80                     81
                     A                      A                      A
 Frequencies --  1231.1458              1242.6828              1251.5140
 Red. masses --     1.2984                 1.2732                 1.3385
 Frc consts  --     1.1595                 1.1585                 1.2352
 IR Inten    --    17.7573                 4.3755                56.8582
 Raman Activ --     2.8177                 1.6583                 2.5011

                    82                     83                     84
                     A                      A                      A
 Frequencies --  1273.5728              1278.5213              1298.2549
 Red. masses --     1.2887                 1.4136                 1.2061
 Frc consts  --     1.2315                 1.3614                 1.1977
 IR Inten    --     2.3181                21.2120                 1.8496
 Raman Activ --     2.7113                 1.3126                 5.2723

                    85                     86                     87
                     A                      A                      A
 Frequencies --  1303.6213              1309.3414              1312.6583
 Red. masses --     1.2583                 1.4012                 1.4140
 Frc consts  --     1.2599                 1.4153                 1.4355
 IR Inten    --    29.0399                 5.9125                46.4551
 Raman Activ --     4.3122                 3.3879                 3.0840

                    88                     89                     90
                     A                      A                      A
 Frequencies --  1326.1183              1329.0782              1341.2935
 Red. masses --     1.3064                 1.2970                 1.2648
 Frc consts  --     1.3536                 1.3499                 1.3406
 IR Inten    --     6.0427                19.5415                 3.2832
 Raman Activ --     6.9503                 7.2730                 4.4541

                    91                     92                     93
                     A                      A                      A
 Frequencies --  1345.7936              1356.3285              1366.9867
 Red. masses --     1.4725                 1.2120                 1.3592
 Frc consts  --     1.5713                 1.3136                 1.4964
 IR Inten    --     4.0039                11.1162                42.5076
 Raman Activ --     5.8700                 6.4303                 4.1897

                    94                     95                     96
                     A                      A                      A
 Frequencies --  1371.6633              1377.6617              1382.6382
 Red. masses --     1.3878                 1.1645                 1.3450
 Frc consts  --     1.5384                 1.3022                 1.5149
 IR Inten    --     5.8696                27.7620                24.5887
 Raman Activ --    10.0560                 4.4684                 4.8776

                    97                     98                     99
                     A                      A                      A
 Frequencies --  1389.3774              1413.2683              1419.2778
 Red. masses --     1.2049                 1.2728                 1.4406
 Frc consts  --     1.3704                 1.4978                 1.7097
 IR Inten    --    15.0987                22.2263                23.3435
 Raman Activ --     4.6516                 9.3140                 1.6535

                   100                    101                    102
                     A                      A                      A
 Frequencies --  1426.6871              1432.3841              1463.8841
 Red. masses --     1.2623                 1.3871                 1.4820
 Frc consts  --     1.5139                 1.6767                 1.8711
 IR Inten    --    19.2505                66.9978                32.1861
 Raman Activ --     1.1747                 1.5716                 1.5206

                   103                    104                    105
                     A                      A                      A
 Frequencies --  1467.9696              1474.1636              1482.5122
 Red. masses --     1.2954                 1.3404                 1.1207
 Frc consts  --     1.6447                 1.7163                 1.4513
 IR Inten    --    17.4020                45.0007                12.5856
 Raman Activ --     2.6386                 4.1056                 3.0892

                   106                    107                    108
                     A                      A                      A
 Frequencies --  1483.1631              1527.2259              3253.2017
 Red. masses --     1.1145                 1.3126                 1.0688
 Frc consts  --     1.4444                 1.8038                 6.6647
 IR Inten    --    11.7533                20.6599              1073.2927
 Raman Activ --     3.8836                 1.0429               154.5332

                   109                    110                    111
                     A                      A                      A
 Frequencies --  3261.1508              3262.3779              3274.8631
 Red. masses --     1.0590                 1.0810                 1.0794
 Frc consts  --     6.6358                 6.7788                 6.8204
 IR Inten    --    73.5516                92.0675                17.5099
 Raman Activ --    71.7735                27.9628               145.2546

                   112                    113                    114
                     A                      A                      A
 Frequencies --  3277.4580              3285.5102              3285.8876
 Red. masses --     1.0623                 1.0842                 1.0837
 Frc consts  --     6.7231                 6.8954                 6.8936
 IR Inten    --    72.1436                 7.3691                 0.6600
 Raman Activ --   139.7947               135.0375                10.1860

                   115                    116                    117
                     A                      A                      A
 Frequencies --  3296.6209              3297.9172              3305.6516
 Red. masses --     1.0891                 1.0870                 1.0874
 Frc consts  --     6.9738                 6.9654                 7.0009
 IR Inten    --     8.1583                28.2541                20.5929
 Raman Activ --    28.7719                24.3609                45.4427

                   118                    119                    120
                     A                      A                      A
 Frequencies --  3312.6718              3313.2927              3319.1234
 Red. masses --     1.0871                 1.0986                 1.0868
 Frc consts  --     7.0289                 7.1056                 7.0541
 IR Inten    --     1.2508                46.3650                47.9807
 Raman Activ --   120.2888                27.1848                17.0612

                   121                    122                    123
                     A                      A                      A
 Frequencies --  3322.7360              3333.9382              3353.2410
 Red. masses --     1.0875                 1.1070                 1.0670
 Frc consts  --     7.0744                 7.2493                 7.0690
 IR Inten    --    66.2442                55.3869               475.3997
 Raman Activ --     7.2869                34.6254               142.4101

                   124                    125                    126
                     A                      A                      A
 Frequencies --  3383.9605              3387.2131              3392.3760
 Red. masses --     1.0651                 1.0647                 1.0653
 Frc consts  --     7.1861                 7.1969                 7.2234
 IR Inten    --    38.2926                26.1045                36.3285
 Raman Activ --    92.4204               123.8427               107.6992

                   127                    128                    129
                     A                      A                      A
 Frequencies --  3406.9770              3915.9397              3920.9854
 Red. masses --     1.0678                 1.0676                 1.0678
 Frc consts  --     7.3027                 9.6456                 9.6723
 IR Inten    --    64.5084                59.7425                85.1718
 Raman Activ --   150.4896               116.5262                87.9820

 - Thermochemistry -
 -------------------
 Temperature   298.150 Kelvin.  Pressure   1.00000 Atm.
 Atom     1 has atomic number  8 and mass  15.99491

 Molecular mass:   342.11621 amu.
 Principal axes and moments of inertia in atomic units:
                           1         2         3
     Eigenvalues --  4371.67846********************
           X            0.99997   0.00738  -0.00044
           Y           -0.00738   0.99997   0.00188
           Z            0.00045  -0.00188   1.00000
 This molecule is an asymmetric top.
 Rotational symmetry number  1.
 Warning -- assumption of classical behavior for rotation
           may cause significant error
 Rotational temperatures (Kelvin)      0.01981     0.00706     0.00534
 Rotational constants (GHZ):           0.41283     0.14709     0.11127
    7 imaginary frequencies ignored.
 Zero-point vibrational energy     980960.0 (Joules/Mol)
                                  234.45508 (Kcal/Mol)
 Warning -- explicit consideration of  31 degrees of freedom as
           vibrations may cause significant error
 Vibrational temperatures:     50.91   109.54   121.00   123.70   171.37
          (Kelvin)            222.36   246.43   275.22   317.61   336.54
                              393.21   398.03   431.07   456.91   464.26
                              468.68   490.16   512.13   521.89   552.26
                              598.43   622.32   635.74   638.07   689.55
                              713.09   733.01   773.05   825.88   860.04
                              874.04   909.53   930.87   978.47  1001.61
                             1031.14  1077.52  1079.43  1082.30  1202.52
                             1228.17  1264.39  1358.45  1396.02  1414.08
                             1424.70  1441.69  1456.03  1477.24  1486.83
                             1518.34  1536.01  1542.70  1548.55  1564.22
                             1572.88  1576.88  1603.23  1613.89  1619.57
                             1626.85  1645.66  1647.61  1657.77  1675.80
                             1687.75  1696.94  1712.83  1728.94  1756.96
                             1770.75  1771.34  1787.94  1800.65  1832.38
                             1839.50  1867.90  1875.62  1883.85  1888.62
                             1907.99  1912.24  1929.82  1936.29  1951.45
                             1966.79  1973.52  1982.15  1989.31  1999.00
                             2033.38  2042.02  2052.68  2060.88  2106.20
                             2112.08  2120.99  2133.00  2133.94  2197.33
                             4680.63  4692.06  4693.83  4711.79  4715.53
                             4727.11  4727.65  4743.10  4744.96  4756.09
                             4766.19  4767.08  4775.47  4780.67  4796.79
                             4824.56  4868.76  4873.44  4880.87  4901.87
                             5634.16  5641.42

 Zero-point correction=                           0.373628 (Hartree/Particle)
 Thermal correction to Energy=                    0.391700
 Thermal correction to Enthalpy=                  0.392644
 Thermal correction to Gibbs Free Energy=         0.328258
 Sum of electronic and zero-point Energies=          -1297.547790
 Sum of electronic and thermal Energies=             -1297.529719
 Sum of electronic and thermal Enthalpies=           -1297.528775
 Sum of electronic and thermal Free Energies=        -1297.593160

                     E (Thermal)             CV                S
                      KCal/Mol        Cal/Mol-Kelvin    Cal/Mol-Kelvin
 Total                  245.795             75.110            135.511
 Electronic               0.000              0.000              0.000
 Translational            0.889              2.981             43.384
 Rotational               0.889              2.981             35.119
 Vibrational            244.018             69.148             57.008
 Vibration     1          0.594              1.982              5.502
 Vibration     2          0.599              1.965              3.988
 Vibration     3          0.601              1.960              3.793
 Vibration     4          0.601              1.959              3.750
 Vibration     5          0.609              1.933              3.115
 Vibration     6          0.620              1.898              2.616
 Vibration     7          0.626              1.878              2.421
 Vibration     8          0.634              1.852              2.215
 Vibration     9          0.647              1.809              1.953
 Vibration    10          0.654              1.789              1.849
 Vibration    11          0.676              1.723              1.575
 Vibration    12          0.678              1.717              1.554
 Vibration    13          0.692              1.674              1.419
 Vibration    14          0.704              1.640              1.323
 Vibration    15          0.708              1.630              1.296
 Vibration    16          0.710              1.624              1.281
 Vibration    17          0.720              1.594              1.209
 Vibration    18          0.731              1.563              1.140
 Vibration    19          0.737              1.549              1.110
 Vibration    20          0.753              1.505              1.024
 Vibration    21          0.779              1.436              0.906
 Vibration    22          0.793              1.399              0.850
 Vibration    23          0.802              1.379              0.821
 Vibration    24          0.803              1.375              0.816
 Vibration    25          0.836              1.296              0.712
 Vibration    26          0.851              1.260              0.669
 Vibration    27          0.865              1.229              0.635
 Vibration    28          0.892              1.168              0.571
 Vibration    29          0.930              1.087              0.497
 Vibration    30          0.956              1.037              0.454
 Vibration    31          0.966              1.016              0.437

 Normal termination of Gaussian 09 at Thu Jan 21 04:59:23 2016.
