 Gaussian 09, Revision B.01,
 Gaussian 09:  EM64L-G09RevB.01 12-Aug-2010

 -------------------------------------------------
 # freq=raman b3lyp/6-31+g(2d,p) geom=connectivity
 -------------------------------------------------

 -----------------
 450 7275/7275.com
 -----------------
 Symbolic Z-matrix:
 Charge =  0 Multiplicity = 1

                         Standard orientation:
 ---------------------------------------------------------------------
 Center     Atomic      Atomic             Coordinates (Angstroms)
 Number     Number       Type             X           Y           Z
 ---------------------------------------------------------------------
      1          8           0       -4.848175    0.753099   -0.683461
      2          6           0       -3.847318    0.193358    0.179311
      3          6           0       -3.386730   -1.186013   -0.264270
      4          8           0       -4.334657   -2.117016    0.279548
      5          1           0       -5.285005   -1.855593    0.112594
      6          6           0       -1.980638   -1.584264    0.153238
      7          8           0       -1.577353   -2.884007   -0.303710
      8          1           0       -2.323270   -3.475484   -0.608819
      9          6           0       -3.154373    2.432420    0.609376
     10          8           0       -2.308514    3.541271    0.272677
     11          1           0       -2.628524    4.349609    0.766223
     12          6           0       -2.708810    1.161125   -0.095967
     13          8           0       -1.394085    0.679800    0.222231
     14          6           0       -0.946081   -0.573051   -0.314060
     15          8           0        0.226563   -0.635300    0.509273
     16          6           0        1.495454   -0.355726   -0.099601
     17          6           0        1.813376    1.123375    0.052412
     18          8           0        0.880063    1.967467   -0.638149
     19          1           0       -0.050236    1.617136   -0.530094
     20          6           0        3.238491    1.338934   -0.429021
     21          8           0        3.481294    2.746244   -0.290326
     22          1           0        2.657944    3.225742   -0.595032
     23          6           0        2.131681   -2.610399    0.650144
     24          8           0        2.119515   -3.171518   -0.671005
     25          1           0        1.201257   -3.111911   -1.063458
     26          6           0        2.547938   -1.148324    0.658403
     27          8           0        3.827021   -0.920208    0.047472
     28          6           0        4.185515    0.436558    0.345571
     29          8           0        5.521906    0.583624   -0.154182
     30          1           0       -5.719912    0.522482   -0.354081
     31          1           0       -3.121035    2.275584    1.667295
     32          1           0       -4.159483    2.658813    0.320588
     33          1           0       -2.716461    1.365409   -1.146257
     34          1           0       -4.145882    0.211271    1.206656
     35          1           0       -3.444141   -1.231429   -1.331763
     36          1           0       -1.956863   -1.598454    1.222879
     37          1           0       -0.757093   -0.559206   -1.367147
     38          1           0        6.130966    0.109318    0.416502
     39          1           0        4.138258    0.629750    1.396924
     40          1           0        3.293368    1.082319   -1.466343
     41          1           0        1.773197    1.367014    1.093530
     42          1           0        1.486594   -0.634554   -1.132595
     43          1           0        2.580681   -0.802858    1.670570
     44          1           0        2.815184   -3.167735    1.256032
     45          1           0        1.150808   -2.692829    1.069658
 ---------------------------------------------------------------------

 SCF Done:  E(RB3LYP) =  -1297.98549184     A.U. after   14 cycles

 The electronic state is 1-A.
 Alpha  occ. eigenvalues --  -19.19794 -19.18886 -19.18754 -19.18132 -19.17455
 Alpha  occ. eigenvalues --  -19.16285 -19.15980 -19.15117 -19.14513 -19.13962
 Alpha  occ. eigenvalues --  -19.13391 -10.32085 -10.28734 -10.27478 -10.27393
 Alpha  occ. eigenvalues --  -10.27113 -10.26163 -10.24792 -10.23986 -10.23738
 Alpha  occ. eigenvalues --  -10.22932 -10.22907 -10.22325  -1.10955  -1.08187
 Alpha  occ. eigenvalues --   -1.07201  -1.05933  -1.03996  -1.03688  -1.02619
 Alpha  occ. eigenvalues --   -1.01942  -1.01123  -1.00137  -0.99122  -0.83073
 Alpha  occ. eigenvalues --   -0.82022  -0.78731  -0.77020  -0.72371  -0.69663
 Alpha  occ. eigenvalues --   -0.68243  -0.65141  -0.64059  -0.62795  -0.60772
 Alpha  occ. eigenvalues --   -0.60293  -0.58098  -0.56450  -0.55789  -0.54278
 Alpha  occ. eigenvalues --   -0.53651  -0.53193  -0.52770  -0.51947  -0.50638
 Alpha  occ. eigenvalues --   -0.49988  -0.49633  -0.49374  -0.48042  -0.46736
 Alpha  occ. eigenvalues --   -0.46585  -0.45175  -0.44522  -0.44136  -0.43400
 Alpha  occ. eigenvalues --   -0.42733  -0.42394  -0.40542  -0.40288  -0.39792
 Alpha  occ. eigenvalues --   -0.39487  -0.37560  -0.37288  -0.36646  -0.36163
 Alpha  occ. eigenvalues --   -0.35277  -0.34944  -0.34562  -0.33660  -0.33527
 Alpha  occ. eigenvalues --   -0.32505  -0.31392  -0.31130  -0.30102  -0.29792
 Alpha  occ. eigenvalues --   -0.29444  -0.28895  -0.28410  -0.27630  -0.26262
 Alpha  occ. eigenvalues --   -0.25481
 Alpha virt. eigenvalues --   -0.04654  -0.01998  -0.01166  -0.00194   0.00496
 Alpha virt. eigenvalues --    0.00962   0.01264   0.02262   0.02844   0.03230
 Alpha virt. eigenvalues --    0.03639   0.04410   0.04968   0.05434   0.05689

 Mulliken atomic charges:
              1
     1  O   -0.526969
     2  C   -0.001856
     3  C    0.174151
     4  O   -0.564570
     5  H    0.327199
     6  C   -0.024420
     7  O   -0.586554
     8  H    0.354388
     9  C   -0.402295
    10  O   -0.514474
    11  H    0.331113
    12  C    0.161256
    13  O   -0.262415
    14  C    0.306768
    15  O   -0.269123
    16  C   -0.107770
    17  C    0.161045
    18  O   -0.624227
    19  H    0.399639
    20  C   -0.040726
    21  O   -0.550499
    22  H    0.358542
    23  C   -0.426951
    24  O   -0.462718
    25  H    0.332441
    26  C    0.371313
    27  O   -0.275716
    28  C    0.291790
    29  O   -0.517002
    30  H    0.325383
    31  H    0.139695
    32  H    0.171775
    33  H    0.130585
    34  H    0.139076
    35  H    0.135452
    36  H    0.143729
    37  H    0.150967
    38  H    0.321918
    39  H    0.125690
    40  H    0.130391
    41  H    0.123069
    42  H    0.130953
    43  H    0.111884
    44  H    0.134156
    45  H    0.173920
 Sum of Mulliken atomic charges =   0.00000

 Dipole moment (field-independent basis, Debye):
    X=            -10.3258    Y=             -0.8566    Z=              2.7995  Tot=             10.7328
 Quadrupole moment (field-independent basis, Debye-Ang):
   XX=           -117.9981   YY=           -148.8159   ZZ=           -134.3584
   XY=             -7.5089   XZ=              9.4902   YZ=              6.3915

  Exact polarizability: 227.819   2.449 196.526   1.694   0.409 146.733
 Approx polarizability: 273.514  -0.371 256.993   0.608   1.521 242.322

 ******    5 imaginary frequencies (negative Signs) ******

                     1                      2                      3
                     A                      A                      A
 Frequencies --  -192.1074              -184.6082               -96.9115
 Red. masses --     2.0247                 1.0709                 3.0096
 Frc consts  --     0.0440                 0.0215                 0.0167
 IR Inten    --     3.9395               113.1954                15.7575
 Raman Activ --     0.0772                 1.6060                 0.1143

                     4                      5                      6
                     A                      A                      A
 Frequencies --   -70.6664               -42.2364                24.1720
 Red. masses --     5.9805                 6.5784                 5.8255
 Frc consts  --     0.0176                 0.0069                 0.0020
 IR Inten    --     1.6822                 1.1586                 2.1034
 Raman Activ --     0.0923                 0.1033                 0.0385

                     7                      8                      9
                     A                      A                      A
 Frequencies --    33.6356                52.1300                58.9337
 Red. masses --     4.2453                 5.7201                 5.9814
 Frc consts  --     0.0028                 0.0092                 0.0122
 IR Inten    --     1.4984                 0.4303                 1.9420
 Raman Activ --     0.0668                 0.1709                 0.0824

                    10                     11                     12
                     A                      A                      A
 Frequencies --    74.4987               114.6566               136.2980
 Red. masses --     6.3692                 1.6944                 6.4378
 Frc consts  --     0.0208                 0.0131                 0.0705
 IR Inten    --     2.6800                60.5636                 3.7898
 Raman Activ --     0.0943                 0.9206                 0.1341

                    13                     14                     15
                     A                      A                      A
 Frequencies --   156.3833               167.8738               183.4385
 Red. masses --     3.3216                 6.6333                 6.0431
 Frc consts  --     0.0479                 0.1101                 0.1198
 IR Inten    --    15.4289                 5.4291                 1.1012
 Raman Activ --     0.5624                 0.6959                 0.9978

                    16                     17                     18
                     A                      A                      A
 Frequencies --   224.1124               240.4419               269.5844
 Red. masses --     3.4193                 4.8126                 5.2196
 Frc consts  --     0.1012                 0.1639                 0.2235
 IR Inten    --     1.2300                 0.2909                 8.0912
 Raman Activ --     0.6810                 1.3594                 0.3254

                    19                     20                     21
                     A                      A                      A
 Frequencies --   274.2355               280.6467               300.1429
 Red. masses --     5.6019                 4.8757                 6.5332
 Frc consts  --     0.2482                 0.2263                 0.3468
 IR Inten    --     8.0884                 9.6593                 0.9802
 Raman Activ --     0.1518                 0.3463                 0.8788

                    22                     23                     24
                     A                      A                      A
 Frequencies --   311.7819               323.5726               339.8061
 Red. masses --     5.1455                 4.9057                 4.8734
 Frc consts  --     0.2947                 0.3026                 0.3315
 IR Inten    --     6.0269                13.4552                 8.3038
 Raman Activ --     0.3226                 0.3185                 3.8919

                    25                     26                     27
                     A                      A                      A
 Frequencies --   351.8117               376.8091               397.5266
 Red. masses --     6.1885                 4.8301                 5.0154
 Frc consts  --     0.4513                 0.4041                 0.4670
 IR Inten    --     1.3817                 5.4607                 2.4640
 Raman Activ --     3.8621                 0.5956                 2.2348

                    28                     29                     30
                     A                      A                      A
 Frequencies --   407.5136               424.8093               439.3414
 Red. masses --     5.1444                 5.8958                 5.1149
 Frc consts  --     0.5033                 0.6269                 0.5817
 IR Inten    --    14.4208                 2.0459                 1.4243
 Raman Activ --     3.3205                 3.0399                 0.7457

                    31                     32                     33
                     A                      A                      A
 Frequencies --   471.0475               495.2032               511.4092
 Red. masses --     5.6866                 3.5868                 4.5431
 Frc consts  --     0.7434                 0.5182                 0.7001
 IR Inten    --     6.4047                 2.0262                13.6647
 Raman Activ --     1.5689                 1.2435                 6.0183

                    34                     35                     36
                     A                      A                      A
 Frequencies --   542.8179               556.9796               565.6295
 Red. masses --     3.9867                 4.2180                 3.7873
 Frc consts  --     0.6921                 0.7710                 0.7139
 IR Inten    --    10.9693                15.4743                36.6622
 Raman Activ --     1.1976                 5.1291                 0.3024

                    37                     38                     39
                     A                      A                      A
 Frequencies --   593.6371               617.5222               633.6866
 Red. masses --     3.4026                 3.2362                 2.8530
 Frc consts  --     0.7065                 0.7271                 0.6750
 IR Inten    --    24.8908                 4.7831                16.4413
 Raman Activ --     1.1090                 0.4669                 0.2881

                    40                     41                     42
                     A                      A                      A
 Frequencies --   648.2665               672.2178               681.1621
 Red. masses --     1.2304                 2.7227                 1.1822
 Frc consts  --     0.3047                 0.7249                 0.3232
 IR Inten    --    64.2070                37.8042                78.5253
 Raman Activ --     1.9108                 1.0268                 1.5427

                    43                     44                     45
                     A                      A                      A
 Frequencies --   706.3896               710.1333               727.5192
 Red. masses --     1.1238                 3.5746                 1.0712
 Frc consts  --     0.3304                 1.0621                 0.3340
 IR Inten    --   104.4401                 1.7646                80.8795
 Raman Activ --     2.1448                 0.7945                 0.4945

                    46                     47                     48
                     A                      A                      A
 Frequencies --   745.1932               787.6887               833.2593
 Red. masses --     1.0681                 1.0811                 2.7283
 Frc consts  --     0.3495                 0.3952                 1.1161
 IR Inten    --   155.6072                11.9646                11.6108
 Raman Activ --     1.3027                 0.3934                 7.8130

                    49                     50                     51
                     A                      A                      A
 Frequencies --   855.2748               899.9191               902.8806
 Red. masses --     2.4703                 3.4938                 3.8757
 Frc consts  --     1.0647                 1.6671                 1.8615
 IR Inten    --     1.4394               110.5490                94.0788
 Raman Activ --     3.6587                 3.3794                 1.9897

                    52                     53                     54
                     A                      A                      A
 Frequencies --   958.4385               975.3773               987.5790
 Red. masses --     6.9855                 6.6029                 4.3857
 Frc consts  --     3.7807                 3.7011                 2.5202
 IR Inten    --   198.9523                61.4826                40.0626
 Raman Activ --     1.5738                 3.0118                 2.3582

                    55                     56                     57
                     A                      A                      A
 Frequencies --   992.3950              1003.4752              1019.3232
 Red. masses --     6.6222                 6.7917                 3.7330
 Frc consts  --     3.8425                 4.0294                 2.2852
 IR Inten    --   136.0879               234.0888                63.4660
 Raman Activ --     0.6504                 1.4044                 5.1543

                    58                     59                     60
                     A                      A                      A
 Frequencies --  1026.3134              1036.2293              1045.1457
 Red. masses --     2.5482                 4.9696                 3.5428
 Frc consts  --     1.5814                 3.1440                 2.2801
 IR Inten    --   144.8292                45.5147                70.3082
 Raman Activ --     1.1049                 4.4726                15.1680

                    61                     62                     63
                     A                      A                      A
 Frequencies --  1060.5521              1063.8155              1079.6039
 Red. masses --     4.1903                 3.8739                 2.8387
 Frc consts  --     2.7769                 2.5830                 1.9494
 IR Inten    --     2.1750               268.9060                92.8571
 Raman Activ --     5.1395                 2.1647                 4.4458

                    64                     65                     66
                     A                      A                      A
 Frequencies --  1088.1647              1096.5914              1110.1151
 Red. masses --     3.2438                 2.4653                 3.0483
 Frc consts  --     2.2630                 1.7467                 2.2133
 IR Inten    --     5.9911                18.7928                54.4681
 Raman Activ --    10.7964                 9.0551                 1.4361

                    67                     68                     69
                     A                      A                      A
 Frequencies --  1111.5585              1116.1290              1122.6663
 Red. masses --     2.5922                 2.3876                 2.5183
 Frc consts  --     1.8870                 1.7525                 1.8700
 IR Inten    --    16.1049                16.0024                62.2399
 Raman Activ --     3.6346                 3.7977                 4.0246

                    70                     71                     72
                     A                      A                      A
 Frequencies --  1128.3122              1136.6473              1142.4922
 Red. masses --     1.8345                 1.7767                 2.8380
 Frc consts  --     1.3760                 1.3525                 2.1825
 IR Inten    --    15.3221                25.0172                44.1009
 Raman Activ --     3.1047                 3.5002                 2.1543

                    73                     74                     75
                     A                      A                      A
 Frequencies --  1151.4202              1155.2048              1164.4607
 Red. masses --     2.0028                 1.9119                 1.9664
 Frc consts  --     1.5644                 1.5033                 1.5710
 IR Inten    --     1.3343                14.4549                11.3396
 Raman Activ --     3.4625                 3.2781                 3.1630

                    76                     77                     78
                     A                      A                      A
 Frequencies --  1183.2889              1198.7229              1206.5382
 Red. masses --     1.3508                 1.3938                 1.4043
 Frc consts  --     1.1144                 1.1800                 1.2045
 IR Inten    --    18.9801                 2.5974                 3.2416
 Raman Activ --     1.2308                 1.3449                 3.9181

                    79                     80                     81
                     A                      A                      A
 Frequencies --  1224.9300              1235.3140              1242.9566
 Red. masses --     1.2996                 1.2879                 1.2569
 Frc consts  --     1.1489                 1.1580                 1.1441
 IR Inten    --    11.1032                 2.9427                 5.9551
 Raman Activ --     0.3361                 4.6735                 1.3429

                    82                     83                     84
                     A                      A                      A
 Frequencies --  1255.9081              1260.5037              1270.0909
 Red. masses --     1.2399                 1.2172                 1.1951
 Frc consts  --     1.1522                 1.1394                 1.1359
 IR Inten    --    21.7465                 9.8856                35.4826
 Raman Activ --     2.5149                 1.8266                 3.8517

                    85                     86                     87
                     A                      A                      A
 Frequencies --  1278.5028              1291.3824              1295.7640
 Red. masses --     1.3064                 1.2506                 1.2622
 Frc consts  --     1.2581                 1.2288                 1.2486
 IR Inten    --    31.0132                12.4381                23.1796
 Raman Activ --     3.2317                 4.6855                 1.0864

                    88                     89                     90
                     A                      A                      A
 Frequencies --  1305.1033              1318.8200              1321.9566
 Red. masses --     1.2416                 1.2166                 1.2711
 Frc consts  --     1.2461                 1.2467                 1.3088
 IR Inten    --    27.6360                21.2877                27.0693
 Raman Activ --     3.1420                10.2772                 2.9981

                    91                     92                     93
                     A                      A                      A
 Frequencies --  1332.7134              1340.0523              1342.0466
 Red. masses --     1.2378                 1.4649                 1.5858
 Frc consts  --     1.2953                 1.5499                 1.6828
 IR Inten    --    30.5393                22.5794                 7.9105
 Raman Activ --     4.6190                 1.7460                 4.3653

                    94                     95                     96
                     A                      A                      A
 Frequencies --  1348.4432              1357.4935              1361.5304
 Red. masses --     1.4766                 1.4659                 1.3621
 Frc consts  --     1.5819                 1.5916                 1.4876
 IR Inten    --    10.6185                11.4342                28.6210
 Raman Activ --     2.6314                 4.0056                 1.8405

                    97                     98                     99
                     A                      A                      A
 Frequencies --  1364.4805              1379.1165              1383.7411
 Red. masses --     1.3482                 1.4730                 1.3082
 Frc consts  --     1.4789                 1.6506                 1.4758
 IR Inten    --    27.7314                20.7906                 8.7704
 Raman Activ --     1.3191                 6.2764                 5.1241

                   100                    101                    102
                     A                      A                      A
 Frequencies --  1409.1043              1410.3152              1441.1430
 Red. masses --     1.6318                 1.6080                 1.1792
 Frc consts  --     1.9089                 1.8844                 1.4429
 IR Inten    --    11.7462                49.6336                62.9902
 Raman Activ --     2.8725                 3.7002                 3.6285

                   103                    104                    105
                     A                      A                      A
 Frequencies --  1453.3989              1456.7596              1458.9957
 Red. masses --     1.3647                 1.0721                 1.4087
 Frc consts  --     1.6984                 1.3405                 1.7668
 IR Inten    --    13.2049                18.4929                16.2171
 Raman Activ --     0.1421                 4.6813                 2.2665

                   106                    107                    108
                     A                      A                      A
 Frequencies --  1470.1359              1483.6159              3259.9713
 Red. masses --     1.1133                 1.3343                 1.0579
 Frc consts  --     1.4177                 1.7304                 6.6241
 IR Inten    --     8.9247                98.5534                44.1791
 Raman Activ --     6.3095                 2.4454                78.1499

                   109                    110                    111
                     A                      A                      A
 Frequencies --  3266.7923              3271.4072              3276.6054
 Red. masses --     1.0752                 1.0767                 1.0825
 Frc consts  --     6.7607                 6.7891                 6.8474
 IR Inten    --    38.9667               101.9668                 8.7347
 Raman Activ --    65.5302                45.2899                41.0008

                   112                    113                    114
                     A                      A                      A
 Frequencies --  3278.0763              3279.9978              3282.8052
 Red. masses --     1.0730                 1.0822                 1.0793
 Frc consts  --     6.7931                 6.8594                 6.8531
 IR Inten    --    14.4451                32.8434                44.0763
 Raman Activ --    49.2714                91.2105               323.0089

                   115                    116                    117
                     A                      A                      A
 Frequencies --  3289.9296              3291.3508              3293.9996
 Red. masses --     1.0790                 1.0792                 1.0848
 Frc consts  --     6.8806                 6.8881                 6.9350
 IR Inten    --   261.9528               228.5416                 7.8563
 Raman Activ --    69.7779                57.2765                19.3187

                   118                    119                    120
                     A                      A                      A
 Frequencies --  3302.1141              3304.1444              3311.3200
 Red. masses --     1.0867                 1.0863                 1.0865
 Frc consts  --     6.9817                 6.9872                 7.0191
 IR Inten    --    43.5401                24.6448                92.1429
 Raman Activ --    42.4781                24.3857                28.6053

                   121                    122                    123
                     A                      A                      A
 Frequencies --  3322.6421              3330.5567              3358.4161
 Red. masses --     1.1064                 1.1024                 1.0659
 Frc consts  --     7.1969                 7.2051                 7.0835
 IR Inten    --    22.1198                34.5432                50.0521
 Raman Activ --    52.5939                68.7423                49.6272

                   124                    125                    126
                     A                      A                      A
 Frequencies --  3362.9281              3366.6449              3371.9760
 Red. masses --     1.0732                 1.0670                 1.0667
 Frc consts  --     7.1508                 7.1252                 7.1461
 IR Inten    --    31.4403                26.5536                35.4856
 Raman Activ --    69.2915               147.5063               181.1507

                   127                    128                    129
                     A                      A                      A
 Frequencies --  3380.0977              3879.6567              3888.2296
 Red. masses --     1.0675                 1.0670                 1.0667
 Frc consts  --     7.1861                 9.4625                 9.5017
 IR Inten    --    58.1134                33.8963                55.8448
 Raman Activ --   107.1021               142.5665               140.9558

 - Thermochemistry -
 -------------------
 Temperature   298.150 Kelvin.  Pressure   1.00000 Atm.
 Atom     1 has atomic number  8 and mass  15.99491

 Molecular mass:   342.11621 amu.
 Principal axes and moments of inertia in atomic units:
                           1         2         3
     Eigenvalues --  4445.70548********************
           X            0.99998  -0.00614   0.00177
           Y            0.00613   0.99998   0.00247
           Z           -0.00178  -0.00246   1.00000
 This molecule is an asymmetric top.
 Rotational symmetry number  1.
 Warning -- assumption of classical behavior for rotation
           may cause significant error
 Rotational temperatures (Kelvin)      0.01948     0.00743     0.00557
 Rotational constants (GHZ):           0.40595     0.15474     0.11611
    5 imaginary frequencies ignored.
 Zero-point vibrational energy     972244.2 (Joules/Mol)
                                  232.37193 (Kcal/Mol)
 Warning -- explicit consideration of  33 degrees of freedom as
           vibrations may cause significant error
 Vibrational temperatures:     34.78    48.39    75.00    84.79   107.19
          (Kelvin)            164.97   196.10   225.00   241.53   263.93
                              322.45   345.94   387.87   394.56   403.79
                              431.84   448.58   465.55   488.90   506.18
                              542.14   571.95   586.32   611.21   632.11
                              677.73   712.49   735.80   780.99   801.37
                              813.81   854.11   888.48   911.73   932.71
                              967.17   980.04  1016.34  1021.72  1046.74
                             1072.17  1133.31  1198.87  1230.55  1294.78
                             1299.04  1378.98  1403.35  1420.90  1427.83
                             1443.78  1466.58  1476.63  1490.90  1503.73
                             1525.90  1530.59  1553.31  1565.62  1577.75
                             1597.21  1599.28  1605.86  1615.26  1623.39
                             1635.38  1643.79  1656.63  1662.08  1675.40
                             1702.49  1724.69  1735.94  1762.40  1777.34
                             1788.34  1806.97  1813.58  1827.38  1839.48
                             1858.01  1864.31  1877.75  1897.49  1902.00
                             1917.47  1928.03  1930.90  1940.11  1953.13
                             1958.94  1963.18  1984.24  1990.89  2027.38
                             2029.13  2073.48  2091.11  2095.95  2099.17
                             2115.20  2134.59  4690.37  4700.18  4706.82
                             4714.30  4716.41  4719.18  4723.22  4733.47
                             4735.51  4739.32  4751.00  4753.92  4764.24
                             4780.53  4791.92  4832.01  4838.50  4843.85
                             4851.52  4863.20  5581.95  5594.29

 Zero-point correction=                           0.370308 (Hartree/Particle)
 Thermal correction to Energy=                    0.390212
 Thermal correction to Enthalpy=                  0.391156
 Thermal correction to Gibbs Free Energy=         0.321359
 Sum of electronic and zero-point Energies=          -1297.615184
 Sum of electronic and thermal Energies=             -1297.595280
 Sum of electronic and thermal Enthalpies=           -1297.594336
 Sum of electronic and thermal Free Energies=        -1297.664133

                     E (Thermal)             CV                S
                      KCal/Mol        Cal/Mol-Kelvin    Cal/Mol-Kelvin
 Total                  244.862             80.064            146.901
 Electronic               0.000              0.000              0.000
 Translational            0.889              2.981             43.384
 Rotational               0.889              2.981             35.043
 Vibrational            243.084             74.103             68.474
 Vibration     1          0.593              1.985              6.258
 Vibration     2          0.594              1.983              5.603
 Vibration     3          0.596              1.977              4.735
 Vibration     4          0.596              1.974              4.493
 Vibration     5          0.599              1.966              4.031
 Vibration     6          0.608              1.937              3.189
 Vibration     7          0.614              1.917              2.855
 Vibration     8          0.620              1.896              2.593
 Vibration     9          0.625              1.882              2.459
 Vibration    10          0.631              1.862              2.293
 Vibration    11          0.649              1.804              1.926
 Vibration    12          0.658              1.779              1.800
 Vibration    13          0.674              1.729              1.599
 Vibration    14          0.677              1.721              1.569
 Vibration    15          0.680              1.709              1.530
 Vibration    16          0.693              1.673              1.416
 Vibration    17          0.700              1.651              1.353
 Vibration    18          0.708              1.628              1.292
 Vibration    19          0.720              1.596              1.213
 Vibration    20          0.728              1.572              1.158
 Vibration    21          0.747              1.520              1.052
 Vibration    22          0.764              1.475              0.972
 Vibration    23          0.772              1.454              0.935
 Vibration    24          0.787              1.416              0.876
 Vibration    25          0.799              1.384              0.829
 Vibration    26          0.828              1.314              0.735
 Vibration    27          0.851              1.261              0.670
 Vibration    28          0.867              1.225              0.630
 Vibration    29          0.898              1.155              0.559
 Vibration    30          0.912              1.124              0.530
 Vibration    31          0.921              1.106              0.513
 Vibration    32          0.951              1.045              0.461
 Vibration    33          0.977              0.995              0.420

 Normal termination of Gaussian 09 at Mon Mar 28 11:19:42 2016.
