 Gaussian 09, Revision B.01,
 Gaussian 09:  EM64L-G09RevB.01 12-Aug-2010

 ------------------------------------------------
 # freq=raman b3lyp/6-31+g(d,p) geom=connectivity
 ------------------------------------------------

 ------------
 550 9000.com
 ------------
 Symbolic Z-matrix:
 Charge =  0 Multiplicity = 1

                         Standard orientation:
 ---------------------------------------------------------------------
 Center     Atomic      Atomic             Coordinates (Angstroms)
 Number     Number       Type             X           Y           Z
 ---------------------------------------------------------------------
      1          8           0       -5.142191    0.272994   -0.480604
      2          6           0       -3.829817    0.070406    0.062820
      3          6           0       -3.344848   -1.363363   -0.083119
      4          8           0       -4.098174   -2.025272    0.943422
      5          1           0       -5.082743   -1.946017    0.791888
      6          6           0       -1.915154   -1.637358    0.354886
      7          8           0       -1.356492   -2.734847   -0.380690
      8          1           0       -1.939360   -3.547682   -0.386114
      9          6           0       -3.345628    2.500435   -0.167536
     10          8           0       -2.651489    3.710387   -0.504656
     11          1           0       -2.769947    3.921509   -1.475248
     12          6           0       -2.809031    1.097243   -0.398303
     13          8           0       -1.623983    0.786609    0.349310
     14          6           0       -0.993640   -0.468043    0.049860
     15          8           0        0.309738   -0.453748    0.650614
     16          6           0        1.463544   -0.097715   -0.125424
     17          6           0        1.891995    1.288157    0.327253
     18          8           0        0.992770    2.294794   -0.160774
     19          1           0        0.097019    1.935142    0.100265
     20          6           0        3.325934    1.580110   -0.083530
     21          8           0        3.823271    2.413645    0.972894
     22          1           0        3.170303    3.168478    1.046085
     23          6           0        2.226091   -2.697285    0.277621
     24          8           0        2.200349   -3.416308   -0.963944
     25          1           0        1.489888   -3.157425   -1.618996
     26          6           0        2.397323   -1.189079    0.370989
     27          8           0        3.643754   -0.934068   -0.290779
     28          6           0        4.200371    0.344001    0.049018
     29          8           0        5.382615    0.602580   -0.721733
     30          1           0        6.155537    0.323317   -0.225544
     31          1           0        4.500293    0.285732    1.074470
     32          1           0        3.400886    2.044555   -1.044557
     33          1           0        1.850693    1.307302    1.396284
     34          1           0        1.281416   -0.156919   -1.178146
     35          1           0        2.553059   -0.982139    1.409171
     36          1           0        1.309016   -2.927885    0.778319
     37          1           0        3.015857   -3.126603    0.858014
     38          1           0       -5.799611   -0.036406    0.146828
     39          1           0       -3.561406    2.565596    0.878453
     40          1           0       -4.283723    2.545707   -0.680203
     41          1           0       -2.615283    0.959903   -1.441614
     42          1           0       -3.932855    0.228383    1.116066
     43          1           0       -3.556673   -1.766411   -1.051408
     44          1           0       -1.891624   -1.853797    1.402502
     45          1           0       -0.834926   -0.483522   -1.008190
 ---------------------------------------------------------------------

 SCF Done:  E(RB3LYP) =  -1297.92076436     A.U. after   14 cycles

 The electronic state is 1-A.
 Alpha  occ. eigenvalues --  -19.20222 -19.19669 -19.19592 -19.19027 -19.18749
 Alpha  occ. eigenvalues --  -19.17801 -19.16244 -19.16057 -19.15981 -19.15707
 Alpha  occ. eigenvalues --  -19.15323 -10.31954 -10.28770 -10.27592 -10.27386
 Alpha  occ. eigenvalues --  -10.27279 -10.27239 -10.25526 -10.25180 -10.24569
 Alpha  occ. eigenvalues --  -10.24181 -10.24144 -10.23184  -1.10155  -1.08052
 Alpha  occ. eigenvalues --   -1.06674  -1.05873  -1.04654  -1.04243  -1.03250
 Alpha  occ. eigenvalues --   -1.02991  -1.01462  -1.00994  -1.00033  -0.82675
 Alpha  occ. eigenvalues --   -0.81703  -0.78670  -0.77388  -0.72761  -0.70660
 Alpha  occ. eigenvalues --   -0.68069  -0.65710  -0.64424  -0.62431  -0.62218
 Alpha  occ. eigenvalues --   -0.59774  -0.58029  -0.57294  -0.55415  -0.54669
 Alpha  occ. eigenvalues --   -0.53862  -0.53115  -0.52787  -0.52094  -0.51210
 Alpha  occ. eigenvalues --   -0.50174  -0.49753  -0.48801  -0.48339  -0.47048
 Alpha  occ. eigenvalues --   -0.46122  -0.45632  -0.45010  -0.44346  -0.43754
 Alpha  occ. eigenvalues --   -0.42750  -0.41798  -0.41265  -0.40113  -0.39756
 Alpha  occ. eigenvalues --   -0.39070  -0.37688  -0.37100  -0.36784  -0.36200
 Alpha  occ. eigenvalues --   -0.35286  -0.34877  -0.34510  -0.33929  -0.33764
 Alpha  occ. eigenvalues --   -0.32556  -0.32511  -0.31429  -0.31040  -0.30180
 Alpha  occ. eigenvalues --   -0.29834  -0.29196  -0.28579  -0.27457  -0.27241
 Alpha  occ. eigenvalues --   -0.25602
 Alpha virt. eigenvalues --   -0.04461  -0.01607  -0.01421   0.00192   0.00559
 Alpha virt. eigenvalues --    0.00884   0.01530   0.01882   0.02436   0.02754
 Alpha virt. eigenvalues --    0.03292   0.04204   0.04665   0.04995   0.05315

 Mulliken atomic charges:
              1
     1  O   -0.521912
     2  C   -0.405833
     3  C    0.371058
     4  O   -0.520822
     5  H    0.333625
     6  C   -0.356348
     7  O   -0.540967
     8  H    0.371994
     9  C   -0.171942
    10  O   -0.510336
    11  H    0.346383
    12  C    0.406905
    13  O   -0.375081
    14  C    0.281212
    15  O   -0.338074
    16  C    0.208923
    17  C   -0.585260
    18  O   -0.516797
    19  H    0.399422
    20  C    0.440669
    21  O   -0.485555
    22  H    0.354518
    23  C   -0.193193
    24  O   -0.492377
    25  H    0.345009
    26  C    0.157770
    27  O   -0.293547
    28  C    0.081990
    29  O   -0.515996
    30  H    0.354598
    31  H    0.125555
    32  H    0.164005
    33  H    0.162426
    34  H    0.142669
    35  H    0.121047
    36  H    0.146023
    37  H    0.146059
    38  H    0.351682
    39  H    0.142212
    40  H    0.157269
    41  H    0.119033
    42  H    0.158865
    43  H    0.160193
    44  H    0.173537
    45  H    0.099388
 Sum of Mulliken atomic charges =   0.00000

 Dipole moment (field-independent basis, Debye):
    X=             -8.1203    Y=             -1.4292    Z=              0.4450  Tot=              8.2571
 Quadrupole moment (field-independent basis, Debye-Ang):
   XX=           -121.6649   YY=           -150.7654   ZZ=           -136.6025
   XY=              7.3708   XZ=             11.0678   YZ=             -5.8876

  Exact polarizability: 219.404   2.782 192.721  -0.594  -1.449 146.746
 Approx polarizability: 258.183   0.813 246.537  -0.221  -1.502 238.407

 ******    8 imaginary frequencies (negative Signs) ******

                     1                      2                      3
                     A                      A                      A
 Frequencies --  -252.4804              -251.4751              -249.7088
 Red. masses --     1.0938                 1.5531                 1.1923
 Frc consts  --     0.0411                 0.0579                 0.0438
 IR Inten    --    65.9870                 9.7573               143.9872
 Raman Activ --     1.5784                 0.0757                 0.6342

                     4                      5                      6
                     A                      A                      A
 Frequencies --  -171.7368              -105.7035               -83.6741
 Red. masses --     1.7425                 5.9144                 5.7268
 Frc consts  --     0.0303                 0.0389                 0.0236
 IR Inten    --     4.4388                 0.5221                 1.4788
 Raman Activ --     0.0454                 0.0770                 0.0399

                     7                      8                      9
                     A                      A                      A
 Frequencies --   -66.6006               -48.0252                 4.8264
 Red. masses --     6.5349                 6.3003                 7.1436
 Frc consts  --     0.0171                 0.0086                 0.0001
 IR Inten    --     1.4913                 1.4731                 0.5242
 Raman Activ --     0.0162                 0.0611                 0.0662

                    10                     11                     12
                     A                      A                      A
 Frequencies --    31.1161                83.4970               101.0205
 Red. masses --     6.7136                 6.6345                 6.2949
 Frc consts  --     0.0038                 0.0273                 0.0378
 IR Inten    --     1.3645                 1.5110                 1.3751
 Raman Activ --     0.0856                 0.2084                 0.4794

                    13                     14                     15
                     A                      A                      A
 Frequencies --   109.5892               138.9690               150.9392
 Red. masses --     6.2752                 6.1953                 5.8794
 Frc consts  --     0.0444                 0.0705                 0.0789
 IR Inten    --     0.3598                 0.8822                 7.2593
 Raman Activ --     0.1504                 0.4680                 0.1878

                    16                     17                     18
                     A                      A                      A
 Frequencies --   170.0305               221.9766               233.0036
 Red. masses --     6.9757                 6.6695                 5.0102
 Frc consts  --     0.1188                 0.1936                 0.1603
 IR Inten    --     0.4927                 0.4738                 5.3427
 Raman Activ --     0.8850                 1.6395                 1.2035

                    19                     20                     21
                     A                      A                      A
 Frequencies --   249.5711               264.4139               290.1430
 Red. masses --     5.7940                 5.4573                 5.8133
 Frc consts  --     0.2126                 0.2248                 0.2883
 IR Inten    --    10.8526                 7.3525                 7.2636
 Raman Activ --     1.4301                 0.8348                 1.5773

                    22                     23                     24
                     A                      A                      A
 Frequencies --   295.7780               311.7073               335.1987
 Red. masses --     5.2294                 5.5282                 7.2297
 Frc consts  --     0.2695                 0.3165                 0.4786
 IR Inten    --     3.4288                 3.4846                 0.6833
 Raman Activ --     0.6932                 0.3560                 0.5051

                    25                     26                     27
                     A                      A                      A
 Frequencies --   347.2581               363.4862               395.5306
 Red. masses --     5.0146                 7.7758                 4.6878
 Frc consts  --     0.3563                 0.6053                 0.4321
 IR Inten    --     5.4359                 4.1384                 9.1474
 Raman Activ --     5.7972                 2.4036                 1.8479

                    28                     29                     30
                     A                      A                      A
 Frequencies --   425.5087               428.0980               454.6464
 Red. masses --     5.1538                 4.2873                 5.6768
 Frc consts  --     0.5498                 0.4629                 0.6914
 IR Inten    --     7.0039                 0.1778                 1.4322
 Raman Activ --     1.2323                 4.4239                 0.8167

                    31                     32                     33
                     A                      A                      A
 Frequencies --   465.6510               479.6230               521.4848
 Red. masses --     5.1639                 4.3908                 4.6898
 Frc consts  --     0.6597                 0.5951                 0.7514
 IR Inten    --     1.7987                 4.9833                13.1959
 Raman Activ --     1.2980                 2.8359                 8.4059

                    34                     35                     36
                     A                      A                      A
 Frequencies --   536.4131               557.0932               573.4065
 Red. masses --     4.1567                 3.9592                 4.5473
 Frc consts  --     0.7047                 0.7240                 0.8809
 IR Inten    --     8.9339                47.1062                13.8162
 Raman Activ --     1.3123                 0.6464                 3.0110

                    37                     38                     39
                     A                      A                      A
 Frequencies --   586.6548               604.1929               624.8574
 Red. masses --     4.3624                 3.0034                 3.4184
 Frc consts  --     0.8846                 0.6460                 0.7864
 IR Inten    --    17.7566                 5.3235                27.1674
 Raman Activ --     1.6637                 0.4874                 0.2857

                    40                     41                     42
                     A                      A                      A
 Frequencies --   636.5252               670.0064               696.8585
 Red. masses --     1.1488                 4.0368                 1.0726
 Frc consts  --     0.2742                 1.0677                 0.3069
 IR Inten    --   111.8552                12.6899               104.3825
 Raman Activ --     0.9385                 2.4088                 1.7879

                    43                     44                     45
                     A                      A                      A
 Frequencies --   706.7480               716.0348               731.0900
 Red. masses --     1.0702                 3.2852                 1.0800
 Frc consts  --     0.3150                 0.9924                 0.3401
 IR Inten    --   139.7115                 6.7777               115.2173
 Raman Activ --     1.3738                 2.2638                 1.8694

                    46                     47                     48
                     A                      A                      A
 Frequencies --   769.1668               821.4613               837.4322
 Red. masses --     1.0770                 2.6641                 1.0930
 Frc consts  --     0.3754                 1.0592                 0.4516
 IR Inten    --   120.1035                 8.4753                74.8762
 Raman Activ --     1.8465                 2.4718                 0.9283

                    49                     50                     51
                     A                      A                      A
 Frequencies --   854.1329               872.9467               947.4425
 Red. masses --     2.5554                 3.1200                 6.0708
 Frc consts  --     1.0984                 1.4008                 3.2107
 IR Inten    --    16.4440                27.3089               150.3867
 Raman Activ --     1.5211                 3.3981                 3.1570

                    52                     53                     54
                     A                      A                      A
 Frequencies --   985.1123               987.4841               998.0056
 Red. masses --     5.6249                 4.3420                 4.8173
 Frc consts  --     3.2161                 2.4946                 2.8270
 IR Inten    --   170.8002               219.5283                51.0328
 Raman Activ --     0.5769                 1.7702                 3.7950

                    55                     56                     57
                     A                      A                      A
 Frequencies --  1009.5970              1021.4994              1022.4436
 Red. masses --     3.6186                 6.7373                 5.1292
 Frc consts  --     2.1731                 4.1420                 3.1592
 IR Inten    --    86.9117               393.2238                79.9686
 Raman Activ --     2.7784                 1.0339                 4.3044

                    58                     59                     60
                     A                      A                      A
 Frequencies --  1038.6817              1047.8546              1053.9734
 Red. masses --     3.0040                 5.3155                 4.0510
 Frc consts  --     1.9095                 3.4387                 2.6514
 IR Inten    --    74.0689                33.4306                37.4665
 Raman Activ --     1.9812                 4.0196                11.8378

                    61                     62                     63
                     A                      A                      A
 Frequencies --  1061.6307              1073.4709              1081.0749
 Red. masses --     3.7629                 5.3538                 3.1971
 Frc consts  --     2.4987                 3.6349                 2.2015
 IR Inten    --    30.6279               166.6013                80.7615
 Raman Activ --    12.6619                 1.2976                 7.9396

                    64                     65                     66
                     A                      A                      A
 Frequencies --  1090.9223              1094.1815              1100.9643
 Red. masses --     2.5850                 2.5911                 2.8503
 Frc consts  --     1.8126                 1.8277                 2.0356
 IR Inten    --   110.9101                15.4915                81.3903
 Raman Activ --     4.3435                 5.0118                 0.7784

                    67                     68                     69
                     A                      A                      A
 Frequencies --  1104.1760              1114.0437              1127.6093
 Red. masses --     2.5487                 2.8255                 2.6652
 Frc consts  --     1.8308                 2.0661                 1.9967
 IR Inten    --    92.0696                15.0820                22.0186
 Raman Activ --     2.6160                 5.9334                 3.3235

                    70                     71                     72
                     A                      A                      A
 Frequencies --  1130.3729              1143.5198              1165.2329
 Red. masses --     2.2814                 2.4538                 1.8804
 Frc consts  --     1.7175                 1.8905                 1.5043
 IR Inten    --     3.5926                11.8846                32.7361
 Raman Activ --     1.8144                 3.0467                 0.8734

                    73                     74                     75
                     A                      A                      A
 Frequencies --  1169.9501              1190.0808              1196.8802
 Red. masses --     2.3213                 1.6240                 1.2572
 Frc consts  --     1.8721                 1.3551                 1.0611
 IR Inten    --    36.3557                 2.9217                25.8260
 Raman Activ --     1.5008                 1.6652                 0.7803

                    76                     77                     78
                     A                      A                      A
 Frequencies --  1208.8984              1211.0568              1222.8791
 Red. masses --     1.4883                 1.4322                 1.2869
 Frc consts  --     1.2815                 1.2376                 1.1339
 IR Inten    --     1.4420                17.9585                13.2046
 Raman Activ --     2.2827                 4.4770                 1.4408

                    79                     80                     81
                     A                      A                      A
 Frequencies --  1236.7555              1245.6606              1249.9091
 Red. masses --     1.2368                 1.2898                 1.2587
 Frc consts  --     1.1146                 1.1792                 1.1586
 IR Inten    --     9.7097                11.7745                17.0589
 Raman Activ --     3.4076                 2.9436                 3.7042

                    82                     83                     84
                     A                      A                      A
 Frequencies --  1260.2298              1262.7668              1271.8883
 Red. masses --     1.3028                 1.3893                 1.3472
 Frc consts  --     1.2190                 1.3052                 1.2840
 IR Inten    --    28.3613                14.6024                 5.9914
 Raman Activ --     3.6015                 2.9615                 0.2590

                    85                     86                     87
                     A                      A                      A
 Frequencies --  1282.4520              1287.0825              1300.2568
 Red. masses --     1.4549                 1.4107                 1.2563
 Frc consts  --     1.4098                 1.3769                 1.2514
 IR Inten    --    19.1179                25.3146                57.5078
 Raman Activ --     2.2191                 0.7777                 4.1747

                    88                     89                     90
                     A                      A                      A
 Frequencies --  1313.2200              1319.8655              1352.4321
 Red. masses --     1.3433                 1.2684                 1.2316
 Frc consts  --     1.3649                 1.3019                 1.3272
 IR Inten    --    24.4975                 5.4845                35.3388
 Raman Activ --     7.7076                12.9635                 1.6968

                    91                     92                     93
                     A                      A                      A
 Frequencies --  1354.8323              1358.3792              1367.3019
 Red. masses --     1.2285                 1.2437                 1.3816
 Frc consts  --     1.3286                 1.3521                 1.5218
 IR Inten    --    13.4357                34.3772                 8.0301
 Raman Activ --     4.6732                 0.9890                 2.0007

                    94                     95                     96
                     A                      A                      A
 Frequencies --  1367.5413              1377.2474              1385.1326
 Red. masses --     1.3172                 1.3252                 1.3895
 Frc consts  --     1.4514                 1.4810                 1.5707
 IR Inten    --    18.1562                 6.1048                14.0436
 Raman Activ --     1.1722                10.6694                 6.3125

                    97                     98                     99
                     A                      A                      A
 Frequencies --  1391.1526              1394.8667              1396.7345
 Red. masses --     1.6202                 1.2404                 1.2786
 Frc consts  --     1.8474                 1.4219                 1.4696
 IR Inten    --    20.5408                77.6439                24.1712
 Raman Activ --     4.5407                 3.7199                 0.6969

                   100                    101                    102
                     A                      A                      A
 Frequencies --  1397.5824              1413.4566              1428.2873
 Red. masses --     1.4904                 1.4577                 1.6188
 Frc consts  --     1.7152                 1.7159                 1.9457
 IR Inten    --     4.1217                30.0350                12.3048
 Raman Activ --     1.1669                 3.1408                 4.8358

                   103                    104                    105
                     A                      A                      A
 Frequencies --  1435.1857              1448.5262              1450.3857
 Red. masses --     1.1852                 1.0821                 1.0717
 Frc consts  --     1.4383                 1.3378                 1.3283
 IR Inten    --    48.7100                 3.8942                10.9960
 Raman Activ --     4.6355                 5.3440                 5.8812

                   106                    107                    108
                     A                      A                      A
 Frequencies --  1464.9557              1493.3987              3277.0380
 Red. masses --     1.4877                 1.3410                 1.0741
 Frc consts  --     1.8811                 1.7621                 6.7963
 IR Inten    --    50.6104                49.3995                 1.1939
 Raman Activ --     2.8288                 0.8957                25.9350

                   109                    110                    111
                     A                      A                      A
 Frequencies --  3278.5852              3281.2081              3282.1914
 Red. masses --     1.0836                 1.0605                 1.0825
 Frc consts  --     6.8629                 6.7272                 6.8707
 IR Inten    --    12.2479                17.8253                 6.2467
 Raman Activ --     7.8189               126.8938                95.1054

                   112                    113                    114
                     A                      A                      A
 Frequencies --  3283.9121              3289.7810              3294.1446
 Red. masses --     1.0856                 1.0711                 1.0849
 Frc consts  --     6.8976                 6.8302                 6.9363
 IR Inten    --    23.3308                37.8898                28.5402
 Raman Activ --    50.5077                98.0570                13.5324

                   115                    116                    117
                     A                      A                      A
 Frequencies --  3295.0152              3314.3342              3318.9384
 Red. masses --     1.0847                 1.0866                 1.0866
 Frc consts  --     6.9389                 7.0323                 7.0524
 IR Inten    --    20.3160                 0.6680                 5.8617
 Raman Activ --   157.2698                87.0396                 4.2995

                   118                    119                    120
                     A                      A                      A
 Frequencies --  3320.1532              3326.2277              3338.1866
 Red. masses --     1.0861                 1.0869                 1.1026
 Frc consts  --     7.0541                 7.0849                 7.2390
 IR Inten    --    31.8358                28.0113                35.4345
 Raman Activ --    15.7548                57.5709                41.6584

                   121                    122                    123
                     A                      A                      A
 Frequencies --  3339.1258              3350.3500              3380.4242
 Red. masses --     1.1026                 1.0674                 1.0662
 Frc consts  --     7.2430                 7.0595                 7.1787
 IR Inten    --    16.6755               317.1192                30.0859
 Raman Activ --    87.6806               174.5261                71.4661

                   124                    125                    126
                     A                      A                      A
 Frequencies --  3386.4547              3387.4274              3387.5038
 Red. masses --     1.0700                 1.0680                 1.0672
 Frc consts  --     7.2297                 7.2204                 7.2151
 IR Inten    --    27.3249                21.7805                 7.9393
 Raman Activ --    73.7418               141.2550                62.8850

                   127                    128                    129
                     A                      A                      A
 Frequencies --  3392.2111              3906.1629              3916.5050
 Red. masses --     1.0673                 1.0674                 1.0675
 Frc consts  --     7.2362                 9.5953                 9.6476
 IR Inten    --    45.9599                40.5419                64.9428
 Raman Activ --   134.3494               107.8416               127.4476

 - Thermochemistry -
 -------------------
 Temperature   298.150 Kelvin.  Pressure   1.00000 Atm.
 Atom     1 has atomic number  8 and mass  15.99491

 Molecular mass:   342.11621 amu.
 Principal axes and moments of inertia in atomic units:
                           1         2         3
     Eigenvalues --  4693.11552********************
           X            0.99999  -0.00235   0.00318
           Y            0.00236   0.99999  -0.00400
           Z           -0.00317   0.00401   0.99999
 This molecule is an asymmetric top.
 Rotational symmetry number  1.
 Warning -- assumption of classical behavior for rotation
           may cause significant error
 Rotational temperatures (Kelvin)      0.01846     0.00720     0.00542
 Rotational constants (GHZ):           0.38455     0.14998     0.11300
    8 imaginary frequencies ignored.
 Zero-point vibrational energy     974480.9 (Joules/Mol)
                                  232.90654 (Kcal/Mol)
 Warning -- explicit consideration of  30 degrees of freedom as
           vibrations may cause significant error
 Vibrational temperatures:      6.94    44.77   120.13   145.35   157.67
          (Kelvin)            199.95   217.17   244.64   319.37   335.24
                              359.08   380.43   417.45   425.56   448.48
                              482.28   499.63   522.97   569.08   612.21
                              615.94   654.13   669.97   690.07   750.30
                              771.78   801.53   825.00   844.06   869.30
                              899.03   915.82   963.99  1002.62  1016.85
                             1030.21  1051.87  1106.66  1181.90  1204.88
                             1228.91  1255.97  1363.16  1417.36  1420.77
                             1435.91  1452.58  1469.71  1471.07  1494.43
                             1507.63  1516.43  1527.45  1544.48  1555.42
                             1569.59  1574.28  1584.04  1588.66  1602.86
                             1622.38  1626.35  1645.27  1676.51  1683.30
                             1712.26  1722.04  1739.33  1742.44  1759.45
                             1779.41  1792.23  1798.34  1813.19  1816.84
                             1829.96  1845.16  1851.82  1870.78  1889.43
                             1898.99  1945.85  1949.30  1954.40  1967.24
                             1967.58  1981.55  1992.89  2001.56  2006.90
                             2009.59  2010.81  2033.65  2054.98  2064.91
                             2084.10  2086.78  2107.74  2148.66  4714.92
                             4717.15  4720.92  4722.34  4724.81  4733.26
                             4739.53  4740.79  4768.58  4775.21  4776.95
                             4785.69  4802.90  4804.25  4820.40  4863.67
                             4872.35  4873.75  4873.86  4880.63  5620.09
                             5634.97

 Zero-point correction=                           0.371160 (Hartree/Particle)
 Thermal correction to Energy=                    0.389215
 Thermal correction to Enthalpy=                  0.390159
 Thermal correction to Gibbs Free Energy=         0.323168
 Sum of electronic and zero-point Energies=          -1297.549604
 Sum of electronic and thermal Energies=             -1297.531549
 Sum of electronic and thermal Enthalpies=           -1297.530605
 Sum of electronic and thermal Free Energies=        -1297.597597

                     E (Thermal)             CV                S
                      KCal/Mol        Cal/Mol-Kelvin    Cal/Mol-Kelvin
 Total                  244.236             74.194            140.995
 Electronic               0.000              0.000              0.000
 Translational            0.889              2.981             43.384
 Rotational               0.889              2.981             35.155
 Vibrational            242.459             68.232             62.456
 Vibration     1          0.593              1.987              9.459
 Vibration     2          0.594              1.983              5.757
 Vibration     3          0.600              1.961              3.807
 Vibration     4          0.604              1.948              3.435
 Vibration     5          0.606              1.942              3.276
 Vibration     6          0.615              1.914              2.818
 Vibration     7          0.618              1.902              2.660
 Vibration     8          0.625              1.879              2.435
 Vibration     9          0.648              1.808              1.943
 Vibration    10          0.654              1.790              1.856
 Vibration    11          0.662              1.763              1.734
 Vibration    12          0.671              1.738              1.632
 Vibration    13          0.686              1.692              1.473
 Vibration    14          0.690              1.682              1.441
 Vibration    15          0.700              1.651              1.353
 Vibration    16          0.716              1.605              1.235
 Vibration    17          0.725              1.581              1.179
 Vibration    18          0.737              1.547              1.107
 Vibration    19          0.762              1.480              0.979
 Vibration    20          0.787              1.415              0.873
 Vibration    21          0.790              1.409              0.865
 Vibration    22          0.813              1.351              0.782
 Vibration    23          0.823              1.326              0.750
 Vibration    24          0.836              1.295              0.711
 Vibration    25          0.876              1.202              0.607
 Vibration    26          0.891              1.169              0.573
 Vibration    27          0.913              1.124              0.530
 Vibration    28          0.930              1.089              0.498
 Vibration    29          0.944              1.060              0.473
 Vibration    30          0.963              1.023              0.443

 Normal termination of Gaussian 09 at Tue Mar  1 16:51:17 2016.
