 Gaussian 09, Revision B.01,
 Gaussian 09:  EM64L-G09RevB.01 12-Aug-2010

 ------------------------------------------------
 # freq=raman b3lyp/6-31+g(d,p) geom=connectivity
 ------------------------------------------------

 --------
 6000.pdb
 --------
 Symbolic Z-matrix:
 Charge =  0 Multiplicity = 1

                         Standard orientation:
 ---------------------------------------------------------------------
 Center     Atomic      Atomic             Coordinates (Angstroms)
 Number     Number       Type             X           Y           Z
 ---------------------------------------------------------------------
      1          8           0        5.009952   -0.377084   -0.228945
      2          6           0        3.724841   -0.070853    0.318422
      3          6           0        3.259340    1.280370   -0.200202
      4          8           0        4.148975    2.346952    0.161809
      5          1           0        5.089149    2.012341    0.233011
      6          6           0        1.797712    1.524307    0.135696
      7          8           0        1.354464    2.561376   -0.751186
      8          1           0        0.486135    2.993654   -0.504687
      9          6           0        3.003152   -2.613709    0.101575
     10          8           0        4.083221   -3.302852   -0.545350
     11          1           0        3.799338   -4.253065   -0.673233
     12          6           0        2.725210   -1.133818   -0.104563
     13          8           0        1.460038   -0.853004    0.513078
     14          6           0        0.878167    0.329965   -0.054953
     15          8           0       -0.303001    0.492031    0.743196
     16          6           0       -1.503917    0.217546    0.007600
     17          6           0       -1.973734   -1.194046    0.318475
     18          8           0       -0.977950   -2.200178    0.084138
     19          1           0       -0.055205   -1.868515    0.281792
     20          6           0       -3.348486   -1.498913   -0.253555
     21          8           0       -3.994850   -2.660910    0.286470
     22          1           0       -4.881798   -2.849189   -0.133997
     23          6           0       -2.296649    2.714726   -0.071881
     24          8           0       -1.095975    3.476110    0.120419
     25          1           0       -1.381086    4.420120    0.286095
     26          6           0       -2.548238    1.272842    0.335858
     27          8           0       -3.757797    0.849071   -0.311738
     28          6           0       -4.322304   -0.395006    0.126163
     29          8           0       -5.502715   -0.613414   -0.660824
     30          1           0       -6.224820   -0.880338   -0.087312
     31          1           0       -4.535280   -0.391720    1.174748
     32          1           0       -3.289104   -1.578997   -1.318900
     33          1           0       -2.117149   -1.202507    1.378787
     34          1           0       -1.281431    0.276630   -1.037345
     35          1           0       -2.712791    1.254616    1.392972
     36          1           0       -3.066406    3.280032    0.410616
     37          1           0       -2.479979    2.743274   -1.125672
     38          1           0        0.632782    0.185411   -1.086355
     39          1           0        1.721822    1.868657    1.145925
     40          1           0        3.305011    1.215190   -1.267238
     41          1           0        3.787604   -0.042604    1.386206
     42          1           0        2.585665   -1.003749   -1.157421
     43          1           0        2.106914   -3.131590   -0.169456
     44          1           0        3.140783   -2.753141    1.153485
     45          1           0        5.604389   -0.639759    0.477629
 ---------------------------------------------------------------------

 SCF Done:  E(RB3LYP) =  -1297.93083734     A.U. after   13 cycles

 The electronic state is 1-A.
 Alpha  occ. eigenvalues --  -19.20332 -19.19450 -19.19314 -19.18994 -19.18470
 Alpha  occ. eigenvalues --  -19.17638 -19.17039 -19.16581 -19.15856 -19.14835
 Alpha  occ. eigenvalues --  -19.14000 -10.31332 -10.30932 -10.27162 -10.26186
 Alpha  occ. eigenvalues --  -10.25985 -10.25831 -10.25434 -10.25112 -10.24861
 Alpha  occ. eigenvalues --  -10.24614 -10.24606 -10.24338  -1.10434  -1.09263
 Alpha  occ. eigenvalues --   -1.06085  -1.05404  -1.04384  -1.03807  -1.02652
 Alpha  occ. eigenvalues --   -1.02398  -1.01764  -1.00591  -0.99877  -0.82070
 Alpha  occ. eigenvalues --   -0.80283  -0.79856  -0.78039  -0.72272  -0.70426
 Alpha  occ. eigenvalues --   -0.67412  -0.65376  -0.63674  -0.62792  -0.61621
 Alpha  occ. eigenvalues --   -0.60342  -0.56769  -0.55974  -0.55546  -0.54864
 Alpha  occ. eigenvalues --   -0.54029  -0.53648  -0.52879  -0.52349  -0.51764
 Alpha  occ. eigenvalues --   -0.50559  -0.50078  -0.49380  -0.49002  -0.47332
 Alpha  occ. eigenvalues --   -0.46595  -0.45382  -0.44881  -0.44082  -0.43319
 Alpha  occ. eigenvalues --   -0.42742  -0.41982  -0.41065  -0.40176  -0.39267
 Alpha  occ. eigenvalues --   -0.38776  -0.38119  -0.37229  -0.36115  -0.35762
 Alpha  occ. eigenvalues --   -0.35299  -0.34492  -0.34374  -0.33769  -0.33318
 Alpha  occ. eigenvalues --   -0.33074  -0.31616  -0.30947  -0.30520  -0.30078
 Alpha  occ. eigenvalues --   -0.28873  -0.28565  -0.27821  -0.27691  -0.26866
 Alpha  occ. eigenvalues --   -0.26379
 Alpha virt. eigenvalues --   -0.02838  -0.02149  -0.01866  -0.00425   0.00221
 Alpha virt. eigenvalues --    0.01323   0.01931   0.02500   0.03084   0.03433
 Alpha virt. eigenvalues --    0.03652   0.04131   0.04972   0.05364   0.05593

 Mulliken atomic charges:
              1
     1  O   -0.528560
     2  C   -0.170043
     3  C   -0.129305
     4  O   -0.517691
     5  H    0.353584
     6  C    0.395429
     7  O   -0.579867
     8  H    0.439876
     9  C   -0.046879
    10  O   -0.518521
    11  H    0.356968
    12  C    0.454026
    13  O   -0.412228
    14  C   -0.310594
    15  O   -0.299604
    16  C   -0.202356
    17  C    0.068398
    18  O   -0.548694
    19  H    0.414929
    20  C    0.163121
    21  O   -0.531912
    22  H    0.354358
    23  C   -0.146600
    24  O   -0.617499
    25  H    0.395872
    26  C    0.219627
    27  O   -0.326172
    28  C    0.190915
    29  O   -0.575418
    30  H    0.366745
    31  H    0.138968
    32  H    0.149948
    33  H    0.130817
    34  H    0.122696
    35  H    0.130823
    36  H    0.130488
    37  H    0.156480
    38  H    0.136809
    39  H    0.150344
    40  H    0.142983
    41  H    0.136304
    42  H    0.126656
    43  H    0.135776
    44  H    0.135099
    45  H    0.363903
 Sum of Mulliken atomic charges =   0.00000

 Dipole moment (field-independent basis, Debye):
    X=             -3.2660    Y=              0.4434    Z=              2.7964  Tot=              4.3224
 Quadrupole moment (field-independent basis, Debye-Ang):
   XX=           -119.1972   YY=           -133.2766   ZZ=           -141.0614
   XY=            -14.8378   XZ=              3.1259   YZ=              6.1380

  Exact polarizability: 228.085   2.715 193.557   0.690   0.917 141.462
 Approx polarizability: 264.912   3.137 247.402   0.366   1.127 231.639

 ******    7 imaginary frequencies (negative Signs) ******

                     1                      2                      3
                     A                      A                      A
 Frequencies --  -335.9026              -318.5861              -288.5368
 Red. masses --     1.6535                 1.6327                 1.1830
 Frc consts  --     0.1099                 0.0976                 0.0580
 IR Inten    --     0.8465                 8.8683               146.6100
 Raman Activ --     0.0113                 0.2276                 1.4135

                     4                      5                      6
                     A                      A                      A
 Frequencies --  -248.7755               -89.5982               -49.9415
 Red. masses --     1.1760                 6.8748                 6.1557
 Frc consts  --     0.0429                 0.0325                 0.0090
 IR Inten    --   110.4335                 0.9707                 0.6193
 Raman Activ --     1.0907                 0.0316                 0.0506

                     7                      8                      9
                     A                      A                      A
 Frequencies --   -28.3687                36.1350                63.3159
 Red. masses --     7.1730                 6.6845                 6.5564
 Frc consts  --     0.0034                 0.0051                 0.0155
 IR Inten    --     0.6160                 1.0621                 1.7073
 Raman Activ --     0.0483                 0.0225                 0.1045

                    10                     11                     12
                     A                      A                      A
 Frequencies --    75.3278                87.5890               128.2555
 Red. masses --     7.6434                 6.8062                 5.7276
 Frc consts  --     0.0256                 0.0308                 0.0555
 IR Inten    --     2.4774                 1.5392                 1.7296
 Raman Activ --     0.0850                 0.1753                 0.0531

                    13                     14                     15
                     A                      A                      A
 Frequencies --   153.6678               165.7084               167.6318
 Red. masses --     6.7651                 6.8659                 5.5902
 Frc consts  --     0.0941                 0.1111                 0.0926
 IR Inten    --     3.8368                 0.7918                 5.0471
 Raman Activ --     0.2438                 0.8574                 0.4880

                    16                     17                     18
                     A                      A                      A
 Frequencies --   202.8217               223.7773               260.4449
 Red. masses --     6.7841                 6.3513                 4.5303
 Frc consts  --     0.1644                 0.1874                 0.1811
 IR Inten    --     0.2713                 1.0919                17.6397
 Raman Activ --     1.5776                 0.7585                 0.5880

                    19                     20                     21
                     A                      A                      A
 Frequencies --   278.9170               289.8210               303.8188
 Red. masses --     4.9059                 5.2122                 5.3450
 Frc consts  --     0.2249                 0.2579                 0.2907
 IR Inten    --     3.3544                 3.3078                 5.0799
 Raman Activ --     0.1424                 0.0818                 1.2928

                    22                     23                     24
                     A                      A                      A
 Frequencies --   310.0397               318.1882               325.5891
 Red. masses --     5.2224                 6.2783                 6.1057
 Frc consts  --     0.2958                 0.3745                 0.3813
 IR Inten    --     5.1110                 6.2239                 0.7880
 Raman Activ --     1.3824                 2.5431                 3.1670

                    25                     26                     27
                     A                      A                      A
 Frequencies --   342.7149               357.4670               377.1652
 Red. masses --     7.0643                 4.7482                 7.8633
 Frc consts  --     0.4889                 0.3575                 0.6590
 IR Inten    --    16.8157                 3.0233                 2.8372
 Raman Activ --     3.3060                 1.4948                 1.9931

                    28                     29                     30
                     A                      A                      A
 Frequencies --   407.9078               415.4621               422.7070
 Red. masses --     4.9255                 5.0278                 4.4727
 Frc consts  --     0.4829                 0.5113                 0.4709
 IR Inten    --    22.0110                 3.4188                 4.7541
 Raman Activ --     1.6362                 4.2836                 2.3313

                    31                     32                     33
                     A                      A                      A
 Frequencies --   434.3556               472.0117               491.2721
 Red. masses --     5.7795                 4.4882                 3.3134
 Frc consts  --     0.6424                 0.5892                 0.4712
 IR Inten    --     3.3884                11.6036                24.9719
 Raman Activ --     2.6916                 1.8453                 2.6531

                    34                     35                     36
                     A                      A                      A
 Frequencies --   493.6986               536.3415               569.7220
 Red. masses --     5.0185                 3.2285                 3.7923
 Frc consts  --     0.7207                 0.5472                 0.7252
 IR Inten    --     0.3357                10.1074                 4.1887
 Raman Activ --     2.8651                 3.9129                 1.2218

                    37                     38                     39
                     A                      A                      A
 Frequencies --   582.2212               605.6435               608.6966
 Red. masses --     2.9638                 6.0686                 5.8678
 Frc consts  --     0.5919                 1.3115                 1.2809
 IR Inten    --    33.1979                23.0986                21.9360
 Raman Activ --     0.2549                 0.6371                 1.3869

                    40                     41                     42
                     A                      A                      A
 Frequencies --   634.2233               658.9140               668.3162
 Red. masses --     3.9406                 1.0842                 1.1044
 Frc consts  --     0.9339                 0.2773                 0.2906
 IR Inten    --    19.8310               100.1325               117.2631
 Raman Activ --     0.7921                 2.1203                 1.2654

                    43                     44                     45
                     A                      A                      A
 Frequencies --   672.0152               690.7606               705.6658
 Red. masses --     1.1046                 4.4404                 1.0701
 Frc consts  --     0.2939                 1.2483                 0.3140
 IR Inten    --    96.3057                 3.8718               102.0512
 Raman Activ --     1.8680                 0.6937                 2.0029

                    46                     47                     48
                     A                      A                      A
 Frequencies --   781.9372               835.1627               842.6723
 Red. masses --     1.0590                 1.6363                 1.5063
 Frc consts  --     0.3815                 0.6724                 0.6302
 IR Inten    --    72.9456                17.1244                24.6696
 Raman Activ --     0.8723                 0.8782                 0.5794

                    49                     50                     51
                     A                      A                      A
 Frequencies --   880.2840               930.1298               957.8899
 Red. masses --     1.2573                 4.2633                 5.7618
 Frc consts  --     0.5740                 2.1731                 3.1148
 IR Inten    --    37.7287               102.6732                23.1016
 Raman Activ --     0.8593                 5.5781                 1.1119

                    52                     53                     54
                     A                      A                      A
 Frequencies --   978.5178               997.5448              1006.4426
 Red. masses --     5.2343                 4.6607                 5.5548
 Frc consts  --     2.9529                 2.7325                 3.3151
 IR Inten    --    60.7309                14.1907               312.9436
 Raman Activ --     2.0856                 1.3977                 1.7101

                    55                     56                     57
                     A                      A                      A
 Frequencies --  1010.9250              1015.6677              1025.4554
 Red. masses --     6.7166                 5.0304                 6.4492
 Frc consts  --     4.0443                 3.0574                 3.9957
 IR Inten    --   205.4850                85.1801                63.2952
 Raman Activ --     3.6383                 1.7393                 1.8891

                    58                     59                     60
                     A                      A                      A
 Frequencies --  1044.0216              1056.5340              1068.5664
 Red. masses --     3.6924                 3.4086                 4.6876
 Frc consts  --     2.3713                 2.2418                 3.1536
 IR Inten    --   295.7396               175.0216               137.0909
 Raman Activ --     2.3330                 7.1111                 1.5408

                    61                     62                     63
                     A                      A                      A
 Frequencies --  1070.2667              1085.4659              1093.3380
 Red. masses --     3.0689                 3.5403                 4.5990
 Frc consts  --     2.0712                 2.4577                 3.2391
 IR Inten    --     8.8115                59.0949                28.4917
 Raman Activ --     8.1581                 6.3497                 2.4791

                    64                     65                     66
                     A                      A                      A
 Frequencies --  1100.8351              1108.7761              1115.0706
 Red. masses --     3.1245                 3.1212                 3.1202
 Frc consts  --     2.2309                 2.2608                 2.2858
 IR Inten    --   102.7909                21.8432                42.9316
 Raman Activ --     2.9276                 7.8653                18.6593

                    67                     68                     69
                     A                      A                      A
 Frequencies --  1125.0619              1128.1830              1140.4437
 Red. masses --     2.3412                 2.9255                 3.0899
 Frc consts  --     1.7460                 2.1938                 2.3678
 IR Inten    --    10.1404                38.8034                52.7043
 Raman Activ --     3.3395                 1.1759                 3.6205

                    70                     71                     72
                     A                      A                      A
 Frequencies --  1149.8583              1152.0207              1159.6916
 Red. masses --     1.9977                 1.8083                 1.7085
 Frc consts  --     1.5562                 1.4140                 1.3538
 IR Inten    --    46.8239                25.6009                20.4152
 Raman Activ --     5.4743                 5.2439                 4.5702

                    73                     74                     75
                     A                      A                      A
 Frequencies --  1180.7212              1199.5565              1201.5217
 Red. masses --     2.6043                 1.9547                 1.8598
 Frc consts  --     2.1392                 1.6572                 1.5819
 IR Inten    --     5.6539                 8.7112                12.3679
 Raman Activ --     2.1718                 1.1712                 2.8469

                    76                     77                     78
                     A                      A                      A
 Frequencies --  1206.6193              1212.9596              1228.6744
 Red. masses --     1.4002                 1.4893                 1.2230
 Frc consts  --     1.2011                 1.2910                 1.0878
 IR Inten    --    10.9563                17.8509                22.4491
 Raman Activ --     2.3567                 4.8041                 1.0390

                    79                     80                     81
                     A                      A                      A
 Frequencies --  1236.1848              1253.7483              1258.0647
 Red. masses --     1.3140                 1.3226                 1.3467
 Frc consts  --     1.1831                 1.2249                 1.2558
 IR Inten    --     7.6000                 6.2741                55.3364
 Raman Activ --     0.4535                 1.1789                 2.2967

                    82                     83                     84
                     A                      A                      A
 Frequencies --  1265.6393              1279.2691              1291.5585
 Red. masses --     1.2260                 1.3772                 1.2556
 Frc consts  --     1.1571                 1.3279                 1.2340
 IR Inten    --    18.6334                22.1115                50.4937
 Raman Activ --     1.8571                 1.4000                 7.4822

                    85                     86                     87
                     A                      A                      A
 Frequencies --  1297.2973              1308.9951              1317.3306
 Red. masses --     1.3233                 1.2519                 1.3546
 Frc consts  --     1.3122                 1.2638                 1.3850
 IR Inten    --    25.9028                 3.0825                 7.1848
 Raman Activ --     4.7572                 4.5158                 4.0208

                    88                     89                     90
                     A                      A                      A
 Frequencies --  1326.9499              1329.8731              1340.5628
 Red. masses --     1.2402                 1.2736                 1.2508
 Frc consts  --     1.2866                 1.3271                 1.3244
 IR Inten    --     7.3921                20.2085                13.9494
 Raman Activ --     7.1857                 7.8976                 5.4022

                    91                     92                     93
                     A                      A                      A
 Frequencies --  1350.5794              1353.9162              1359.3531
 Red. masses --     1.3112                 1.2336                 1.2874
 Frc consts  --     1.4091                 1.3323                 1.4016
 IR Inten    --     9.3451                44.8225                10.2376
 Raman Activ --     7.6281                 3.4568                 1.6941

                    94                     95                     96
                     A                      A                      A
 Frequencies --  1368.8253              1377.8461              1382.4490
 Red. masses --     1.1838                 1.2119                 1.2727
 Frc consts  --     1.3068                 1.3556                 1.4331
 IR Inten    --    35.7268                19.9711                 4.4160
 Raman Activ --     1.9321                 2.8714                12.6667

                    97                     98                     99
                     A                      A                      A
 Frequencies --  1392.1267              1395.6973              1401.5987
 Red. masses --     1.5237                 1.2426                 1.6158
 Frc consts  --     1.7399                 1.4261                 1.8702
 IR Inten    --    43.3244                28.4807                22.5606
 Raman Activ --     0.6918                 6.5480                 2.3685

                   100                    101                    102
                     A                      A                      A
 Frequencies --  1404.4384              1417.6995              1432.1092
 Red. masses --     1.4724                 1.4747                 1.4909
 Frc consts  --     1.7112                 1.7463                 1.8015
 IR Inten    --     4.6305                 4.9079                37.9926
 Raman Activ --     2.9177                 3.7233                 1.8021

                   103                    104                    105
                     A                      A                      A
 Frequencies --  1459.8833              1466.8473              1469.6331
 Red. masses --     1.3789                 1.0891                 1.2655
 Frc consts  --     1.7315                 1.3807                 1.6104
 IR Inten    --    26.1540                 4.8116                20.3892
 Raman Activ --     3.8259                 5.7871                 1.9103

                   106                    107                    108
                     A                      A                      A
 Frequencies --  1475.4928              1483.1218              3264.2527
 Red. masses --     1.1566                 1.3183                 1.0600
 Frc consts  --     1.4836                 1.7086                 6.6544
 IR Inten    --     0.3780                24.3455                23.9289
 Raman Activ --     3.1564                 0.7797                99.8964

                   109                    110                    111
                     A                      A                      A
 Frequencies --  3266.1092              3267.6474              3277.1955
 Red. masses --     1.0604                 1.0788                 1.0813
 Frc consts  --     6.6647                 6.7870                 6.8420
 IR Inten    --    61.1447                81.8924                26.2164
 Raman Activ --    26.5272               122.4673                25.6174

                   112                    113                    114
                     A                      A                      A
 Frequencies --  3279.4421              3285.6695              3295.5603
 Red. masses --     1.0833                 1.0821                 1.0856
 Frc consts  --     6.8645                 6.8826                 6.9469
 IR Inten    --    12.0039                12.4401                22.7107
 Raman Activ --    79.3130               166.4201                57.6932

                   115                    116                    117
                     A                      A                      A
 Frequencies --  3296.6095              3301.6074              3305.5435
 Red. masses --     1.0722                 1.0836                 1.0812
 Frc consts  --     6.8655                 6.9596                 6.9606
 IR Inten    --   222.6698                96.6095               302.7343
 Raman Activ --   273.9814                24.8823                15.0108

                   118                    119                    120
                     A                      A                      A
 Frequencies --  3306.8531              3312.3046              3316.8417
 Red. masses --     1.0847                 1.0786                 1.0904
 Frc consts  --     6.9884                 6.9723                 7.0678
 IR Inten    --    82.7033               563.1579                 7.9977
 Raman Activ --   131.9089                77.0630                17.4354

                   121                    122                    123
                     A                      A                      A
 Frequencies --  3318.0404              3319.8117              3327.1113
 Red. masses --     1.0956                 1.0915                 1.1050
 Frc consts  --     7.1067                 7.0873                 7.2071
 IR Inten    --     8.5203               159.6272                59.2976
 Raman Activ --    13.9144                40.4714                37.6610

                   124                    125                    126
                     A                      A                      A
 Frequencies --  3383.4965              3392.0666              3396.0299
 Red. masses --     1.0663                 1.0683                 1.0665
 Frc consts  --     7.1924                 7.2421                 7.2467
 IR Inten    --    38.7018                45.2042                45.8511
 Raman Activ --   114.6995               139.5500               142.9065

                   127                    128                    129
                     A                      A                      A
 Frequencies --  3398.9430              3917.3137              3920.6362
 Red. masses --     1.0682                 1.0677                 1.0676
 Frc consts  --     7.2708                 9.6535                 9.6686
 IR Inten    --    63.4101                67.4200                72.4738
 Raman Activ --   157.7188                93.5278               113.8321

 - Thermochemistry -
 -------------------
 Temperature   298.150 Kelvin.  Pressure   1.00000 Atm.
 Atom     1 has atomic number  8 and mass  15.99491

 Molecular mass:   342.11621 amu.
 Principal axes and moments of inertia in atomic units:
                           1         2         3
     Eigenvalues --  4509.30836********************
           X            0.99997  -0.00749  -0.00011
           Y            0.00749   0.99997   0.00110
           Z            0.00010  -0.00110   1.00000
 This molecule is an asymmetric top.
 Rotational symmetry number  1.
 Warning -- assumption of classical behavior for rotation
           may cause significant error
 Rotational temperatures (Kelvin)      0.01921     0.00706     0.00531
 Rotational constants (GHZ):           0.40023     0.14718     0.11060
    7 imaginary frequencies ignored.
 Zero-point vibrational energy     976603.3 (Joules/Mol)
                                  233.41379 (Kcal/Mol)
 Warning -- explicit consideration of  32 degrees of freedom as
           vibrations may cause significant error
 Vibrational temperatures:     51.99    91.10   108.38   126.02   184.53
          (Kelvin)            221.09   238.42   241.18   291.81   321.97
                              374.72   401.30   416.99   437.13   446.08
                              457.80   468.45   493.09   514.31   542.66
                              586.89   597.76   608.18   624.94   679.12
                              706.83   710.32   771.67   819.70   837.69
                              871.38   875.78   912.50   948.03   961.56
                              966.88   993.85  1015.29  1125.03  1201.61
                             1212.42  1266.53  1338.25  1378.19  1407.87
                             1435.24  1448.04  1454.49  1461.32  1475.40
                             1502.11  1520.11  1537.43  1539.87  1561.74
                             1573.07  1583.85  1595.28  1604.34  1618.71
                             1623.20  1640.84  1654.39  1657.50  1668.54
                             1698.79  1725.89  1728.72  1736.05  1745.18
                             1767.79  1778.59  1803.86  1810.07  1820.97
                             1840.58  1858.26  1866.52  1883.35  1895.34
                             1909.18  1913.39  1928.77  1943.18  1947.98
                             1955.80  1969.43  1982.41  1989.03  2002.96
                             2008.09  2016.59  2020.67  2039.75  2060.48
                             2100.44  2110.46  2114.47  2122.90  2133.88
                             4696.53  4699.20  4701.41  4715.15  4718.38
                             4727.34  4741.57  4743.08  4750.27  4755.93
                             4757.82  4765.66  4772.19  4773.91  4776.46
                             4786.97  4868.09  4880.42  4886.12  4890.31
                             5636.13  5640.91

 Zero-point correction=                           0.371969 (Hartree/Particle)
 Thermal correction to Energy=                    0.390450
 Thermal correction to Enthalpy=                  0.391394
 Thermal correction to Gibbs Free Energy=         0.326050
 Sum of electronic and zero-point Energies=          -1297.558869
 Sum of electronic and thermal Energies=             -1297.540387
 Sum of electronic and thermal Enthalpies=           -1297.539443
 Sum of electronic and thermal Free Energies=        -1297.604788

                     E (Thermal)             CV                S
                      KCal/Mol        Cal/Mol-Kelvin    Cal/Mol-Kelvin
 Total                  245.011             76.134            137.529
 Electronic               0.000              0.000              0.000
 Translational            0.889              2.981             43.384
 Rotational               0.889              2.981             35.155
 Vibrational            243.234             70.172             58.990
 Vibration     1          0.594              1.982              5.460
 Vibration     2          0.597              1.972              4.351
 Vibration     3          0.599              1.965              4.009
 Vibration     4          0.601              1.958              3.713
 Vibration     5          0.611              1.925              2.972
 Vibration     6          0.619              1.899              2.626
 Vibration     7          0.624              1.885              2.484
 Vibration     8          0.624              1.882              2.462
 Vibration     9          0.639              1.836              2.107
 Vibration    10          0.649              1.805              1.928
 Vibration    11          0.668              1.745              1.659
 Vibration    12          0.679              1.713              1.540
 Vibration    13          0.686              1.693              1.475
 Vibration    14          0.695              1.666              1.396
 Vibration    15          0.699              1.655              1.362
 Vibration    16          0.705              1.639              1.319
 Vibration    17          0.710              1.624              1.282
 Vibration    18          0.722              1.590              1.199
 Vibration    19          0.733              1.560              1.133
 Vibration    20          0.748              1.519              1.051
 Vibration    21          0.772              1.453              0.934
 Vibration    22          0.779              1.437              0.908
 Vibration    23          0.785              1.421              0.883
 Vibration    24          0.795              1.395              0.845
 Vibration    25          0.829              1.312              0.732
 Vibration    26          0.847              1.269              0.680
 Vibration    27          0.849              1.264              0.674
 Vibration    28          0.891              1.170              0.573
 Vibration    29          0.926              1.097              0.505
 Vibration    30          0.939              1.070              0.481
 Vibration    31          0.964              1.020              0.440
 Vibration    32          0.968              1.013              0.435

 Normal termination of Gaussian 09 at Tue Mar  1 03:24:10 2016.
