 Gaussian 09, Revision B.01,
 Gaussian 09:  EM64L-G09RevB.01 12-Aug-2010

 -------------------------------------------------
 # freq=raman b3lyp/6-31+g(2d,p) geom=connectivity
 -------------------------------------------------

 -----------------
 483 6596/6596.com
 -----------------
 Symbolic Z-matrix:
 Charge =  0 Multiplicity = 1

                         Standard orientation:
 ---------------------------------------------------------------------
 Center     Atomic      Atomic             Coordinates (Angstroms)
 Number     Number       Type             X           Y           Z
 ---------------------------------------------------------------------
      1          8           0       -5.021308   -0.479183    0.297252
      2          6           0       -3.685357   -0.169141   -0.126946
      3          6           0       -3.270403    1.213224    0.349313
      4          8           0       -4.138537    2.214021   -0.201199
      5          1           0       -5.098361    1.988988   -0.035922
      6          6           0       -1.897051    1.615031   -0.165402
      7          8           0       -1.417884    2.872363    0.331415
      8          1           0       -0.480560    2.923783   -0.013710
      9          6           0       -2.976039   -2.538453   -0.199220
     10          8           0       -4.191481   -3.199471    0.180882
     11          1           0       -4.040495   -4.185732    0.114057
     12          6           0       -2.631427   -1.159822    0.339640
     13          8           0       -1.337017   -0.836613   -0.187780
     14          6           0       -0.993935    0.475944    0.280103
     15          8           0        0.257105    0.632219   -0.406193
     16          6           0        1.544550    0.239599    0.089316
     17          6           0        1.993474   -1.113696   -0.437280
     18          8           0        0.919479   -2.051525   -0.274658
     19          1           0        0.035199   -1.611992   -0.427900
     20          6           0        3.328308   -1.514655    0.167736
     21          8           0        3.752051   -2.835942   -0.194996
     22          1           0        4.712822   -2.931553    0.065201
     23          6           0        2.391675    2.624482    0.155663
     24          8           0        1.275990    3.347861   -0.384321
     25          1           0        1.377766    4.335327   -0.262907
     26          6           0        2.650312    1.202146   -0.314098
     27          8           0        3.945340    0.860341    0.201669
     28          6           0        4.365977   -0.457869   -0.177246
     29          8           0        5.408731   -0.769277    0.757452
     30          1           0        6.210102   -0.994855    0.279415
     31          1           0        4.696722   -0.515188   -1.193229
     32          1           0        3.208366   -1.504490    1.230944
     33          1           0        2.151939   -1.003204   -1.489696
     34          1           0        1.500920    0.195063    1.157499
     35          1           0        2.708949    1.209515   -1.382465
     36          1           0        3.272927    3.194778   -0.051837
     37          1           0        2.267917    2.592632    1.218004
     38          1           0       -5.576567   -0.621824   -0.472774
     39          1           0       -2.170164   -3.188786    0.070100
     40          1           0       -2.982777   -2.463208   -1.266550
     41          1           0       -2.596635   -1.182459    1.408835
     42          1           0       -3.676860   -0.163346   -1.196896
     43          1           0       -3.290182    1.256723    1.418245
     44          1           0       -1.919360    1.647071   -1.234689
     45          1           0       -0.851913    0.483658    1.340607
 ---------------------------------------------------------------------

 SCF Done:  E(RB3LYP) =  -1297.98228611     A.U. after   13 cycles

 The electronic state is 1-A.
 Alpha  occ. eigenvalues --  -19.19686 -19.18449 -19.18185 -19.18183 -19.17227
 Alpha  occ. eigenvalues --  -19.17025 -19.16134 -19.15997 -19.14970 -19.14412
 Alpha  occ. eigenvalues --  -19.12007 -10.30936 -10.30880 -10.25900 -10.25801
 Alpha  occ. eigenvalues --  -10.25326 -10.25258 -10.24856 -10.24546 -10.24354
 Alpha  occ. eigenvalues --  -10.24302 -10.23933 -10.23431  -1.10976  -1.09523
 Alpha  occ. eigenvalues --   -1.05210  -1.04836  -1.03808  -1.03650  -1.02561
 Alpha  occ. eigenvalues --   -1.02316  -1.02103  -1.00492  -0.99147  -0.82463
 Alpha  occ. eigenvalues --   -0.81022  -0.79221  -0.78521  -0.71756  -0.69874
 Alpha  occ. eigenvalues --   -0.67649  -0.64479  -0.63194  -0.62372  -0.61485
 Alpha  occ. eigenvalues --   -0.60692  -0.56407  -0.56074  -0.55149  -0.54696
 Alpha  occ. eigenvalues --   -0.54182  -0.53438  -0.52815  -0.51682  -0.51120
 Alpha  occ. eigenvalues --   -0.50737  -0.50107  -0.49484  -0.48636  -0.46518
 Alpha  occ. eigenvalues --   -0.45855  -0.45026  -0.44217  -0.43711  -0.42925
 Alpha  occ. eigenvalues --   -0.42372  -0.41534  -0.41089  -0.40621  -0.40200
 Alpha  occ. eigenvalues --   -0.39284  -0.38339  -0.37157  -0.35924  -0.35605
 Alpha  occ. eigenvalues --   -0.34994  -0.34768  -0.34452  -0.33797  -0.33090
 Alpha  occ. eigenvalues --   -0.32419  -0.31326  -0.30480  -0.30407  -0.29802
 Alpha  occ. eigenvalues --   -0.29395  -0.28784  -0.28201  -0.27805  -0.26831
 Alpha  occ. eigenvalues --   -0.25518
 Alpha virt. eigenvalues --   -0.02067  -0.01867  -0.01687  -0.00144   0.00324
 Alpha virt. eigenvalues --    0.01110   0.02007   0.02101   0.03144   0.03628
 Alpha virt. eigenvalues --    0.03865   0.04411   0.04676   0.05402   0.05812

 Mulliken atomic charges:
              1
     1  O   -0.547729
     2  C   -0.072210
     3  C    0.284494
     4  O   -0.567688
     5  H    0.337606
     6  C   -0.092792
     7  O   -0.564208
     8  H    0.412289
     9  C   -0.257432
    10  O   -0.534459
    11  H    0.341427
    12  C    0.164034
    13  O   -0.211301
    14  C    0.240082
    15  O   -0.302751
    16  C    0.090449
    17  C    0.233389
    18  O   -0.612118
    19  H    0.425944
    20  C    0.082268
    21  O   -0.547137
    22  H    0.329700
    23  C   -0.287665
    24  O   -0.568506
    25  H    0.359534
    26  C   -0.003661
    27  O   -0.248616
    28  C    0.140206
    29  O   -0.531497
    30  H    0.332231
    31  H    0.140962
    32  H    0.127564
    33  H    0.104237
    34  H    0.112085
    35  H    0.123628
    36  H    0.143782
    37  H    0.151812
    38  H    0.345233
    39  H    0.148463
    40  H    0.138966
    41  H    0.119033
    42  H    0.118831
    43  H    0.126307
    44  H    0.138837
    45  H    0.136377
 Sum of Mulliken atomic charges =   0.00000

 Dipole moment (field-independent basis, Debye):
    X=              2.4365    Y=              0.2704    Z=             -1.5093  Tot=              2.8788
 Quadrupole moment (field-independent basis, Debye-Ang):
   XX=           -115.1205   YY=           -138.4349   ZZ=           -138.1435
   XY=             12.7668   XZ=              0.1090   YZ=              0.6003

  Exact polarizability: 234.961  -2.260 198.203   0.518   0.708 143.659
 Approx polarizability: 276.860  -2.052 258.514  -0.163   0.569 238.574

 ******    6 imaginary frequencies (negative Signs) ******

                     1                      2                      3
                     A                      A                      A
 Frequencies --  -288.8546              -262.7148              -253.5968
 Red. masses --     1.4857                 1.7925                 1.3155
 Frc consts  --     0.0730                 0.0729                 0.0498
 IR Inten    --    50.1501                 4.1905                60.4025
 Raman Activ --     0.3282                 0.0516                 0.5271

                     4                      5                      6
                     A                      A                      A
 Frequencies --  -183.6203               -86.5355               -55.9328
 Red. masses --     1.2358                 6.8614                 6.1549
 Frc consts  --     0.0245                 0.0303                 0.0113
 IR Inten    --   107.4352                 1.9942                 0.0088
 Raman Activ --     1.0254                 0.0565                 0.0080

                     7                      8                      9
                     A                      A                      A
 Frequencies --    48.4041                57.5216                71.0034
 Red. masses --     6.7193                 6.2629                 6.9956
 Frc consts  --     0.0093                 0.0122                 0.0208
 IR Inten    --     0.1999                 3.3010                 0.5181
 Raman Activ --     0.0197                 0.0296                 0.0343

                    10                     11                     12
                     A                      A                      A
 Frequencies --    87.7796               101.8198               117.9726
 Red. masses --     6.4994                 6.4817                 6.0767
 Frc consts  --     0.0295                 0.0396                 0.0498
 IR Inten    --     1.3511                 0.0709                 1.4824
 Raman Activ --     0.4130                 0.0314                 0.0864

                    13                     14                     15
                     A                      A                      A
 Frequencies --   147.9408               167.3621               194.1348
 Red. masses --     6.0727                 6.5700                 6.6337
 Frc consts  --     0.0783                 0.1084                 0.1473
 IR Inten    --     6.5056                 0.8705                 0.1104
 Raman Activ --     0.3337                 0.2579                 0.1336

                    16                     17                     18
                     A                      A                      A
 Frequencies --   204.8916               232.8362               271.4544
 Red. masses --     6.9873                 6.0505                 4.9294
 Frc consts  --     0.1728                 0.1933                 0.2140
 IR Inten    --     0.0334                 1.3858                13.3892
 Raman Activ --     3.2924                 0.6355                 0.5521

                    19                     20                     21
                     A                      A                      A
 Frequencies --   284.8860               293.4117               304.9951
 Red. masses --     4.6344                 4.7895                 4.8903
 Frc consts  --     0.2216                 0.2429                 0.2680
 IR Inten    --     1.2897                 2.1261                 4.6010
 Raman Activ --     0.1734                 0.2969                 0.6509

                    22                     23                     24
                     A                      A                      A
 Frequencies --   317.1085               329.6529               331.7817
 Red. masses --     6.7205                 4.6323                 4.8495
 Frc consts  --     0.3982                 0.2966                 0.3145
 IR Inten    --     2.0296                 4.0657                10.2198
 Raman Activ --     4.4752                 0.9932                 0.3285

                    25                     26                     27
                     A                      A                      A
 Frequencies --   336.3857               361.3720               380.0012
 Red. masses --     6.7434                 5.5357                 5.2649
 Frc consts  --     0.4496                 0.4259                 0.4479
 IR Inten    --     4.6917                 4.1011                 1.2234
 Raman Activ --     3.8461                 0.0504                 0.4272

                    28                     29                     30
                     A                      A                      A
 Frequencies --   405.6602               420.1530               441.1172
 Red. masses --     4.8919                 6.3235                 4.6048
 Frc consts  --     0.4743                 0.6577                 0.5279
 IR Inten    --    15.0296                 2.5173                 2.5012
 Raman Activ --     1.8283                 8.4307                 1.4686

                    31                     32                     33
                     A                      A                      A
 Frequencies --   447.9514               474.0673               497.0317
 Red. masses --     5.9266                 4.1881                 4.0215
 Frc consts  --     0.7007                 0.5546                 0.5853
 IR Inten    --     1.9449                 2.9631                 6.0183
 Raman Activ --     1.3399                 5.4972                 0.1443

                    34                     35                     36
                     A                      A                      A
 Frequencies --   514.1913               531.6840               571.4254
 Red. masses --     3.9931                 3.2683                 4.1577
 Frc consts  --     0.6220                 0.5444                 0.7999
 IR Inten    --     8.5342                10.3492                13.8864
 Raman Activ --     1.7734                 3.4183                 0.9908

                    37                     38                     39
                     A                      A                      A
 Frequencies --   591.0855               592.5370               616.4136
 Red. masses --     3.6872                 5.0485                 3.5742
 Frc consts  --     0.7590                 1.0443                 0.8001
 IR Inten    --    18.0308                14.0056                16.5988
 Raman Activ --     0.4802                 0.7878                 0.4402

                    40                     41                     42
                     A                      A                      A
 Frequencies --   632.8057               694.4683               701.3178
 Red. masses --     4.3218                 2.1579                 1.0842
 Frc consts  --     1.0197                 0.6132                 0.3142
 IR Inten    --    46.3107                42.0282                79.1324
 Raman Activ --     1.8136                 1.7184                 2.2675

                    43                     44                     45
                     A                      A                      A
 Frequencies --   703.0053               726.0162               742.9374
 Red. masses --     1.4911                 1.0700                 1.0834
 Frc consts  --     0.4342                 0.3323                 0.3523
 IR Inten    --   104.1234                76.3910               134.8399
 Raman Activ --     2.5910                 1.7462                 2.2700

                    46                     47                     48
                     A                      A                      A
 Frequencies --   755.4848               850.0193               851.5954
 Red. masses --     1.0596                 1.6405                 1.3975
 Frc consts  --     0.3563                 0.6984                 0.5971
 IR Inten    --    99.0007                11.7154                26.5375
 Raman Activ --     1.9518                 0.7919                 0.3379

                    49                     50                     51
                     A                      A                      A
 Frequencies --   871.1626               916.7004               956.6339
 Red. masses --     1.3725                 5.2155                 5.2954
 Frc consts  --     0.6137                 2.5823                 2.8553
 IR Inten    --    35.3856                68.3413                70.6072
 Raman Activ --     0.7235                 2.6982                 0.8239

                    52                     53                     54
                     A                      A                      A
 Frequencies --   973.3762               979.5775               985.1591
 Red. masses --     7.2421                 5.6904                 4.3940
 Frc consts  --     4.0427                 3.2171                 2.5126
 IR Inten    --    40.1556               218.1356                38.4762
 Raman Activ --     1.6168                 0.8563                 0.9209

                    55                     56                     57
                     A                      A                      A
 Frequencies --  1002.1329              1012.4249              1019.1141
 Red. masses --     5.3431                 6.6218                 6.3009
 Frc consts  --     3.1615                 3.9990                 3.8557
 IR Inten    --   305.7612                41.6377               124.0178
 Raman Activ --     4.0040                 1.2306                 4.0224

                    58                     59                     60
                     A                      A                      A
 Frequencies --  1038.3793              1057.0797              1065.3054
 Red. masses --     6.0847                 5.4143                 3.3307
 Frc consts  --     3.8655                 3.5645                 2.2271
 IR Inten    --   425.3266                73.1977                 3.6225
 Raman Activ --     3.4642                 4.4066                 8.0966

                    61                     62                     63
                     A                      A                      A
 Frequencies --  1067.8969              1072.8279              1079.4742
 Red. masses --     6.1231                 2.9440                 3.9283
 Frc consts  --     4.1141                 1.9964                 2.6970
 IR Inten    --    82.0746                10.8054                60.1336
 Raman Activ --     3.7215                15.4728                 7.4671

                    64                     65                     66
                     A                      A                      A
 Frequencies --  1089.6566              1093.9894              1104.6818
 Red. masses --     2.2565                 2.7125                 3.2280
 Frc consts  --     1.5786                 1.9127                 2.3209
 IR Inten    --    18.5225               111.4411                15.9397
 Raman Activ --     1.3003                 2.2736                19.3525

                    67                     68                     69
                     A                      A                      A
 Frequencies --  1116.4436              1124.4871              1133.7914
 Red. masses --     2.7030                 2.7725                 2.0560
 Frc consts  --     1.9850                 2.0655                 1.5572
 IR Inten    --     1.3371                 7.2794                 1.5318
 Raman Activ --     5.2444                 8.7538                 2.9372

                    70                     71                     72
                     A                      A                      A
 Frequencies --  1141.7362              1148.8853              1149.7882
 Red. masses --     2.4977                 2.3770                 2.2348
 Frc consts  --     1.9183                 1.8486                 1.7407
 IR Inten    --    18.6587                49.0360                43.5847
 Raman Activ --     6.2066                 0.8006                 2.7581

                    73                     74                     75
                     A                      A                      A
 Frequencies --  1153.3189              1165.7739              1172.4668
 Red. masses --     2.2014                 1.7011                 1.9391
 Frc consts  --     1.7253                 1.3621                 1.5706
 IR Inten    --    27.6827                 9.4116                 2.9503
 Raman Activ --     5.8564                 2.6588                 1.0487

                    76                     77                     78
                     A                      A                      A
 Frequencies --  1200.6014              1203.3105              1225.0047
 Red. masses --     1.3468                 1.3696                 1.2084
 Frc consts  --     1.1438                 1.1685                 1.0684
 IR Inten    --    24.6987                 6.5612                 0.5091
 Raman Activ --     2.8310                 2.2640                 1.2340

                    79                     80                     81
                     A                      A                      A
 Frequencies --  1232.9663              1233.5991              1260.1348
 Red. masses --     1.2395                 1.2558                 1.2618
 Frc consts  --     1.1101                 1.1259                 1.1805
 IR Inten    --    11.3174                 9.5168                14.6986
 Raman Activ --     2.2612                 2.5247                 1.0746

                    82                     83                     84
                     A                      A                      A
 Frequencies --  1265.7224              1279.7632              1287.6613
 Red. masses --     1.3315                 1.2148                 1.3219
 Frc consts  --     1.2568                 1.1723                 1.2914
 IR Inten    --    19.7774                20.1960                 5.8366
 Raman Activ --     0.5818                 5.3719                 3.7864

                    85                     86                     87
                     A                      A                      A
 Frequencies --  1292.1085              1298.3121              1305.3260
 Red. masses --     1.2610                 1.3359                 1.3494
 Frc consts  --     1.2405                 1.3267                 1.3546
 IR Inten    --    23.5195                21.1031                33.8086
 Raman Activ --     1.3620                 3.0311                 2.9409

                    88                     89                     90
                     A                      A                      A
 Frequencies --  1314.5592              1323.9091              1330.4423
 Red. masses --     1.1827                 1.3221                 1.2168
 Frc consts  --     1.2042                 1.3653                 1.2690
 IR Inten    --     1.4201                 8.4704                42.5974
 Raman Activ --     7.7154                 6.7232                 2.3109

                    91                     92                     93
                     A                      A                      A
 Frequencies --  1333.0615              1343.7259              1348.4006
 Red. masses --     1.2737                 1.2685                 1.1627
 Frc consts  --     1.3336                 1.3495                 1.2455
 IR Inten    --    28.4145                12.3285                20.5928
 Raman Activ --     7.7924                 2.5249                 7.0716

                    94                     95                     96
                     A                      A                      A
 Frequencies --  1349.2747              1353.1442              1359.9680
 Red. masses --     1.2164                 1.3654                 1.4813
 Frc consts  --     1.3047                 1.4730                 1.6142
 IR Inten    --    49.6473                 4.5305                 8.6963
 Raman Activ --     3.7563                 5.8518                 6.0389

                    97                     98                     99
                     A                      A                      A
 Frequencies --  1371.8933              1386.5569              1400.1755
 Red. masses --     1.4812                 1.5850                 1.3910
 Frc consts  --     1.6424                 1.7954                 1.6067
 IR Inten    --    11.0603                 4.2132                10.8554
 Raman Activ --     3.5930                 4.5192                 4.9821

                   100                    101                    102
                     A                      A                      A
 Frequencies --  1415.5162              1436.1111              1454.2913
 Red. masses --     1.5177                 1.4562                 1.4111
 Frc consts  --     1.7917                 1.7695                 1.7584
 IR Inten    --    34.8090                28.4203                18.5775
 Raman Activ --     1.8355                 0.8568                 1.0271

                   103                    104                    105
                     A                      A                      A
 Frequencies --  1467.8440              1475.1477              1478.6641
 Red. masses --     1.2317                 1.0830                 1.1785
 Frc consts  --     1.5636                 1.3885                 1.5182
 IR Inten    --    23.4425                 3.8438                 7.8979
 Raman Activ --     4.8688                 4.2672                 1.5372

                   106                    107                    108
                     A                      A                      A
 Frequencies --  1492.4568              1517.6055              3249.1553
 Red. masses --     1.2716                 1.2504                 1.0740
 Frc consts  --     1.6688                 1.6968                 6.6803
 IR Inten    --    45.0141                47.8389               305.3819
 Raman Activ --     3.5393                 0.8234               150.1119

                   109                    110                    111
                     A                      A                      A
 Frequencies --  3255.0569              3258.8185              3266.5071
 Red. masses --     1.0580                 1.0594                 1.0749
 Frc consts  --     6.6048                 6.6287                 6.7575
 IR Inten    --    24.4224               202.8237               213.9200
 Raman Activ --    75.4862                94.6163               128.4210

                   112                    113                    114
                     A                      A                      A
 Frequencies --  3272.4885              3277.9863              3279.6895
 Red. masses --     1.0811                 1.0810                 1.0836
 Frc consts  --     6.8215                 6.8436                 6.8675
 IR Inten    --     7.9225                50.4100                 5.6706
 Raman Activ --    67.1078               194.2721                56.7525

                   115                    116                    117
                     A                      A                      A
 Frequencies --  3280.6765              3281.5378              3289.6660
 Red. masses --     1.0730                 1.0823                 1.0858
 Frc consts  --     6.8041                 6.8667                 6.9233
 IR Inten    --   779.0498                79.5412                22.0698
 Raman Activ --    96.8795                23.6689                35.8519

                   118                    119                    120
                     A                      A                      A
 Frequencies --  3291.4974              3293.5290              3300.9364
 Red. masses --     1.0868                 1.0830                 1.0877
 Frc consts  --     6.9370                 6.9216                 6.9828
 IR Inten    --    35.5627               171.3021                58.3342
 Raman Activ --    19.9477               107.8230                34.7114

                   121                    122                    123
                     A                      A                      A
 Frequencies --  3305.4747              3311.2669              3315.2244
 Red. masses --     1.0930                 1.0966                 1.1055
 Frc consts  --     7.0360                 7.0844                 7.1585
 IR Inten    --    21.2457                98.1588                61.0382
 Raman Activ --    19.4247                24.1182                43.3630

                   124                    125                    126
                     A                      A                      A
 Frequencies --  3368.0765              3368.2108              3370.9147
 Red. masses --     1.0652                 1.0681                 1.0677
 Frc consts  --     7.1193                 7.1395                 7.1479
 IR Inten    --    29.6226                42.6389                66.2557
 Raman Activ --   107.8856               168.1367               159.5312

                   127                    128                    129
                     A                      A                      A
 Frequencies --  3371.1875              3888.0162              3890.3025
 Red. masses --     1.0658                 1.0674                 1.0677
 Frc consts  --     7.1364                 9.5067                 9.5210
 IR Inten    --    26.3240                63.6960                79.9727
 Raman Activ --   151.8208               128.9000                84.9578

 - Thermochemistry -
 -------------------
 Temperature   298.150 Kelvin.  Pressure   1.00000 Atm.
 Atom     1 has atomic number  8 and mass  15.99491

 Molecular mass:   342.11621 amu.
 Principal axes and moments of inertia in atomic units:
                           1         2         3
     Eigenvalues --  4432.30857********************
           X            0.99998   0.00701   0.00022
           Y           -0.00701   0.99997   0.00210
           Z           -0.00020  -0.00211   1.00000
 This molecule is an asymmetric top.
 Rotational symmetry number  1.
 Warning -- assumption of classical behavior for rotation
           may cause significant error
 Rotational temperatures (Kelvin)      0.01954     0.00707     0.00531
 Rotational constants (GHZ):           0.40718     0.14733     0.11065
    6 imaginary frequencies ignored.
 Zero-point vibrational energy     974474.6 (Joules/Mol)
                                  232.90501 (Kcal/Mol)
 Warning -- explicit consideration of  33 degrees of freedom as
           vibrations may cause significant error
 Vibrational temperatures:     69.64    82.76   102.16   126.30   146.50
          (Kelvin)            169.74   212.85   240.80   279.32   294.79
                              335.00   390.56   409.89   422.15   438.82
                              456.25   474.30   477.36   483.98   519.93
                              546.74   583.65   604.51   634.67   644.50
                              682.08   715.12   739.81   764.97   822.15
                              850.44   852.53   886.88   910.47   999.18
                             1009.04  1011.47  1044.57  1068.92  1086.97
                             1222.99  1225.25  1253.41  1318.93  1376.38
                             1400.47  1409.39  1417.42  1441.84  1456.65
                             1466.28  1493.99  1520.90  1532.73  1536.46
                             1543.56  1553.12  1567.77  1574.00  1589.39
                             1606.31  1617.88  1631.27  1642.70  1652.99
                             1654.29  1659.37  1677.29  1686.92  1727.40
                             1731.29  1762.51  1773.96  1774.87  1813.05
                             1821.09  1841.29  1852.66  1859.05  1867.98
                             1878.07  1891.36  1904.81  1914.21  1917.98
                             1933.32  1940.05  1941.30  1946.87  1956.69
                             1973.85  1994.94  2014.54  2036.61  2066.24
                             2092.40  2111.90  2122.41  2127.47  2147.31
                             2183.49  4674.80  4683.29  4688.71  4699.77
                             4708.38  4716.29  4718.74  4720.16  4721.40
                             4733.09  4735.72  4738.65  4749.31  4755.83
                             4764.17  4769.86  4845.90  4846.10  4849.99
                             4850.38  5593.98  5597.27

 Zero-point correction=                           0.371158 (Hartree/Particle)
 Thermal correction to Energy=                    0.390193
 Thermal correction to Enthalpy=                  0.391137
 Thermal correction to Gibbs Free Energy=         0.324634
 Sum of electronic and zero-point Energies=          -1297.611128
 Sum of electronic and thermal Energies=             -1297.592093
 Sum of electronic and thermal Enthalpies=           -1297.591149
 Sum of electronic and thermal Free Energies=        -1297.657652

                     E (Thermal)             CV                S
                      KCal/Mol        Cal/Mol-Kelvin    Cal/Mol-Kelvin
 Total                  244.850             77.828            139.967
 Electronic               0.000              0.000              0.000
 Translational            0.889              2.981             43.384
 Rotational               0.889              2.981             35.136
 Vibrational            243.072             71.867             61.446
 Vibration     1          0.595              1.978              4.882
 Vibration     2          0.596              1.974              4.540
 Vibration     3          0.598              1.968              4.125
 Vibration     4          0.601              1.958              3.709
 Vibration     5          0.604              1.948              3.419
 Vibration     6          0.608              1.934              3.133
 Vibration     7          0.617              1.905              2.699
 Vibration     8          0.624              1.883              2.465
 Vibration     9          0.635              1.848              2.188
 Vibration    10          0.640              1.833              2.089
 Vibration    11          0.654              1.791              1.857
 Vibration    12          0.675              1.726              1.587
 Vibration    13          0.683              1.702              1.504
 Vibration    14          0.688              1.686              1.454
 Vibration    15          0.696              1.664              1.389
 Vibration    16          0.704              1.641              1.325
 Vibration    17          0.712              1.616              1.262
 Vibration    18          0.714              1.612              1.251
 Vibration    19          0.717              1.603              1.229
 Vibration    20          0.736              1.552              1.116
 Vibration    21          0.750              1.513              1.039
 Vibration    22          0.771              1.458              0.942
 Vibration    23          0.783              1.426              0.891
 Vibration    24          0.801              1.380              0.823
 Vibration    25          0.807              1.365              0.802
 Vibration    26          0.831              1.308              0.726
 Vibration    27          0.853              1.257              0.666
 Vibration    28          0.869              1.219              0.624
 Vibration    29          0.887              1.180              0.583
 Vibration    30          0.928              1.093              0.502
 Vibration    31          0.948              1.051              0.465
 Vibration    32          0.950              1.048              0.463
 Vibration    33          0.976              0.997              0.422

 Normal termination of Gaussian 09 at Tue Mar 29 22:13:50 2016.
