 Gaussian 09, Revision B.01,
 Gaussian 09:  EM64L-G09RevB.01 12-Aug-2010

 -------------------------------------------------
 # freq=raman b3lyp/6-31+g(2d,p) geom=connectivity
 -------------------------------------------------

 -----------------
 400 6907/6907.com
 -----------------
 Symbolic Z-matrix:
 Charge =  0 Multiplicity = 1

                         Standard orientation:
 ---------------------------------------------------------------------
 Center     Atomic      Atomic             Coordinates (Angstroms)
 Number     Number       Type             X           Y           Z
 ---------------------------------------------------------------------
      1          8           0       -4.937679   -0.583624    0.483057
      2          6           0       -3.785897   -0.156495   -0.256989
      3          6           0       -3.300058    1.198990    0.230116
      4          8           0       -4.238600    2.068475   -0.419542
      5          1           0       -5.168086    1.700315   -0.420234
      6          6           0       -1.844759    1.582102    0.012535
      7          8           0       -1.479650    2.747546    0.765342
      8          1           0       -0.729103    3.084533    0.198264
      9          6           0       -2.839057   -2.569126   -0.190404
     10          8           0       -3.930403   -3.166348    0.523319
     11          1           0       -3.666965   -4.099060    0.766829
     12          6           0       -2.735987   -1.123493    0.266506
     13          8           0       -1.482743   -0.787552   -0.347429
     14          6           0       -0.898834    0.406447    0.192352
     15          8           0        0.237950    0.564614   -0.668655
     16          6           0        1.518148    0.127668   -0.192761
     17          6           0        2.151995   -1.160470   -0.693675
     18          8           0        1.090418   -2.106098   -0.501389
     19          1           0        0.264544   -1.542772   -0.527033
     20          6           0        3.396284   -1.485209    0.117601
     21          8           0        4.022944   -2.740454   -0.183723
     22          1           0        4.916480   -2.795262    0.261868
     23          6           0        2.196513    2.625639    0.072235
     24          8           0        0.977640    3.235030   -0.379849
     25          1           0        1.271235    4.191413   -0.387545
     26          6           0        2.566664    1.215890   -0.357562
     27          8           0        3.726768    0.906489    0.428841
     28          6           0        4.362690   -0.315621    0.026303
     29          8           0        5.449169   -0.392309    0.961036
     30          1           0        6.280634   -0.431247    0.482757
     31          1           0        2.998057    3.266080   -0.231514
     32          1           0        2.170690    2.630117    1.141914
     33          1           0        2.856296    1.245681   -1.387186
     34          1           0        1.396151   -0.006009    0.861823
     35          1           0        2.393518   -1.077025   -1.732715
     36          1           0        3.084277   -1.543168    1.139459
     37          1           0        4.739664   -0.223732   -0.970867
     38          1           0       -5.623712   -0.864757   -0.126798
     39          1           0       -3.028935   -2.605616   -1.242789
     40          1           0       -1.930278   -3.087476    0.033948
     41          1           0       -2.660903   -1.066068    1.332322
     42          1           0       -3.915048   -0.210916   -1.317771
     43          1           0       -3.486856    1.248561    1.282518
     44          1           0       -1.766892    1.863628   -1.016825
     45          1           0       -0.607497    0.278705    1.213970
 ---------------------------------------------------------------------

 SCF Done:  E(RB3LYP) =  -1297.96465567     A.U. after   14 cycles

 The electronic state is 1-A.
 Alpha  occ. eigenvalues --  -19.18780 -19.18383 -19.18184 -19.17927 -19.17256
 Alpha  occ. eigenvalues --  -19.16552 -19.16390 -19.15242 -19.14507 -19.14340
 Alpha  occ. eigenvalues --  -19.13942 -10.30946 -10.30398 -10.25700 -10.25551
 Alpha  occ. eigenvalues --  -10.25231 -10.25091 -10.24860 -10.24649 -10.24371
 Alpha  occ. eigenvalues --  -10.24053 -10.23912 -10.23163  -1.10021  -1.09349
 Alpha  occ. eigenvalues --   -1.05732  -1.05218  -1.03781  -1.03508  -1.02822
 Alpha  occ. eigenvalues --   -1.02225  -1.01743  -1.01055  -1.00650  -0.82005
 Alpha  occ. eigenvalues --   -0.79716  -0.79354  -0.77967  -0.71541  -0.69781
 Alpha  occ. eigenvalues --   -0.67453  -0.64960  -0.62787  -0.62140  -0.61842
 Alpha  occ. eigenvalues --   -0.60158  -0.56637  -0.55913  -0.54972  -0.54812
 Alpha  occ. eigenvalues --   -0.53602  -0.53161  -0.52560  -0.51852  -0.51450
 Alpha  occ. eigenvalues --   -0.50352  -0.49779  -0.48877  -0.48373  -0.46544
 Alpha  occ. eigenvalues --   -0.46213  -0.44844  -0.44144  -0.43717  -0.43128
 Alpha  occ. eigenvalues --   -0.42610  -0.41716  -0.41261  -0.40240  -0.39450
 Alpha  occ. eigenvalues --   -0.38469  -0.38123  -0.37844  -0.36321  -0.35474
 Alpha  occ. eigenvalues --   -0.35438  -0.34979  -0.34175  -0.33909  -0.33452
 Alpha  occ. eigenvalues --   -0.33208  -0.31429  -0.31240  -0.30613  -0.30032
 Alpha  occ. eigenvalues --   -0.29009  -0.28469  -0.28229  -0.27644  -0.26529
 Alpha  occ. eigenvalues --   -0.25383
 Alpha virt. eigenvalues --   -0.02233  -0.02153  -0.01409  -0.00248   0.00284
 Alpha virt. eigenvalues --    0.01235   0.02012   0.02259   0.02957   0.03435
 Alpha virt. eigenvalues --    0.03825   0.04117   0.04403   0.05354   0.05576

 Mulliken atomic charges:
              1
     1  O   -0.521368
     2  C   -0.023968
     3  C    0.357053
     4  O   -0.577984
     5  H    0.337378
     6  C   -0.329773
     7  O   -0.523800
     8  H    0.384045
     9  C   -0.206027
    10  O   -0.521024
    11  H    0.334772
    12  C    0.086015
    13  O   -0.230994
    14  C    0.331074
    15  O   -0.222469
    16  C    0.077341
    17  C    0.159179
    18  O   -0.564761
    19  H    0.396029
    20  C    0.105804
    21  O   -0.553204
    22  H    0.337382
    23  C   -0.331287
    24  O   -0.541688
    25  H    0.357272
    26  C    0.015766
    27  O   -0.221831
    28  C    0.104751
    29  O   -0.527660
    30  H    0.333215
    31  H    0.139958
    32  H    0.160923
    33  H    0.112449
    34  H    0.108448
    35  H    0.118637
    36  H    0.126766
    37  H    0.123494
    38  H    0.334693
    39  H    0.141987
    40  H    0.151166
    41  H    0.120772
    42  H    0.136685
    43  H    0.134877
    44  H    0.142239
    45  H    0.127670
 Sum of Mulliken atomic charges =   0.00000

 Dipole moment (field-independent basis, Debye):
    X=              3.1488    Y=              0.6601    Z=             -1.9117  Tot=              3.7423
 Quadrupole moment (field-independent basis, Debye-Ang):
   XX=           -113.1334   YY=           -137.5253   ZZ=           -141.4974
   XY=             16.5252   XZ=              1.0597   YZ=             -6.4846

  Exact polarizability: 233.478  -2.461 194.379   1.017  -0.511 144.838
 Approx polarizability: 275.453  -1.860 253.818   0.184  -1.467 240.920

 ******    8 imaginary frequencies (negative Signs) ******

                     1                      2                      3
                     A                      A                      A
 Frequencies --  -305.2064              -282.3112              -201.2187
 Red. masses --     1.1647                 1.7261                 1.2229
 Frc consts  --     0.0639                 0.0811                 0.0292
 IR Inten    --   106.5386                 1.0701                97.5651
 Raman Activ --     1.2112                 0.0299                 0.6895

                     4                      5                      6
                     A                      A                      A
 Frequencies --  -166.9290               -87.9319               -68.5560
 Red. masses --     2.0077                 6.6279                 5.6240
 Frc consts  --     0.0330                 0.0302                 0.0156
 IR Inten    --     3.6426                 2.1933                 0.8967
 Raman Activ --     0.2187                 0.0480                 0.0502

                     7                      8                      9
                     A                      A                      A
 Frequencies --   -56.5467               -22.7272                44.9687
 Red. masses --     5.9597                 6.6051                 6.3639
 Frc consts  --     0.0112                 0.0020                 0.0076
 IR Inten    --     0.4657                 0.1153                 0.8450
 Raman Activ --     0.0238                 0.0611                 0.0899

                    10                     11                     12
                     A                      A                      A
 Frequencies --    75.4669                86.7316               110.6370
 Red. masses --     6.6937                 6.1035                 5.6448
 Frc consts  --     0.0225                 0.0271                 0.0407
 IR Inten    --     0.3760                 0.4012                 1.1183
 Raman Activ --     0.1290                 0.1499                 0.1052

                    13                     14                     15
                     A                      A                      A
 Frequencies --   150.7814               165.2994               192.0791
 Red. masses --     5.8083                 6.5274                 6.7118
 Frc consts  --     0.0778                 0.1051                 0.1459
 IR Inten    --     4.2705                 1.0538                 0.3631
 Raman Activ --     0.2627                 0.9325                 0.3200

                    16                     17                     18
                     A                      A                      A
 Frequencies --   208.3599               233.0791               263.9928
 Red. masses --     6.5950                 6.3671                 4.7296
 Frc consts  --     0.1687                 0.2038                 0.1942
 IR Inten    --     0.3296                 2.5219                11.5932
 Raman Activ --     1.7236                 0.2905                 0.5068

                    19                     20                     21
                     A                      A                      A
 Frequencies --   269.3116               283.4699               290.8951
 Red. masses --     4.9124                 4.9631                 4.9083
 Frc consts  --     0.2099                 0.2350                 0.2447
 IR Inten    --     2.9876                 1.8583                 2.8650
 Raman Activ --     0.0738                 0.2946                 0.2505

                    22                     23                     24
                     A                      A                      A
 Frequencies --   300.4500               316.0768               333.4943
 Red. masses --     5.0876                 5.1165                 5.8988
 Frc consts  --     0.2706                 0.3012                 0.3865
 IR Inten    --     4.0030                 1.2094                 6.6142
 Raman Activ --     0.5281                 1.8559                 4.1880

                    25                     26                     27
                     A                      A                      A
 Frequencies --   356.0648               364.3329               377.3261
 Red. masses --     7.4758                 5.3048                 6.1695
 Frc consts  --     0.5584                 0.4149                 0.5175
 IR Inten    --     5.6159                11.7216                 1.9969
 Raman Activ --     6.0849                 0.2846                 0.6383

                    28                     29                     30
                     A                      A                      A
 Frequencies --   399.8249               413.1724               437.7661
 Red. masses --     4.3870                 6.5664                 5.1627
 Frc consts  --     0.4132                 0.6604                 0.5829
 IR Inten    --    13.2491                 3.1793                 7.9219
 Raman Activ --     1.4374                 6.3494                 2.7333

                    31                     32                     33
                     A                      A                      A
 Frequencies --   443.4141               491.1538               509.6556
 Red. masses --     4.0073                 4.4370                 3.7414
 Frc consts  --     0.4642                 0.6306                 0.5726
 IR Inten    --     2.3026                 4.4340                 5.7517
 Raman Activ --     2.3793                 0.6951                 1.2940

                    34                     35                     36
                     A                      A                      A
 Frequencies --   529.6713               546.5645               565.4944
 Red. masses --     4.2401                 3.5499                 3.6356
 Frc consts  --     0.7009                 0.6248                 0.6850
 IR Inten    --     8.7366                19.3671                25.2495
 Raman Activ --     2.1267                 4.6504                 1.2395

                    37                     38                     39
                     A                      A                      A
 Frequencies --   579.2024               596.1850               625.6730
 Red. masses --     2.7574                 5.5112                 4.9732
 Frc consts  --     0.5450                 1.1541                 1.1470
 IR Inten    --    36.4227                 2.4570                 0.3203
 Raman Activ --     0.5312                 0.8243                 0.3790

                    40                     41                     42
                     A                      A                      A
 Frequencies --   638.3487               694.8804               700.8636
 Red. masses --     5.2302                 1.1050                 1.2783
 Frc consts  --     1.2557                 0.3144                 0.3699
 IR Inten    --    38.8816                97.5354                56.7916
 Raman Activ --     0.6023                 2.3598                 0.6691

                    43                     44                     45
                     A                      A                      A
 Frequencies --   702.8620               717.1160               738.2986
 Red. masses --     1.0827                 2.5003                 1.1303
 Frc consts  --     0.3151                 0.7576                 0.3630
 IR Inten    --   106.3269                15.1013                94.5871
 Raman Activ --     2.2509                 1.1689                 1.4999

                    46                     47                     48
                     A                      A                      A
 Frequencies --   795.7427               803.8050               860.1377
 Red. masses --     1.1177                 1.1045                 1.7026
 Frc consts  --     0.4170                 0.4205                 0.7421
 IR Inten    --   124.2904                60.3905                 1.4762
 Raman Activ --     1.1987                 1.6405                 3.0715

                    49                     50                     51
                     A                      A                      A
 Frequencies --   861.5082               918.8653               958.8736
 Red. masses --     1.7098                 5.3848                 6.3472
 Frc consts  --     0.7477                 2.6787                 3.4384
 IR Inten    --     4.4521               100.9452               101.7150
 Raman Activ --     0.3715                 2.5391                 0.4625

                    52                     53                     54
                     A                      A                      A
 Frequencies --   967.6117               979.2927               992.1502
 Red. masses --     5.4481                 5.6773                 6.0300
 Frc consts  --     3.0053                 3.2078                 3.4972
 IR Inten    --    15.3835               412.3530                21.2642
 Raman Activ --     2.5988                 0.6565                 3.4523

                    55                     56                     57
                     A                      A                      A
 Frequencies --  1005.6709              1019.5834              1031.3343
 Red. masses --     5.3447                 6.1443                 6.3991
 Frc consts  --     3.1848                 3.7633                 4.0102
 IR Inten    --   150.4634                25.4642               120.4463
 Raman Activ --     1.4498                 3.7630                 3.0747

                    58                     59                     60
                     A                      A                      A
 Frequencies --  1038.6970              1051.8071              1061.3687
 Red. masses --     3.7649                 5.6424                 5.1749
 Frc consts  --     2.3932                 3.6778                 3.4347
 IR Inten    --    96.9186               257.1817               136.7201
 Raman Activ --    11.2799                 6.7989                 6.8493

                    61                     62                     63
                     A                      A                      A
 Frequencies --  1064.9230              1071.3656              1076.1922
 Red. masses --     3.6500                 2.9637                 5.4271
 Frc consts  --     2.4388                 2.0043                 3.7034
 IR Inten    --    26.5070                 3.3648                53.9999
 Raman Activ --     7.1223                15.1233                 2.0842

                    64                     65                     66
                     A                      A                      A
 Frequencies --  1084.2315              1095.0819              1096.5184
 Red. masses --     3.9188                 2.5710                 2.7591
 Frc consts  --     2.7142                 1.8165                 1.9546
 IR Inten    --   122.1002                20.5381                88.6302
 Raman Activ --     7.6330                 2.9188                 3.1489

                    67                     68                     69
                     A                      A                      A
 Frequencies --  1114.3644              1123.3098              1128.1363
 Red. masses --     2.7487                 2.6855                 2.0903
 Frc consts  --     2.0111                 1.9965                 1.5674
 IR Inten    --    51.9919                 9.1714                 2.0812
 Raman Activ --     5.4965                 9.1032                 8.5059

                    70                     71                     72
                     A                      A                      A
 Frequencies --  1130.7094              1153.4978              1160.4996
 Red. masses --     2.6068                 2.4421                 1.4961
 Frc consts  --     1.9636                 1.9145                 1.1872
 IR Inten    --    19.4704                51.6225                 9.7146
 Raman Activ --     1.7063                 5.1371                 1.3337

                    73                     74                     75
                     A                      A                      A
 Frequencies --  1164.1491              1170.1260              1179.5650
 Red. masses --     1.7173                 2.0319                 1.3319
 Frc consts  --     1.3713                 1.6391                 1.0919
 IR Inten    --     9.4988                11.4091                11.0994
 Raman Activ --     2.7598                 1.8681                 1.2393

                    76                     77                     78
                     A                      A                      A
 Frequencies --  1200.0388              1206.6254              1218.5239
 Red. masses --     1.5117                 1.7576                 1.2051
 Frc consts  --     1.2827                 1.5077                 1.0542
 IR Inten    --    13.4682                 9.2485                 4.3531
 Raman Activ --     0.8761                 1.6467                 2.6974

                    79                     80                     81
                     A                      A                      A
 Frequencies --  1229.3818              1238.5070              1243.8955
 Red. masses --     1.3411                 1.2597                 1.2705
 Frc consts  --     1.1942                 1.1384                 1.1582
 IR Inten    --     3.9403                 3.9511                 3.1044
 Raman Activ --     0.1130                 2.1892                 6.3782

                    82                     83                     84
                     A                      A                      A
 Frequencies --  1270.8920              1276.9636              1278.7664
 Red. masses --     1.3459                 1.3637                 1.3433
 Frc consts  --     1.2808                 1.3102                 1.2943
 IR Inten    --     5.3302                 6.2513                44.4728
 Raman Activ --     2.6657                 1.3751                 1.8453

                    85                     86                     87
                     A                      A                      A
 Frequencies --  1286.6767              1297.2738              1300.4017
 Red. masses --     1.3147                 1.3213                 1.3266
 Frc consts  --     1.2824                 1.3101                 1.3217
 IR Inten    --    24.3653                10.3749                12.2861
 Raman Activ --     5.0781                 1.7053                 1.4807

                    88                     89                     90
                     A                      A                      A
 Frequencies --  1303.8247              1322.7668              1328.5902
 Red. masses --     1.2238                 1.1997                 1.2444
 Frc consts  --     1.2257                 1.2368                 1.2942
 IR Inten    --    26.7880                 1.8055                46.0010
 Raman Activ --     4.3278                13.1635                 1.7776

                    91                     92                     93
                     A                      A                      A
 Frequencies --  1333.0145              1341.3617              1357.1134
 Red. masses --     1.3939                 1.2332                 1.4620
 Frc consts  --     1.4593                 1.3073                 1.5865
 IR Inten    --    62.5502                 6.0552                15.7323
 Raman Activ --     3.1087                 7.1750                 7.2879

                    94                     95                     96
                     A                      A                      A
 Frequencies --  1360.9788              1375.3057              1376.0009
 Red. masses --     1.4011                 1.5114                 1.3336
 Frc consts  --     1.5291                 1.6843                 1.4877
 IR Inten    --    21.6502                 3.8258                 7.0349
 Raman Activ --     2.2222                 4.2680                 2.6605

                    97                     98                     99
                     A                      A                      A
 Frequencies --  1379.8245              1398.7759              1417.6517
 Red. masses --     1.3684                 1.3030                 1.4782
 Frc consts  --     1.5350                 1.5021                 1.7504
 IR Inten    --    15.2129                15.4128                35.6572
 Raman Activ --     4.9509                 3.7365                 1.5156

                   100                    101                    102
                     A                      A                      A
 Frequencies --  1420.4683              1426.7036              1459.1655
 Red. masses --     1.5344                 1.2624                 1.3090
 Frc consts  --     1.8241                 1.5140                 1.6421
 IR Inten    --    37.0457                 5.0929                28.1022
 Raman Activ --     1.4996                 5.0756                 2.7503

                   103                    104                    105
                     A                      A                      A
 Frequencies --  1469.6560              1469.8742              1511.4231
 Red. masses --     1.1076                 1.0727                 1.2782
 Frc consts  --     1.4095                 1.3655                 1.7203
 IR Inten    --     6.7406                 5.8765                25.0884
 Raman Activ --     2.9751                 4.8394                 0.5179

                   106                    107                    108
                     A                      A                      A
 Frequencies --  1542.0886              1555.9971              3259.2650
 Red. masses --     1.1731                 1.1863                 1.0550
 Frc consts  --     1.6436                 1.6923                 6.6031
 IR Inten    --    95.8735                39.3192                24.3845
 Raman Activ --     5.8842                 0.6291                75.2987

                   109                    110                    111
                     A                      A                      A
 Frequencies --  3259.4042              3261.4820              3269.9142
 Red. masses --     1.0586                 1.0814                 1.0825
 Frc consts  --     6.6263                 6.7776                 6.8197
 IR Inten    --    53.1111                 3.5573                16.6781
 Raman Activ --    64.9584                37.1900                15.9651

                   112                    113                    114
                     A                      A                      A
 Frequencies --  3274.3726              3274.7869              3279.2121
 Red. masses --     1.0820                 1.0817                 1.0856
 Frc consts  --     6.8350                 6.8345                 6.8779
 IR Inten    --     4.8767                18.3677                 1.3676
 Raman Activ --    71.4891               270.3607                 2.4365

                   115                    116                    117
                     A                      A                      A
 Frequencies --  3284.8193              3292.4102              3295.2778
 Red. masses --     1.0838                 1.0858                 1.0840
 Frc consts  --     6.8900                 6.9344                 6.9350
 IR Inten    --     5.1868                29.8654               189.5342
 Raman Activ --    15.6218                38.6836                21.8758

                   118                    119                    120
                     A                      A                      A
 Frequencies --  3296.0235              3307.8714              3310.5860
 Red. masses --     1.0866                 1.0740                 1.0874
 Frc consts  --     6.9549                 6.9236                 7.0219
 IR Inten    --     0.7395               140.8658                28.3479
 Raman Activ --    93.0810               212.1707                28.3029

                   121                    122                    123
                     A                      A                      A
 Frequencies --  3313.6549              3318.6242              3327.7031
 Red. masses --     1.0999                 1.0686                 1.1086
 Frc consts  --     7.1156                 6.9340                 7.2328
 IR Inten    --    91.1917               749.5980                41.2446
 Raman Activ --    36.6292                66.2165                33.6897

                   124                    125                    126
                     A                      A                      A
 Frequencies --  3361.8608              3366.8485              3369.4631
 Red. masses --     1.0665                 1.0669                 1.0662
 Frc consts  --     7.1019                 7.1255                 7.1319
 IR Inten    --    35.4824                41.4181                42.6006
 Raman Activ --   116.7376               122.9543               135.3738

                   127                    128                    129
                     A                      A                      A
 Frequencies --  3376.2126              3889.5213              3891.8773
 Red. masses --     1.0693                 1.0676                 1.0675
 Frc consts  --     7.1817                 9.5159                 9.5265
 IR Inten    --    22.7640                65.2488                74.2594
 Raman Activ --   153.5829               102.2038               120.7157

 - Thermochemistry -
 -------------------
 Temperature   298.150 Kelvin.  Pressure   1.00000 Atm.
 Atom     1 has atomic number  8 and mass  15.99491

 Molecular mass:   342.11621 amu.
 Principal axes and moments of inertia in atomic units:
                           1         2         3
     Eigenvalues --  4362.75578********************
           X            0.99997   0.00786  -0.00022
           Y           -0.00786   0.99997  -0.00191
           Z            0.00020   0.00191   1.00000
 This molecule is an asymmetric top.
 Rotational symmetry number  1.
 Warning -- assumption of classical behavior for rotation
           may cause significant error
 Rotational temperatures (Kelvin)      0.01985     0.00703     0.00539
 Rotational constants (GHZ):           0.41367     0.14649     0.11228
    8 imaginary frequencies ignored.
 Zero-point vibrational energy     974907.5 (Joules/Mol)
                                  233.00848 (Kcal/Mol)
 Warning -- explicit consideration of  30 degrees of freedom as
           vibrations may cause significant error
 Vibrational temperatures:     64.70   108.58   124.79   159.18   216.94
          (Kelvin)            237.83   276.36   299.78   335.35   379.83
                              387.48   407.85   418.53   432.28   454.76
                              479.82   512.30   524.19   542.89   575.26
                              594.46   629.85   637.97   706.66   733.28
                              762.08   786.38   813.62   833.34   857.78
                              900.20   918.44   999.78  1008.39  1011.26
                             1031.77  1062.25  1144.89  1156.49  1237.54
                             1239.52  1322.04  1379.60  1392.18  1408.98
                             1427.48  1446.93  1466.95  1483.86  1494.45
                             1513.31  1527.07  1532.18  1541.45  1548.40
                             1559.97  1575.58  1577.64  1603.32  1616.19
                             1623.13  1626.84  1659.62  1669.70  1674.95
                             1683.55  1697.13  1726.59  1736.06  1753.18
                             1768.80  1781.93  1789.69  1828.53  1837.26
                             1839.86  1851.24  1866.49  1870.99  1875.91
                             1903.16  1911.54  1917.91  1929.92  1952.58
                             1958.14  1978.76  1979.76  1985.26  2012.52
                             2039.68  2043.73  2052.71  2099.41  2114.50
                             2114.82  2174.60  2218.72  2238.73  4689.35
                             4689.55  4692.54  4704.67  4711.09  4711.68
                             4718.05  4726.12  4737.04  4741.16  4742.24
                             4759.28  4763.19  4767.60  4774.75  4787.82
                             4836.96  4844.14  4847.90  4857.61  5596.15
                             5599.54

 Zero-point correction=                           0.371323 (Hartree/Particle)
 Thermal correction to Energy=                    0.388867
 Thermal correction to Enthalpy=                  0.389812
 Thermal correction to Gibbs Free Energy=         0.326904
 Sum of electronic and zero-point Energies=          -1297.593333
 Sum of electronic and thermal Energies=             -1297.575788
 Sum of electronic and thermal Enthalpies=           -1297.574844
 Sum of electronic and thermal Free Energies=        -1297.637752

                     E (Thermal)             CV                S
                      KCal/Mol        Cal/Mol-Kelvin    Cal/Mol-Kelvin
 Total                  244.018             73.896            132.400
 Electronic               0.000              0.000              0.000
 Translational            0.889              2.981             43.384
 Rotational               0.889              2.981             35.112
 Vibrational            242.241             67.935             53.904
 Vibration     1          0.595              1.979              5.027
 Vibration     2          0.599              1.965              4.005
 Vibration     3          0.601              1.958              3.732
 Vibration     4          0.606              1.941              3.258
 Vibration     5          0.618              1.902              2.662
 Vibration     6          0.624              1.885              2.488
 Vibration     7          0.634              1.851              2.208
 Vibration     8          0.642              1.828              2.058
 Vibration     9          0.654              1.790              1.855
 Vibration    10          0.671              1.739              1.635
 Vibration    11          0.674              1.730              1.601
 Vibration    12          0.682              1.704              1.513
 Vibration    13          0.687              1.691              1.469
 Vibration    14          0.693              1.673              1.414
 Vibration    15          0.703              1.643              1.330
 Vibration    16          0.715              1.609              1.243
 Vibration    17          0.732              1.563              1.139
 Vibration    18          0.738              1.546              1.104
 Vibration    19          0.748              1.518              1.050
 Vibration    20          0.766              1.470              0.963
 Vibration    21          0.777              1.442              0.915
 Vibration    22          0.798              1.388              0.834
 Vibration    23          0.803              1.375              0.816
 Vibration    24          0.847              1.270              0.681
 Vibration    25          0.865              1.229              0.634
 Vibration    26          0.885              1.184              0.588
 Vibration    27          0.902              1.147              0.551
 Vibration    28          0.921              1.106              0.513
 Vibration    29          0.936              1.076              0.487
 Vibration    30          0.954              1.040              0.456

 Normal termination of Gaussian 09 at Sun Mar 27 01:03:33 2016.
