 Gaussian 09, Revision B.01,
 Gaussian 09:  EM64L-G09RevB.01 12-Aug-2010

 ------------------------------------------------
 # freq=raman b3lyp/6-31+g(d,p) geom=connectivity
 ------------------------------------------------

 ------------
 320 5000.com
 ------------
 Symbolic Z-matrix:
 Charge =  0 Multiplicity = 1

                         Standard orientation:
 ---------------------------------------------------------------------
 Center     Atomic      Atomic             Coordinates (Angstroms)
 Number     Number       Type             X           Y           Z
 ---------------------------------------------------------------------
      1          8           0       -5.030838   -0.356026    0.294092
      2          6           0       -3.695115   -0.099323   -0.162558
      3          6           0       -3.209317    1.263311    0.305662
      4          8           0       -3.991167    2.315074   -0.278431
      5          1           0       -4.928179    2.057771   -0.046145
      6          6           0       -1.775821    1.535721   -0.120466
      7          8           0       -1.098950    2.631202    0.512768
      8          1           0       -0.250125    2.900537    0.056260
      9          6           0       -3.096525   -2.485104   -0.104899
     10          8           0       -4.342680   -3.107291    0.242206
     11          1           0       -4.257821   -4.053862   -0.067949
     12          6           0       -2.733560   -1.111918    0.437468
     13          8           0       -1.433842   -0.884501   -0.126867
     14          6           0       -0.858311    0.378748    0.238691
     15          8           0        0.302430    0.558980   -0.584458
     16          6           0        1.528166    0.224901    0.084208
     17          6           0        1.975133   -1.142554   -0.405968
     18          8           0        0.979825   -2.175177   -0.402490
     19          1           0        0.195136   -1.663860   -0.752004
     20          6           0        3.302627   -1.638355    0.144589
     21          8           0        3.900166   -2.775728   -0.494302
     22          1           0        4.740120   -3.070267   -0.039243
     23          6           0        2.384694    2.702889    0.053231
     24          8           0        1.312261    3.544133   -0.393280
     25          1           0        1.577725    4.501530   -0.282568
     26          6           0        2.600063    1.237016   -0.287111
     27          8           0        3.758587    0.809716    0.442984
     28          6           0        4.259787   -0.464750    0.012789
     29          8           0        5.327861   -0.731074    0.932886
     30          1           0        6.134309   -0.910206    0.443853
     31          1           0        4.637511   -0.400155   -0.986236
     32          1           0        3.176829   -1.860971    1.183587
     33          1           0        2.173231   -0.983346   -1.445348
     34          1           0        1.381632    0.210213    1.144025
     35          1           0        2.802027    1.154312   -1.334618
     36          1           0        1.527540    2.236026    0.491667
     37          1           0        2.539966    2.732274   -1.005035
     38          1           0       -5.609924   -0.476483   -0.462049
     39          1           0       -2.318178   -3.155412    0.194707
     40          1           0       -3.067433   -2.417417   -1.172360
     41          1           0       -2.723722   -1.085836    1.507105
     42          1           0       -3.658798   -0.151484   -1.230669
     43          1           0       -3.279631    1.318412    1.371927
     44          1           0       -1.752706    1.680769   -1.180337
     45          1           0       -0.599669    0.399509    1.276753
 ---------------------------------------------------------------------

 SCF Done:  E(RB3LYP) =  -1297.64001060     A.U. after   15 cycles

 The electronic state is 1-A.
 Alpha  occ. eigenvalues --  -19.21269 -19.21037 -19.19919 -19.19526 -19.18903
 Alpha  occ. eigenvalues --  -19.18180 -19.17915 -19.17052 -19.16585 -19.15544
 Alpha  occ. eigenvalues --  -19.15121 -10.31597 -10.31393 -10.31187 -10.27141
 Alpha  occ. eigenvalues --  -10.26520 -10.25941 -10.25867 -10.25263 -10.25198
 Alpha  occ. eigenvalues --  -10.25099 -10.24337 -10.20734  -1.11402  -1.10101
 Alpha  occ. eigenvalues --   -1.08591  -1.06275  -1.05071  -1.04449  -1.03323
 Alpha  occ. eigenvalues --   -1.02967  -1.02626  -1.01723  -1.01014  -0.85237
 Alpha  occ. eigenvalues --   -0.81683  -0.80936  -0.79124  -0.74397  -0.70612
 Alpha  occ. eigenvalues --   -0.67892  -0.65829  -0.64489  -0.63139  -0.62951
 Alpha  occ. eigenvalues --   -0.61314  -0.58551  -0.56996  -0.56193  -0.55594
 Alpha  occ. eigenvalues --   -0.54696  -0.54618  -0.53508  -0.52610  -0.52212
 Alpha  occ. eigenvalues --   -0.51768  -0.50326  -0.49918  -0.49185  -0.48464
 Alpha  occ. eigenvalues --   -0.46339  -0.45816  -0.44582  -0.44455  -0.43683
 Alpha  occ. eigenvalues --   -0.43588  -0.42661  -0.42066  -0.41199  -0.39874
 Alpha  occ. eigenvalues --   -0.39675  -0.38463  -0.37915  -0.36712  -0.36355
 Alpha  occ. eigenvalues --   -0.36220  -0.35306  -0.34926  -0.33896  -0.33805
 Alpha  occ. eigenvalues --   -0.32088  -0.31947  -0.31525  -0.30358  -0.29730
 Alpha  occ. eigenvalues --   -0.29107  -0.28705  -0.28059  -0.27290  -0.26618
 Alpha  occ. eigenvalues --   -0.21337
 Alpha virt. eigenvalues --   -0.09574  -0.02200  -0.02165  -0.00481  -0.00250
 Alpha virt. eigenvalues --    0.00537   0.01210   0.01381   0.01995   0.03027
 Alpha virt. eigenvalues --    0.03598   0.03981   0.04484   0.04558   0.05024

 Mulliken atomic charges:
              1
     1  O   -0.518364
     2  C   -0.130763
     3  C    0.127371
     4  O   -0.496214
     5  H    0.348601
     6  C   -0.145070
     7  O   -0.534479
     8  H    0.431582
     9  C   -0.045618
    10  O   -0.530424
    11  H    0.350062
    12  C    0.132476
    13  O   -0.408861
    14  C    0.198657
    15  O   -0.388473
    16  C   -0.349913
    17  C   -0.056580
    18  O   -0.458061
    19  H    0.392660
    20  C    0.066084
    21  O   -0.513370
    22  H    0.356521
    23  C   -1.078625
    24  O   -0.607108
    25  H    0.430204
    26  C    1.106029
    27  O   -0.209631
    28  C    0.252845
    29  O   -0.556441
    30  H    0.364046
    31  H    0.139375
    32  H    0.154165
    33  H    0.127934
    34  H    0.147766
    35  H    0.115442
    36  H    0.184303
    37  H    0.244836
    38  H    0.369393
    39  H    0.145229
    40  H    0.128906
    41  H    0.144344
    42  H    0.139732
    43  H    0.144155
    44  H    0.153156
    45  H    0.132117
 Sum of Mulliken atomic charges =   0.00000

 Dipole moment (field-independent basis, Debye):
    X=              1.0262    Y=             -1.4249    Z=             -3.4455  Tot=              3.8672
 Quadrupole moment (field-independent basis, Debye-Ang):
   XX=           -122.0742   YY=           -141.9204   ZZ=           -140.7248
   XY=              3.0627   XZ=             -1.4977   YZ=             -6.4770

  Exact polarizability: 235.714  -4.093 208.993   2.538  -0.592 144.763
 Approx polarizability: 278.092  -7.445 275.344   1.791  -2.495 240.583

 ******   11 imaginary frequencies (negative Signs) ******

                     1                      2                      3
                     A                      A                      A
 Frequencies -- -1883.6946              -800.2342              -606.1211
 Red. masses --     1.0481                 1.1414                 3.2061
 Frc consts  --     2.1912                 0.4307                 0.6940
 IR Inten    --   654.8571                54.6250                28.1440
 Raman Activ --    64.8114                12.3105                 5.3563

                     4                      5                      6
                     A                      A                      A
 Frequencies --  -447.9702              -321.5620              -318.6249
 Red. masses --     1.7074                 1.1696                 1.2059
 Frc consts  --     0.2019                 0.0713                 0.0721
 IR Inten    --   244.8779               103.7346               144.2716
 Raman Activ --    69.8380                 2.6494                 1.4862

                     7                      8                      9
                     A                      A                      A
 Frequencies --  -260.9370              -160.6023               -91.0186
 Red. masses --     1.6974                 6.1499                 6.4107
 Frc consts  --     0.0681                 0.0935                 0.0313
 IR Inten    --    12.1647                10.6207                 2.5791
 Raman Activ --     0.2352                 0.6953                 0.0714

                    10                     11                     12
                     A                      A                      A
 Frequencies --   -63.4602                -5.7996                45.9266
 Red. masses --     6.6846                 6.5716                 6.5260
 Frc consts  --     0.0159                 0.0001                 0.0081
 IR Inten    --     0.7244                 1.1200                 0.3183
 Raman Activ --     0.1618                 0.1596                 0.2451

                    13                     14                     15
                     A                      A                      A
 Frequencies --    66.2265                72.2690                85.2731
 Red. masses --     6.0426                 5.6892                 6.1643
 Frc consts  --     0.0156                 0.0175                 0.0264
 IR Inten    --     2.4515                 0.3997                 1.1294
 Raman Activ --     0.4964                 0.1178                 0.1687

                    16                     17                     18
                     A                      A                      A
 Frequencies --   119.6435               160.0983               185.3618
 Red. masses --     5.6723                 6.0061                 5.8560
 Frc consts  --     0.0478                 0.0907                 0.1185
 IR Inten    --     8.5553                21.7601                 2.1204
 Raman Activ --     1.0142                 4.3002                 1.3183

                    19                     20                     21
                     A                      A                      A
 Frequencies --   200.6103               225.9613               257.7289
 Red. masses --     7.2383                 5.9259                 4.9666
 Frc consts  --     0.1716                 0.1783                 0.1944
 IR Inten    --     0.4773                10.5230                 3.8482
 Raman Activ --     2.8398                 2.7043                 2.1217

                    22                     23                     24
                     A                      A                      A
 Frequencies --   276.0056               282.5652               296.5682
 Red. masses --     5.5174                 4.7714                 5.5223
 Frc consts  --     0.2476                 0.2245                 0.2862
 IR Inten    --     7.1805                 3.2456                21.1316
 Raman Activ --     0.7074                 1.5640                 5.4630

                    25                     26                     27
                     A                      A                      A
 Frequencies --   304.3497               307.4009               330.7127
 Red. masses --     5.0797                 6.0732                 7.0378
 Frc consts  --     0.2772                 0.3381                 0.4535
 IR Inten    --     2.5179                 5.2986                 2.8240
 Raman Activ --     0.2120                 3.5312                 3.6694

                    28                     29                     30
                     A                      A                      A
 Frequencies --   334.4789               349.9876               388.1112
 Red. masses --     6.4447                 5.9095                 4.7510
 Frc consts  --     0.4248                 0.4265                 0.4216
 IR Inten    --     8.4361                 2.0699                 4.4374
 Raman Activ --     3.0044                 1.6233                 2.4904

                    31                     32                     33
                     A                      A                      A
 Frequencies --   398.6817               412.6399               420.2165
 Red. masses --     7.1158                 6.6053                 5.5227
 Frc consts  --     0.6664                 0.6626                 0.5746
 IR Inten    --     0.3975                 1.3402                17.6365
 Raman Activ --     1.3936                 6.9925                 2.6261

                    34                     35                     36
                     A                      A                      A
 Frequencies --   447.1381               485.7322               490.6540
 Red. masses --     4.6862                 3.9421                 5.3234
 Frc consts  --     0.5520                 0.5480                 0.7551
 IR Inten    --    10.5329                 5.1916                10.6766
 Raman Activ --     6.0389                 2.6221                 0.5337

                    37                     38                     39
                     A                      A                      A
 Frequencies --   506.0005               542.6863               567.6962
 Red. masses --     3.2652                 2.7500                 5.3663
 Frc consts  --     0.4926                 0.4772                 1.0190
 IR Inten    --    33.1485                17.0068                28.1662
 Raman Activ --     2.7313                 3.1702                 1.9537

                    40                     41                     42
                     A                      A                      A
 Frequencies --   586.8826               599.9607               604.3804
 Red. masses --     3.6770                 1.4223                 5.5268
 Frc consts  --     0.7462                 0.3016                 1.1895
 IR Inten    --     6.2390               106.1615                 0.5328
 Raman Activ --     1.8844                 7.2358                 0.5000

                    43                     44                     45
                     A                      A                      A
 Frequencies --   621.7541               642.0708               680.0801
 Red. masses --     2.5817                 3.3607                 4.2023
 Frc consts  --     0.5880                 0.8163                 1.1451
 IR Inten    --    58.6733                10.0673                 7.4624
 Raman Activ --     2.4205                 0.5125                 2.2539

                    46                     47                     48
                     A                      A                      A
 Frequencies --   682.3420               705.5069               765.2300
 Red. masses --     1.1042                 1.0735                 1.0879
 Frc consts  --     0.3029                 0.3148                 0.3753
 IR Inten    --   116.9434               115.9408               105.5959
 Raman Activ --     2.6545                 2.0116                 1.8370

                    49                     50                     51
                     A                      A                      A
 Frequencies --   782.2488               838.9999               861.0928
 Red. masses --     1.1248                 1.3933                 1.8533
 Frc consts  --     0.4055                 0.5779                 0.8097
 IR Inten    --   136.6130               117.6795                18.5356
 Raman Activ --     5.5549                 5.3358                 2.4770

                    52                     53                     54
                     A                      A                      A
 Frequencies --   868.5809               951.4183               953.4693
 Red. masses --     3.0703                 3.6598                 1.7167
 Frc consts  --     1.3648                 1.9519                 0.9195
 IR Inten    --    64.8129               108.8123               166.1306
 Raman Activ --     3.8774                 6.7611                12.6396

                    55                     56                     57
                     A                      A                      A
 Frequencies --   973.4418               986.6507               989.5875
 Red. masses --     3.8853                 4.3321                 3.7549
 Frc consts  --     2.1692                 2.4847                 2.1665
 IR Inten    --   200.1898                 3.6220                77.1795
 Raman Activ --     1.9042                 6.9048                 3.7459

                    58                     59                     60
                     A                      A                      A
 Frequencies --   997.3447              1006.7243              1026.4084
 Red. masses --     5.8415                 4.9655                 8.1838
 Frc consts  --     3.4235                 2.9651                 5.0798
 IR Inten    --    44.3885                49.3211               455.4225
 Raman Activ --     0.7025                 3.0501                 1.0970

                    61                     62                     63
                     A                      A                      A
 Frequencies --  1039.6045              1051.3516              1063.4519
 Red. masses --     5.9068                 2.9572                 2.9821
 Frc consts  --     3.7613                 1.9259                 1.9870
 IR Inten    --    81.1724               132.6535                26.5989
 Raman Activ --     5.3218                 3.6958                12.7337

                    64                     65                     66
                     A                      A                      A
 Frequencies --  1072.7037              1080.4951              1084.2611
 Red. masses --     3.5089                 4.3090                 3.6481
 Frc consts  --     2.3790                 2.9640                 2.5269
 IR Inten    --   171.2967                40.9063                14.6040
 Raman Activ --     6.8590                 0.7116                 1.7997

                    67                     68                     69
                     A                      A                      A
 Frequencies --  1101.5190              1105.3194              1112.1891
 Red. masses --     2.8826                 2.3980                 2.3735
 Frc consts  --     2.0607                 1.7262                 1.7298
 IR Inten    --    50.6000                62.0912                56.6339
 Raman Activ --    16.2215                 7.2214                10.8202

                    70                     71                     72
                     A                      A                      A
 Frequencies --  1122.0359              1126.6474              1131.9432
 Red. masses --     2.4666                 2.2733                 2.2294
 Frc consts  --     1.8296                 1.7001                 1.6830
 IR Inten    --    11.0433                68.0477                28.1719
 Raman Activ --     7.0524                 4.8535                 3.5169

                    73                     74                     75
                     A                      A                      A
 Frequencies --  1136.7599              1140.4783              1146.0183
 Red. masses --     1.9024                 3.0182                 1.5274
 Frc consts  --     1.4484                 2.3130                 1.1819
 IR Inten    --    16.8539                57.6738                10.1287
 Raman Activ --     6.5482                 2.0384                 3.3123

                    76                     77                     78
                     A                      A                      A
 Frequencies --  1163.5848              1177.6331              1197.4827
 Red. masses --     1.7574                 2.3674                 1.3529
 Frc consts  --     1.4019                 1.9344                 1.1431
 IR Inten    --    24.6459                 4.8394                12.6101
 Raman Activ --     1.7860                 3.4263                 1.0007

                    79                     80                     81
                     A                      A                      A
 Frequencies --  1206.0069              1214.2384              1242.6504
 Red. masses --     1.4702                 1.3355                 1.2966
 Frc consts  --     1.2599                 1.1601                 1.1797
 IR Inten    --    14.4191                 2.9954                22.2937
 Raman Activ --     3.4282                 2.8226                 2.6472

                    82                     83                     84
                     A                      A                      A
 Frequencies --  1250.2979              1252.9972              1261.0128
 Red. masses --     1.3115                 1.2621                 1.3776
 Frc consts  --     1.2079                 1.1675                 1.2907
 IR Inten    --    38.4654                 7.7784                17.5012
 Raman Activ --     1.3921                 1.1779                 3.4930

                    85                     86                     87
                     A                      A                      A
 Frequencies --  1288.8965              1293.4239              1294.3319
 Red. masses --     1.3422                 1.3211                 1.2776
 Frc consts  --     1.3138                 1.3022                 1.2610
 IR Inten    --     4.0797                43.7367                 5.9671
 Raman Activ --     3.9734                 1.7445                11.0072

                    88                     89                     90
                     A                      A                      A
 Frequencies --  1297.1167              1305.3403              1324.1564
 Red. masses --     1.3466                 1.2715                 1.3590
 Frc consts  --     1.3349                 1.2765                 1.4039
 IR Inten    --    31.8738                14.2800                 4.5490
 Raman Activ --     3.3377                 3.6421                 9.4624

                    91                     92                     93
                     A                      A                      A
 Frequencies --  1326.0339              1332.7354              1339.2901
 Red. masses --     1.3243                 1.2791                 1.2821
 Frc consts  --     1.3720                 1.3386                 1.3549
 IR Inten    --     0.7639                43.3685               112.1761
 Raman Activ --     4.9855                 5.2564                14.1384

                    94                     95                     96
                     A                      A                      A
 Frequencies --  1342.6999              1360.2698              1363.1154
 Red. masses --     1.1866                 1.4779                 1.4978
 Frc consts  --     1.2604                 1.6111                 1.6397
 IR Inten    --    64.1573                12.8546                10.9679
 Raman Activ --     9.2232                 6.3982                 5.8441

                    97                     98                     99
                     A                      A                      A
 Frequencies --  1375.4496              1385.1289              1393.6180
 Red. masses --     1.2457                 1.2368                 1.5495
 Frc consts  --     1.3886                 1.3981                 1.7731
 IR Inten    --     8.2930                10.5002                 7.3503
 Raman Activ --     9.2556                 5.5340                 6.7432

                   100                    101                    102
                     A                      A                      A
 Frequencies --  1399.4913              1402.8575              1433.7985
 Red. masses --     1.4045                 1.5602                 1.6416
 Frc consts  --     1.6207                 1.8090                 1.9884
 IR Inten    --     9.1790                49.8528                26.0608
 Raman Activ --     1.6127                 3.2216                13.4294

                   103                    104                    105
                     A                      A                      A
 Frequencies --  1456.1688              1475.7928              1491.1382
 Red. masses --     1.4709                 1.2886                 1.1512
 Frc consts  --     1.8376                 1.6536                 1.5081
 IR Inten    --    39.9452                12.4014                 2.4361
 Raman Activ --     1.9782                 3.9016                 2.8438

                   106                    107                    108
                     A                      A                      A
 Frequencies --  1500.5021              1515.4416              3195.7804
 Red. masses --     1.2677                 1.3155                 1.0447
 Frc consts  --     1.6817                 1.7800                 6.2862
 IR Inten    --    73.8569                55.2755                 0.0429
 Raman Activ --     9.2942                 1.9871               270.9394

                   109                    110                    111
                     A                      A                      A
 Frequencies --  3230.5745              3260.6940              3265.5197
 Red. masses --     1.0796                 1.0809                 1.0581
 Frc consts  --     6.6385                 6.7712                 6.6481
 IR Inten    --    45.9042                47.3758                27.3215
 Raman Activ --    38.3772                89.0005                70.2144

                   112                    113                    114
                     A                      A                      A
 Frequencies --  3275.9137              3296.1183              3299.5236
 Red. masses --     1.0695                 1.0843                 1.0850
 Frc consts  --     6.7625                 6.9405                 6.9593
 IR Inten    --   685.9227                12.8982                 3.1315
 Raman Activ --   219.5656                86.4203               102.1062

                   115                    116                    117
                     A                      A                      A
 Frequencies --  3302.3876              3304.9071              3308.8913
 Red. masses --     1.0864                 1.0864                 1.0901
 Frc consts  --     6.9807                 6.9913                 7.0321
 IR Inten    --     1.8428                 1.5353                 8.6388
 Raman Activ --     9.6047                20.1388               117.2276

                   118                    119                    120
                     A                      A                      A
 Frequencies --  3310.9038              3313.6994              3318.5840
 Red. masses --     1.0896                 1.0888                 1.0895
 Frc consts  --     7.0374                 7.0441                 7.0695
 IR Inten    --    28.3692                19.1087                29.8517
 Raman Activ --    13.3229                29.7981                13.0704

                   121                    122                    123
                     A                      A                      A
 Frequencies --  3326.4631              3375.0220              3390.9968
 Red. masses --     1.0937                 1.0647                 1.0693
 Frc consts  --     7.1306                 7.1454                 7.2442
 IR Inten    --    76.1534               260.1806               225.1212
 Raman Activ --    14.0772                99.1292               155.7082

                   124                    125                    126
                     A                      A                      A
 Frequencies --  3391.5173              3396.7595              3398.6812
 Red. masses --     1.0669                 1.0669                 1.0650
 Frc consts  --     7.2302                 7.2525                 7.2480
 IR Inten    --    38.6734                40.7922                29.8071
 Raman Activ --   146.3382               168.1215               121.6627

                   127                    128                    129
                     A                      A                      A
 Frequencies --  3407.4313              3920.0975              3921.5072
 Red. masses --     1.1039                 1.0676                 1.0678
 Frc consts  --     7.5515                 9.6662                 9.6746
 IR Inten    --   302.3599                77.3276                72.0059
 Raman Activ --    34.1587               134.6160               100.1002

 - Thermochemistry -
 -------------------
 Temperature   298.150 Kelvin.  Pressure   1.00000 Atm.
 Atom     1 has atomic number  8 and mass  15.99491

 Molecular mass:   342.11621 amu.
 Principal axes and moments of inertia in atomic units:
                           1         2         3
     Eigenvalues --  4484.68612********************
           X            0.99999   0.00480  -0.00077
           Y           -0.00480   0.99999  -0.00174
           Z            0.00076   0.00175   1.00000
 This molecule is an asymmetric top.
 Rotational symmetry number  1.
 Warning -- assumption of classical behavior for rotation
           may cause significant error
 Rotational temperatures (Kelvin)      0.01931     0.00713     0.00536
 Rotational constants (GHZ):           0.40242     0.14848     0.11171
   11 imaginary frequencies ignored.
 Zero-point vibrational energy     951475.9 (Joules/Mol)
                                  227.40820 (Kcal/Mol)
 Warning -- explicit consideration of  31 degrees of freedom as
           vibrations may cause significant error
 Vibrational temperatures:     66.08    95.28   103.98   122.69   172.14
          (Kelvin)            230.35   266.69   288.63   325.11   370.81
                              397.11   406.55   426.69   437.89   442.28
                              475.82   481.24   503.55   558.40   573.61
                              593.70   604.60   643.33   698.86   705.94
                              728.02   780.80   816.79   844.39   863.21
                              869.57   894.56   923.80   978.48   981.74
                             1015.07  1100.99  1125.48  1207.13  1238.92
                             1249.69  1368.88  1371.83  1400.56  1419.57
                             1423.79  1434.95  1448.45  1476.77  1495.76
                             1512.66  1530.07  1543.38  1554.59  1560.01
                             1584.84  1590.31  1600.19  1614.36  1620.99
                             1628.61  1635.54  1640.89  1648.86  1674.14
                             1694.35  1722.91  1735.17  1747.02  1787.89
                             1798.90  1802.78  1814.31  1854.43  1860.95
                             1862.25  1866.26  1878.09  1905.16  1907.86
                             1917.51  1926.94  1931.84  1957.12  1961.22
                             1978.96  1992.89  2005.10  2013.55  2018.40
                             2062.91  2095.10  2123.33  2145.41  2158.89
                             2180.38  4598.01  4648.07  4691.41  4698.35
                             4713.30  4742.37  4747.27  4751.39  4755.02
                             4760.75  4763.65  4767.67  4774.70  4786.03
                             4855.90  4878.88  4879.63  4887.17  4889.94
                             4902.53  5640.14  5642.17

 Zero-point correction=                           0.362398 (Hartree/Particle)
 Thermal correction to Energy=                    0.380214
 Thermal correction to Enthalpy=                  0.381158
 Thermal correction to Gibbs Free Energy=         0.317245
 Sum of electronic and zero-point Energies=          -1297.277613
 Sum of electronic and thermal Energies=             -1297.259797
 Sum of electronic and thermal Enthalpies=           -1297.258853
 Sum of electronic and thermal Free Energies=        -1297.322766

                     E (Thermal)             CV                S
                      KCal/Mol        Cal/Mol-Kelvin    Cal/Mol-Kelvin
 Total                  238.588             73.852            134.516
 Electronic               0.000              0.000              0.000
 Translational            0.889              2.981             43.384
 Rotational               0.889              2.981             35.131
 Vibrational            236.810             67.890             56.001
 Vibration     1          0.595              1.979              4.986
 Vibration     2          0.598              1.970              4.262
 Vibration     3          0.598              1.967              4.091
 Vibration     4          0.601              1.959              3.766
 Vibration     5          0.609              1.933              3.106
 Vibration     6          0.622              1.891              2.549
 Vibration     7          0.631              1.860              2.274
 Vibration     8          0.638              1.839              2.127
 Vibration     9          0.650              1.801              1.911
 Vibration    10          0.667              1.750              1.677
 Vibration    11          0.678              1.718              1.558
 Vibration    12          0.682              1.706              1.518
 Vibration    13          0.690              1.680              1.436
 Vibration    14          0.695              1.665              1.393
 Vibration    15          0.697              1.660              1.376
 Vibration    16          0.713              1.614              1.257
 Vibration    17          0.716              1.607              1.238
 Vibration    18          0.727              1.575              1.166
 Vibration    19          0.756              1.496              1.007
 Vibration    20          0.765              1.473              0.968
 Vibration    21          0.776              1.443              0.917
 Vibration    22          0.783              1.426              0.891
 Vibration    23          0.806              1.367              0.804
 Vibration    24          0.842              1.282              0.695
 Vibration    25          0.846              1.271              0.682
 Vibration    26          0.861              1.237              0.643
 Vibration    27          0.898              1.156              0.560
 Vibration    28          0.924              1.101              0.509
 Vibration    29          0.944              1.060              0.473
 Vibration    30          0.958              1.032              0.450
 Vibration    31          0.963              1.023              0.442

 Normal termination of Gaussian 09 at Thu Jan 21 05:11:41 2016.
