 Gaussian 09, Revision B.01,
 Gaussian 09:  EM64L-G09RevB.01 12-Aug-2010

 --------------------------------------------------
 # freq=raman b3lyp/6-31+g(2df,p) geom=connectivity
 --------------------------------------------------

 ------------
 500 6000.com
 ------------
 Symbolic Z-matrix:
 Charge =  0 Multiplicity = 1

                         Standard orientation:
 ---------------------------------------------------------------------
 Center     Atomic      Atomic             Coordinates (Angstroms)
 Number     Number       Type             X           Y           Z
 ---------------------------------------------------------------------
      1          8           0       -5.206120    0.642067   -0.367149
      2          6           0       -3.952692    0.233059    0.200712
      3          6           0       -3.582948   -1.164094   -0.267990
      4          8           0       -4.436609   -2.091683    0.416603
      5          1           0       -5.337433   -1.692109    0.588915
      6          6           0       -2.154405   -1.609325    0.002676
      7          8           0       -1.863720   -2.740922   -0.830228
      8          1           0       -1.945857   -3.576276   -0.284828
      9          6           0       -3.000081    2.596050    0.441293
     10          8           0       -1.958684    3.575946    0.313656
     11          1           0       -2.444561    4.396924    0.616250
     12          6           0       -2.859305    1.217739   -0.182626
     13          8           0       -1.546018    0.712608    0.101236
     14          6           0       -1.094209   -0.575756   -0.341099
     15          8           0        0.132354   -0.715450    0.390268
     16          6           0        1.450295   -0.307787   -0.002877
     17          6           0        1.938995    1.120693    0.170722
     18          8           0        0.998381    1.984316   -0.484197
     19          1           0        0.070420    1.770544   -0.176649
     20          6           0        3.320343    1.360181   -0.416255
     21          8           0        3.650924    2.741903   -0.616621
     22          1           0        2.836756    2.919183   -1.169434
     23          6           0        2.029080   -2.615375    0.588243
     24          8           0        2.630769   -3.246681   -0.551220
     25          1           0        2.314400   -4.194841   -0.577019
     26          6           0        2.502734   -1.173318    0.670085
     27          8           0        3.865381   -0.872459    0.334302
     28          6           0        4.270920    0.502582    0.404177
     29          8           0        5.606018    0.384497   -0.107568
     30          1           0       -5.897879    0.562882    0.293759
     31          1           0       -3.163462    2.449157    1.488493
     32          1           0       -3.889746    3.031974    0.037106
     33          1           0       -2.920292    1.349232   -1.242763
     34          1           0       -4.046530    0.223140    1.266543
     35          1           0       -3.770782   -1.234100   -1.319046
     36          1           0       -2.057821   -1.889857    1.030719
     37          1           0       -0.904952   -0.564886   -1.394172
     38          1           0        2.314754   -3.136529    1.478012
     39          1           0        0.964016   -2.636672    0.487819
     40          1           0        2.431341   -0.927368    1.708984
     41          1           0        6.183991    0.047584    0.580935
     42          1           0        4.289633    0.832847    1.421759
     43          1           0        3.304983    0.925346   -1.393794
     44          1           0        1.959540    1.356369    1.214242
     45          1           0        1.515714   -0.513583   -1.050860
 ---------------------------------------------------------------------

 SCF Done:  E(RB3LYP) =  -1297.98815712     A.U. after   14 cycles

 The electronic state is 1-A.
 Alpha  occ. eigenvalues --  -19.19523 -19.18123 -19.17925 -19.17731 -19.17663
 Alpha  occ. eigenvalues --  -19.17138 -19.15802 -19.15006 -19.14895 -19.14558
 Alpha  occ. eigenvalues --  -19.13943 -10.31693 -10.28992 -10.27380 -10.26725
 Alpha  occ. eigenvalues --  -10.26642 -10.26309 -10.25019 -10.24495 -10.23862
 Alpha  occ. eigenvalues --  -10.23740 -10.23582 -10.22378  -1.09588  -1.07538
 Alpha  occ. eigenvalues --   -1.06898  -1.05239  -1.04063  -1.03439  -1.03079
 Alpha  occ. eigenvalues --   -1.02596  -1.01196  -1.00112  -0.99513  -0.82709
 Alpha  occ. eigenvalues --   -0.81459  -0.78937  -0.77726  -0.72256  -0.69755
 Alpha  occ. eigenvalues --   -0.68311  -0.64452  -0.63587  -0.61493  -0.60826
 Alpha  occ. eigenvalues --   -0.59574  -0.57253  -0.56328  -0.54855  -0.54439
 Alpha  occ. eigenvalues --   -0.53206  -0.52977  -0.52641  -0.52373  -0.50755
 Alpha  occ. eigenvalues --   -0.50293  -0.50053  -0.48602  -0.47329  -0.47133
 Alpha  occ. eigenvalues --   -0.46103  -0.45170  -0.44491  -0.44083  -0.43952
 Alpha  occ. eigenvalues --   -0.43145  -0.42154  -0.40267  -0.40166  -0.38622
 Alpha  occ. eigenvalues --   -0.38479  -0.37610  -0.37215  -0.36611  -0.36500
 Alpha  occ. eigenvalues --   -0.35491  -0.35133  -0.34472  -0.33287  -0.33171
 Alpha  occ. eigenvalues --   -0.31679  -0.31206  -0.30842  -0.30554  -0.29752
 Alpha  occ. eigenvalues --   -0.29509  -0.28657  -0.27943  -0.27206  -0.26881
 Alpha  occ. eigenvalues --   -0.25769
 Alpha virt. eigenvalues --   -0.04150  -0.02123  -0.01759   0.00240   0.00494
 Alpha virt. eigenvalues --    0.00995   0.01483   0.01785   0.02155   0.02890
 Alpha virt. eigenvalues --    0.03608   0.04140   0.04779   0.05141   0.05467

 Mulliken atomic charges:
              1
     1  O   -0.428734
     2  C   -0.319102
     3  C    0.168748
     4  O   -0.483491
     5  H    0.330380
     6  C   -0.039178
     7  O   -0.443127
     8  H    0.348670
     9  C   -0.452912
    10  O   -0.414222
    11  H    0.343085
    12  C    0.235906
    13  O   -0.018826
    14  C    0.009372
    15  O   -0.056377
    16  C   -0.042510
    17  C    0.112042
    18  O   -0.516990
    19  H    0.409894
    20  C   -0.259958
    21  O   -0.404273
    22  H    0.353825
    23  C   -0.417119
    24  O   -0.412840
    25  H    0.330314
    26  C   -0.218809
    27  O   -0.055261
    28  C    0.185798
    29  O   -0.423757
    30  H    0.340921
    31  H    0.136142
    32  H    0.160670
    33  H    0.121095
    34  H    0.134345
    35  H    0.148801
    36  H    0.148821
    37  H    0.144312
    38  H    0.125590
    39  H    0.168548
    40  H    0.108310
    41  H    0.335363
    42  H    0.119873
    43  H    0.138060
    44  H    0.119186
    45  H    0.129414
 Sum of Mulliken atomic charges =   0.00000

 Dipole moment (field-independent basis, Debye):
    X=             -8.6045    Y=             -1.5590    Z=              4.6453  Tot=              9.9019
 Quadrupole moment (field-independent basis, Debye-Ang):
   XX=           -129.6777   YY=           -133.1930   ZZ=           -135.9139
   XY=            -15.7640   XZ=              2.3506   YZ=             -0.9452

  Exact polarizability: 230.138   3.381 199.785  -0.872  -1.010 147.824
 Approx polarizability: 273.783   2.747 259.924  -2.397  -1.787 241.244

 ******    8 imaginary frequencies (negative Signs) ******

                     1                      2                      3
                     A                      A                      A
 Frequencies --  -303.5294              -249.9984              -199.1233
 Red. masses --     1.7209                 1.0936                 2.6147
 Frc consts  --     0.0934                 0.0403                 0.0611
 IR Inten    --     2.0165               110.4259                 3.6243
 Raman Activ --     0.1006                 1.8217                 0.2352

                     4                      5                      6
                     A                      A                      A
 Frequencies --  -171.3755               -79.5018               -65.9337
 Red. masses --     1.3606                 6.4673                 6.2426
 Frc consts  --     0.0235                 0.0241                 0.0160
 IR Inten    --    82.0408                 0.1524                 2.7062
 Raman Activ --     0.5544                 0.0579                 0.1054

                     7                      8                      9
                     A                      A                      A
 Frequencies --   -57.2360               -18.7069                 8.0955
 Red. masses --     6.0174                 5.6130                 5.5473
 Frc consts  --     0.0116                 0.0012                 0.0002
 IR Inten    --     1.9681                 4.5959                 2.3502
 Raman Activ --     0.0734                 0.0701                 0.0756

                    10                     11                     12
                     A                      A                      A
 Frequencies --    38.5906                55.5249               101.2916
 Red. masses --     6.5213                 6.7187                 5.8557
 Frc consts  --     0.0057                 0.0122                 0.0354
 IR Inten    --     1.1683                 1.0256                 0.5728
 Raman Activ --     0.0771                 0.0174                 0.1627

                    13                     14                     15
                     A                      A                      A
 Frequencies --   110.5751               129.1679               150.1757
 Red. masses --     6.0651                 6.0243                 6.7629
 Frc consts  --     0.0437                 0.0592                 0.0899
 IR Inten    --     1.2766                 5.5995                 0.7494
 Raman Activ --     0.1879                 0.1722                 1.5926

                    16                     17                     18
                     A                      A                      A
 Frequencies --   205.7914               209.8922               241.2598
 Red. masses --     6.0375                 5.8859                 4.9451
 Frc consts  --     0.1506                 0.1528                 0.1696
 IR Inten    --     0.7620                 0.3595                 7.5159
 Raman Activ --     1.3802                 1.4521                 0.6753

                    19                     20                     21
                     A                      A                      A
 Frequencies --   246.6262               264.2694               278.2026
 Red. masses --     4.7095                 4.7028                 3.9196
 Frc consts  --     0.1688                 0.1935                 0.1787
 IR Inten    --     7.0569                 0.7658                11.6476
 Raman Activ --     0.2892                 0.2494                 0.8046

                    22                     23                     24
                     A                      A                      A
 Frequencies --   298.3858               303.4750               319.3261
 Red. masses --     4.8272                 4.8271                 6.2692
 Frc consts  --     0.2532                 0.2619                 0.3766
 IR Inten    --     3.4270                 3.2241                 1.9442
 Raman Activ --     0.3322                 0.6701                 2.7285

                    25                     26                     27
                     A                      A                      A
 Frequencies --   330.6402               364.0552               377.7257
 Red. masses --     5.2188                 4.2850                 5.2067
 Frc consts  --     0.3361                 0.3346                 0.4377
 IR Inten    --     6.1629                 1.8461                 1.9853
 Raman Activ --     6.2239                 0.9515                 1.0921

                    28                     29                     30
                     A                      A                      A
 Frequencies --   397.2098               418.6418               429.7969
 Red. masses --     5.9010                 4.7498                 6.2747
 Frc consts  --     0.5485                 0.4905                 0.6829
 IR Inten    --    26.6344                 1.3150                 0.0790
 Raman Activ --     2.3215                 2.2534                 2.0592

                    31                     32                     33
                     A                      A                      A
 Frequencies --   451.0622               477.3444               502.2498
 Red. masses --     5.5914                 3.7571                 4.7103
 Frc consts  --     0.6703                 0.5044                 0.7001
 IR Inten    --     5.1721                 3.0345                 6.1142
 Raman Activ --     0.8279                 3.3728                 4.2519

                    34                     35                     36
                     A                      A                      A
 Frequencies --   530.0396               551.5413               565.5080
 Red. masses --     4.3366                 4.3946                 2.8156
 Frc consts  --     0.7178                 0.7876                 0.5305
 IR Inten    --     9.7567                26.5927                27.7250
 Raman Activ --     1.5987                 5.2206                 0.3765

                    37                     38                     39
                     A                      A                      A
 Frequencies --   570.4063               596.1244               619.8047
 Red. masses --     4.6100                 3.5311                 3.3897
 Frc consts  --     0.8837                 0.7393                 0.7672
 IR Inten    --    25.0411                12.3840                29.9508
 Raman Activ --     2.3529                 0.4581                 0.8651

                    40                     41                     42
                     A                      A                      A
 Frequencies --   646.4530               679.6748               696.5272
 Red. masses --     4.3492                 1.1014                 4.2678
 Frc consts  --     1.0709                 0.2998                 1.2199
 IR Inten    --    10.6338                85.6302                 3.2442
 Raman Activ --     0.4200                 2.0309                 2.1600

                    43                     44                     45
                     A                      A                      A
 Frequencies --   706.0810               726.4137               727.9193
 Red. masses --     1.0934                 1.1921                 1.1140
 Frc consts  --     0.3212                 0.3706                 0.3478
 IR Inten    --   132.1972               101.0955               181.4672
 Raman Activ --     2.2305                 0.5186                 0.9911

                    46                     47                     48
                     A                      A                      A
 Frequencies --   728.9937               804.0842               832.1433
 Red. masses --     1.0987                 1.1599                 2.3434
 Frc consts  --     0.3440                 0.4419                 0.9561
 IR Inten    --     6.1055                92.7802                10.8828
 Raman Activ --     2.2024                 3.4101                 4.6667

                    49                     50                     51
                     A                      A                      A
 Frequencies --   892.8308               900.9422               910.5558
 Red. masses --     4.4598                 2.7479                 2.5173
 Frc consts  --     2.0946                 1.3142                 1.2297
 IR Inten    --    62.6416                30.8461               129.5675
 Raman Activ --     2.8599                 2.0817                 2.8794

                    52                     53                     54
                     A                      A                      A
 Frequencies --   937.5445               973.5930               980.3896
 Red. masses --     6.6060                 6.1161                 5.5045
 Frc consts  --     3.4212                 3.4157                 3.1172
 IR Inten    --   292.0047               133.9824                46.5911
 Raman Activ --     2.9962                 1.2543                 1.0022

                    55                     56                     57
                     A                      A                      A
 Frequencies --  1001.0527              1008.9799              1020.0075
 Red. masses --     5.4540                 5.2760                 4.6328
 Frc consts  --     3.2202                 3.1646                 2.8399
 IR Inten    --   138.9807               153.7273               121.9390
 Raman Activ --     2.9585                 1.2804                 6.6781

                    58                     59                     60
                     A                      A                      A
 Frequencies --  1029.3850              1048.6056              1056.3281
 Red. masses --     2.7317                 2.8907                 5.8723
 Frc consts  --     1.7054                 1.8727                 3.8606
 IR Inten    --   302.5811               105.1027                50.2561
 Raman Activ --     1.7666                 4.0286                10.0855

                    61                     62                     63
                     A                      A                      A
 Frequencies --  1060.6183              1064.4621              1076.2376
 Red. masses --     5.1468                 5.5065                 5.0852
 Frc consts  --     3.4112                 3.6761                 3.4704
 IR Inten    --    43.3586                50.5400                41.7233
 Raman Activ --     4.4218                 3.3206                15.7918

                    64                     65                     66
                     A                      A                      A
 Frequencies --  1085.3393              1098.5475              1112.3442
 Red. masses --     3.4947                 2.6558                 2.7823
 Frc consts  --     2.4255                 1.8883                 2.0283
 IR Inten    --    48.7643                 5.7435               122.0760
 Raman Activ --     2.2189                 3.8485                 7.0161

                    67                     68                     69
                     A                      A                      A
 Frequencies --  1121.5104              1131.9228              1138.3549
 Red. masses --     2.8390                 2.9198                 2.0114
 Frc consts  --     2.1039                 2.2042                 1.5357
 IR Inten    --    32.8515                 5.8399                34.4507
 Raman Activ --     3.2810                 2.0135                 2.2869

                    70                     71                     72
                     A                      A                      A
 Frequencies --  1141.7230              1154.3361              1159.6503
 Red. masses --     2.3457                 2.9387                 2.1961
 Frc consts  --     1.8015                 2.3071                 1.7401
 IR Inten    --     3.8021                55.2626                14.1423
 Raman Activ --     4.1871                 1.3596                 4.2261

                    73                     74                     75
                     A                      A                      A
 Frequencies --  1166.6525              1179.0552              1183.5506
 Red. masses --     1.8658                 1.5093                 2.2779
 Frc consts  --     1.4962                 1.2362                 1.8800
 IR Inten    --    16.0026                 3.1343                21.0972
 Raman Activ --     1.4071                 2.5873                 2.5391

                    76                     77                     78
                     A                      A                      A
 Frequencies --  1206.6238              1211.4714              1216.9510
 Red. masses --     1.3079                 1.3373                 1.3170
 Frc consts  --     1.1219                 1.1564                 1.1492
 IR Inten    --     6.1627                 0.4317                21.3731
 Raman Activ --     0.9648                 0.9363                 1.6244

                    79                     80                     81
                     A                      A                      A
 Frequencies --  1234.0902              1234.7652              1249.5364
 Red. masses --     1.2577                 1.1966                 1.1959
 Frc consts  --     1.1286                 1.0749                 1.1001
 IR Inten    --     4.3808                 2.4324                10.7754
 Raman Activ --     4.1451                 2.2414                 0.7400

                    82                     83                     84
                     A                      A                      A
 Frequencies --  1259.7203              1264.4386              1287.6225
 Red. masses --     1.2366                 1.3455                 1.3066
 Frc consts  --     1.1562                 1.2675                 1.2763
 IR Inten    --     4.3043                 9.0995                 6.3685
 Raman Activ --     5.5151                 1.0743                 2.8003

                    85                     86                     87
                     A                      A                      A
 Frequencies --  1290.5794              1299.8410              1305.5983
 Red. masses --     1.2358                 1.3095                 1.2165
 Frc consts  --     1.2127                 1.3036                 1.2217
 IR Inten    --     1.8918                46.0075                28.4572
 Raman Activ --     2.9002                 5.2378                 5.5072

                    88                     89                     90
                     A                      A                      A
 Frequencies --  1310.6029              1324.0887              1329.9852
 Red. masses --     1.2771                 1.3948                 1.1905
 Frc consts  --     1.2925                 1.4408                 1.2407
 IR Inten    --    12.5202                27.4542                 8.6417
 Raman Activ --     3.1316                 2.7813                 1.9334

                    91                     92                     93
                     A                      A                      A
 Frequencies --  1338.5532              1344.0072              1347.7492
 Red. masses --     1.3235                 1.5616                 1.3008
 Frc consts  --     1.3972                 1.6619                 1.3922
 IR Inten    --    22.8551                41.8196                 8.6362
 Raman Activ --     1.0068                 3.8307                 3.9570

                    94                     95                     96
                     A                      A                      A
 Frequencies --  1359.5603              1367.3412              1370.0847
 Red. masses --     1.3099                 1.1434                 1.3054
 Frc consts  --     1.4266                 1.2595                 1.4438
 IR Inten    --     7.4458                17.8319                16.8261
 Raman Activ --     8.1888                 3.3417                 0.6836

                    97                     98                     99
                     A                      A                      A
 Frequencies --  1384.4240              1390.6992              1395.2947
 Red. masses --     1.4588                 1.2369                 1.4901
 Frc consts  --     1.6474                 1.4095                 1.7092
 IR Inten    --     3.9177                 6.3181                 8.4331
 Raman Activ --     4.5350                 5.6693                 6.7531

                   100                    101                    102
                     A                      A                      A
 Frequencies --  1415.7409              1449.5807              1451.2151
 Red. masses --     1.4211                 1.3440                 1.1790
 Frc consts  --     1.6782                 1.6639                 1.4629
 IR Inten    --    44.8040                45.5162                13.6264
 Raman Activ --     2.2288                 4.6050                 2.5142

                   103                    104                    105
                     A                      A                      A
 Frequencies --  1455.0107              1463.7596              1487.0904
 Red. masses --     1.1999                 1.3938                 1.0862
 Frc consts  --     1.4966                 1.7594                 1.4153
 IR Inten    --    15.0565                27.7333                 8.3815
 Raman Activ --     3.0909                 2.1604                 3.9890

                   106                    107                    108
                     A                      A                      A
 Frequencies --  1500.1258              1550.7409              3240.0712
 Red. masses --     1.3008                 1.2852                 1.0746
 Frc consts  --     1.7247                 1.8209                 6.6469
 IR Inten    --    21.2969                76.4282                 8.4938
 Raman Activ --     1.3584                 1.4313                21.3960

                   109                    110                    111
                     A                      A                      A
 Frequencies --  3250.8734              3259.7447              3261.3518
 Red. masses --     1.0595                 1.0666                 1.0798
 Frc consts  --     6.5974                 6.6778                 6.7666
 IR Inten    --    52.2503                42.3449                30.1024
 Raman Activ --    93.0947                87.9208                85.5986

                   112                    113                    114
                     A                      A                      A
 Frequencies --  3264.6209              3265.6105              3275.1897
 Red. masses --     1.0807                 1.0800                 1.0843
 Frc consts  --     6.7858                 6.7857                 6.8532
 IR Inten    --    10.5188                22.0113                 4.2337
 Raman Activ --    65.8532               192.2905                34.1275

                   115                    116                    117
                     A                      A                      A
 Frequencies --  3278.8629              3286.7993              3288.6526
 Red. masses --     1.0842                 1.0795                 1.0852
 Frc consts  --     6.8677                 6.8708                 6.9148
 IR Inten    --     9.3605               222.3902                37.8263
 Raman Activ --    59.8937                45.7779               116.8249

                   118                    119                    120
                     A                      A                      A
 Frequencies --  3290.7137              3294.6777              3302.1452
 Red. masses --     1.0855                 1.0764                 1.0945
 Frc consts  --     6.9254                 6.8841                 7.0314
 IR Inten    --    66.6560               297.0977                 5.6664
 Raman Activ --     4.9417               137.3340                31.3266

                   121                    122                    123
                     A                      A                      A
 Frequencies --  3305.4921              3319.6464              3346.7895
 Red. masses --     1.0926                 1.1048                 1.0664
 Frc consts  --     7.0338                 7.1734                 7.0379
 IR Inten    --    97.6426                10.2151                23.5025
 Raman Activ --    44.4260                63.2870               115.2111

                   124                    125                    126
                     A                      A                      A
 Frequencies --  3352.1750              3354.2109              3355.1595
 Red. masses --     1.0665                 1.0680                 1.0667
 Frc consts  --     7.0611                 7.0797                 7.0750
 IR Inten    --    49.5390                30.0817                40.4986
 Raman Activ --   134.7754                50.6776               196.7631

                   127                    128                    129
                     A                      A                      A
 Frequencies --  3359.1176              3868.9409              3875.8965
 Red. masses --     1.0638                 1.0677                 1.0670
 Frc consts  --     7.0726                 9.4162                 9.4441
 IR Inten    --    45.6942                60.6965                67.9605
 Raman Activ --    40.5018               100.0717               128.5862

 - Thermochemistry -
 -------------------
 Temperature   298.150 Kelvin.  Pressure   1.00000 Atm.
 Atom     1 has atomic number  8 and mass  15.99491

 Molecular mass:   342.11621 amu.
 Principal axes and moments of inertia in atomic units:
                           1         2         3
     Eigenvalues --  4517.38261********************
           X            0.99997  -0.00805   0.00033
           Y            0.00805   0.99997  -0.00088
           Z           -0.00032   0.00089   1.00000
 This molecule is an asymmetric top.
 Rotational symmetry number  1.
 Warning -- assumption of classical behavior for rotation
           may cause significant error
 Rotational temperatures (Kelvin)      0.01917     0.00698     0.00530
 Rotational constants (GHZ):           0.39951     0.14548     0.11043
    8 imaginary frequencies ignored.
 Zero-point vibrational energy     969688.4 (Joules/Mol)
                                  231.76109 (Kcal/Mol)
 Warning -- explicit consideration of  31 degrees of freedom as
           vibrations may cause significant error
 Vibrational temperatures:     11.65    55.52    79.89   145.74   159.09
          (Kelvin)            185.84   216.07   296.09   301.99   347.12
                              354.84   380.22   400.27   429.31   436.63
                              459.44   475.72   523.79   543.46   571.50
                              602.33   618.38   648.98   686.79   722.62
                              762.61   793.54   813.64   820.69   857.69
                              891.76   930.10   977.90  1002.15  1015.89
                             1045.15  1047.31  1048.86  1156.90  1197.27
                             1284.58  1296.25  1310.09  1348.92  1400.78
                             1410.56  1440.29  1451.70  1467.56  1481.05
                             1508.71  1519.82  1525.99  1531.52  1548.46
                             1561.56  1580.56  1600.41  1613.60  1628.58
                             1637.84  1642.68  1660.83  1668.48  1678.55
                             1696.40  1702.86  1736.06  1743.03  1750.92
                             1775.58  1776.55  1797.80  1812.45  1819.24
                             1852.60  1856.85  1870.18  1878.46  1885.66
                             1905.07  1913.55  1925.88  1933.72  1939.11
                             1956.10  1967.30  1971.24  1991.87  2000.90
                             2007.52  2036.93  2085.62  2087.97  2093.43
                             2106.02  2139.59  2158.34  2231.17  4661.73
                             4677.28  4690.04  4692.35  4697.06  4698.48
                             4712.26  4717.55  4728.97  4731.63  4734.60
                             4740.30  4751.04  4755.86  4776.22  4815.28
                             4823.03  4825.96  4827.32  4833.01  5566.54
                             5576.54

 Zero-point correction=                           0.369335 (Hartree/Particle)
 Thermal correction to Energy=                    0.387595
 Thermal correction to Enthalpy=                  0.388540
 Thermal correction to Gibbs Free Energy=         0.321571
 Sum of electronic and zero-point Energies=          -1297.618822
 Sum of electronic and thermal Energies=             -1297.600562
 Sum of electronic and thermal Enthalpies=           -1297.599618
 Sum of electronic and thermal Free Energies=        -1297.666586

                     E (Thermal)             CV                S
                      KCal/Mol        Cal/Mol-Kelvin    Cal/Mol-Kelvin
 Total                  243.220             74.711            140.947
 Electronic               0.000              0.000              0.000
 Translational            0.889              2.981             43.384
 Rotational               0.889              2.981             35.170
 Vibrational            241.442             68.749             62.393
 Vibration     1          0.593              1.987              8.431
 Vibration     2          0.594              1.981              5.330
 Vibration     3          0.596              1.975              4.610
 Vibration     4          0.604              1.948              3.429
 Vibration     5          0.606              1.941              3.259
 Vibration     6          0.612              1.924              2.958
 Vibration     7          0.618              1.902              2.670
 Vibration     8          0.640              1.832              2.081
 Vibration     9          0.642              1.826              2.045
 Vibration    10          0.658              1.777              1.794
 Vibration    11          0.661              1.768              1.755
 Vibration    12          0.671              1.738              1.633
 Vibration    13          0.679              1.714              1.545
 Vibration    14          0.691              1.677              1.426
 Vibration    15          0.695              1.667              1.398
 Vibration    16          0.705              1.637              1.314
 Vibration    17          0.713              1.614              1.257
 Vibration    18          0.738              1.546              1.105
 Vibration    19          0.748              1.518              1.048
 Vibration    20          0.764              1.476              0.973
 Vibration    21          0.781              1.430              0.897
 Vibration    22          0.791              1.405              0.859
 Vibration    23          0.810              1.359              0.793
 Vibration    24          0.834              1.300              0.717
 Vibration    25          0.858              1.245              0.653
 Vibration    26          0.885              1.184              0.587
 Vibration    27          0.907              1.136              0.541
 Vibration    28          0.921              1.106              0.513
 Vibration    29          0.927              1.095              0.503
 Vibration    30          0.954              1.040              0.456
 Vibration    31          0.980              0.990              0.417

 Normal termination of Gaussian 09 at Tue Feb 16 09:15:50 2016.
