 Gaussian 09, Revision B.01,
 Gaussian 09:  EM64L-G09RevB.01 12-Aug-2010

 -------------------------------------------------
 # freq=raman b3lyp/6-31+g(2d,p) geom=connectivity
 -------------------------------------------------

 -----------------
 493 9074/9074.com
 -----------------
 Symbolic Z-matrix:
 Charge =  0 Multiplicity = 1

                         Standard orientation:
 ---------------------------------------------------------------------
 Center     Atomic      Atomic             Coordinates (Angstroms)
 Number     Number       Type             X           Y           Z
 ---------------------------------------------------------------------
      1          8           0        5.021376   -0.462686   -0.329285
      2          6           0        3.765275   -0.151249    0.289824
      3          6           0        3.312517    1.185956   -0.273625
      4          8           0        4.239988    2.235168    0.038198
      5          1           0        5.074321    1.750100    0.301738
      6          6           0        1.894257    1.584809    0.098666
      7          8           0        1.426893    2.801445   -0.501519
      8          1           0        0.525312    3.103431   -0.190796
      9          6           0        2.851634   -2.605618    0.077123
     10          8           0        4.053272   -3.265697   -0.348084
     11          1           0        3.976864   -4.256041   -0.232786
     12          6           0        2.689273   -1.116240   -0.179524
     13          8           0        1.407864   -0.751748    0.353042
     14          6           0        0.858817    0.491304   -0.111202
     15          8           0       -0.301311    0.570121    0.729894
     16          6           0       -1.528945    0.299616    0.038666
     17          6           0       -1.990563   -1.087429    0.456247
     18          8           0       -0.967902   -2.036586    0.121207
     19          1           0       -0.098663   -1.834237    0.572090
     20          6           0       -3.285769   -1.594115   -0.156553
     21          8           0       -3.822785   -2.852487    0.277286
     22          1           0       -4.650849   -3.123601   -0.213410
     23          6           0       -2.382253    2.659589   -0.151155
     24          8           0       -1.211108    3.331874    0.333323
     25          1           0       -1.405873    4.313205    0.328971
     26          6           0       -2.686309    1.245782    0.315785
     27          8           0       -3.925669    0.860970   -0.296036
     28          6           0       -4.285415   -0.475285    0.085731
     29          8           0       -5.376084   -0.613863   -0.835762
     30          1           0       -6.173046   -0.849497   -0.355213
     31          1           0       -4.642517   -0.496521    1.094159
     32          1           0       -3.131048   -1.664711   -1.212952
     33          1           0       -2.107824   -1.087953    1.519802
     34          1           0       -1.335129    0.295138   -1.013625
     35          1           0       -2.838180    1.274500    1.374563
     36          1           0       -3.225415    3.266620    0.104757
     37          1           0       -2.314569    2.633632   -1.218696
     38          1           0        5.642125   -0.761843    0.339128
     39          1           0        2.030433   -3.102176   -0.396119
     40          1           0        2.759469   -2.759379    1.131998
     41          1           0        2.625422   -0.998890   -1.241151
     42          1           0        3.840379   -0.126697    1.356902
     43          1           0        3.323864    1.080615   -1.338367
     44          1           0        1.914646    1.769019    1.152493
     45          1           0        0.578889    0.420479   -1.141505
 ---------------------------------------------------------------------

 SCF Done:  E(RB3LYP) =  -1297.97506424     A.U. after   14 cycles

 The electronic state is 1-A.
 Alpha  occ. eigenvalues --  -19.18783 -19.18321 -19.18230 -19.17688 -19.17209
 Alpha  occ. eigenvalues --  -19.16938 -19.16731 -19.16108 -19.14874 -19.13334
 Alpha  occ. eigenvalues --  -19.13292 -10.30288 -10.30132 -10.25710 -10.25599
 Alpha  occ. eigenvalues --  -10.25491 -10.25342 -10.25101 -10.25031 -10.24301
 Alpha  occ. eigenvalues --  -10.24123 -10.24098 -10.24092  -1.09998  -1.09306
 Alpha  occ. eigenvalues --   -1.05574  -1.05278  -1.03713  -1.03323  -1.02430
 Alpha  occ. eigenvalues --   -1.01994  -1.01771  -1.00262  -0.99796  -0.82124
 Alpha  occ. eigenvalues --   -0.80258  -0.79422  -0.78225  -0.71845  -0.70178
 Alpha  occ. eigenvalues --   -0.67126  -0.65053  -0.63297  -0.62385  -0.61410
 Alpha  occ. eigenvalues --   -0.60218  -0.56439  -0.55595  -0.54911  -0.54794
 Alpha  occ. eigenvalues --   -0.53975  -0.53246  -0.52940  -0.52048  -0.51008
 Alpha  occ. eigenvalues --   -0.50597  -0.49671  -0.49227  -0.48869  -0.46476
 Alpha  occ. eigenvalues --   -0.46004  -0.45280  -0.44126  -0.43663  -0.42715
 Alpha  occ. eigenvalues --   -0.42388  -0.41715  -0.41337  -0.40084  -0.39303
 Alpha  occ. eigenvalues --   -0.37965  -0.37717  -0.37439  -0.36781  -0.35804
 Alpha  occ. eigenvalues --   -0.35712  -0.34550  -0.34453  -0.33427  -0.32977
 Alpha  occ. eigenvalues --   -0.32184  -0.31041  -0.30751  -0.30436  -0.30036
 Alpha  occ. eigenvalues --   -0.29224  -0.28537  -0.28317  -0.26958  -0.26439
 Alpha  occ. eigenvalues --   -0.26255
 Alpha virt. eigenvalues --   -0.02075  -0.01953  -0.01689  -0.00317   0.00166
 Alpha virt. eigenvalues --    0.01042   0.01955   0.02546   0.02948   0.03313
 Alpha virt. eigenvalues --    0.03906   0.04082   0.04847   0.05311   0.05674

 Mulliken atomic charges:
              1
     1  O   -0.514954
     2  C   -0.104724
     3  C    0.119436
     4  O   -0.545480
     5  H    0.332502
     6  C    0.016632
     7  O   -0.589806
     8  H    0.402923
     9  C   -0.169068
    10  O   -0.539020
    11  H    0.341849
    12  C    0.177942
    13  O   -0.255986
    14  C    0.130095
    15  O   -0.169807
    16  C    0.301527
    17  C    0.182717
    18  O   -0.551592
    19  H    0.368261
    20  C   -0.042239
    21  O   -0.556380
    22  H    0.341595
    23  C   -0.309620
    24  O   -0.565652
    25  H    0.364276
    26  C   -0.088538
    27  O   -0.210057
    28  C    0.190098
    29  O   -0.530293
    30  H    0.326741
    31  H    0.130399
    32  H    0.133743
    33  H    0.119634
    34  H    0.105277
    35  H    0.118314
    36  H    0.140975
    37  H    0.157291
    38  H    0.338705
    39  H    0.155542
    40  H    0.137886
    41  H    0.110602
    42  H    0.128317
    43  H    0.122029
    44  H    0.124485
    45  H    0.123423
 Sum of Mulliken atomic charges =   0.00000

 Dipole moment (field-independent basis, Debye):
    X=             -2.7706    Y=             -0.9535    Z=              2.7622  Tot=              4.0268
 Quadrupole moment (field-independent basis, Debye-Ang):
   XX=           -119.6303   YY=           -132.8832   ZZ=           -139.9751
   XY=            -16.9118   XZ=              6.0457   YZ=              2.4737

  Exact polarizability: 233.924   1.563 199.475   1.876  -0.352 143.771
 Approx polarizability: 275.218   0.229 258.837   2.726  -0.837 240.269

 ******    6 imaginary frequencies (negative Signs) ******

                     1                      2                      3
                     A                      A                      A
 Frequencies --  -284.3502              -268.1773              -266.5816
 Red. masses --     1.7650                 1.7397                 1.1793
 Frc consts  --     0.0841                 0.0737                 0.0494
 IR Inten    --     9.2469                 1.3346               107.1797
 Raman Activ --     0.1121                 0.0172                 1.0022

                     4                      5                      6
                     A                      A                      A
 Frequencies --  -204.6893               -84.2729               -69.5689
 Red. masses --     1.1749                 6.0735                 6.6505
 Frc consts  --     0.0290                 0.0254                 0.0190
 IR Inten    --   100.3477                 1.4040                 0.3912
 Raman Activ --     0.8404                 0.0826                 0.0261

                     7                      8                      9
                     A                      A                      A
 Frequencies --    12.2987                27.4051                61.2749
 Red. masses --     6.8336                 6.6411                 6.0351
 Frc consts  --     0.0006                 0.0029                 0.0134
 IR Inten    --     0.8945                 0.0531                 2.1137
 Raman Activ --     0.0325                 0.0198                 0.0942

                    10                     11                     12
                     A                      A                      A
 Frequencies --    73.6019                85.7767                93.6143
 Red. masses --     5.9365                 6.8781                 6.5465
 Frc consts  --     0.0189                 0.0298                 0.0338
 IR Inten    --     1.0388                 0.9772                 0.5016
 Raman Activ --     0.0539                 0.0684                 0.3009

                    13                     14                     15
                     A                      A                      A
 Frequencies --   152.4972               176.4035               181.3739
 Red. masses --     6.2998                 5.7998                 8.0045
 Frc consts  --     0.0863                 0.1063                 0.1551
 IR Inten    --     2.6195                 4.4440                 0.7529
 Raman Activ --     0.5403                 0.2058                 0.9182

                    16                     17                     18
                     A                      A                      A
 Frequencies --   195.4813               223.1226               265.4544
 Red. masses --     6.4907                 6.3589                 4.5333
 Frc consts  --     0.1461                 0.1865                 0.1882
 IR Inten    --     1.1102                 1.1488                11.0462
 Raman Activ --     1.5113                 1.0039                 0.1275

                    19                     20                     21
                     A                      A                      A
 Frequencies --   276.7769               288.7676               294.1378
 Red. masses --     4.7352                 4.9807                 5.7901
 Frc consts  --     0.2137                 0.2447                 0.2951
 IR Inten    --     9.2349                 2.0701                 4.7812
 Raman Activ --     0.5092                 0.0298                 0.5419

                    22                     23                     24
                     A                      A                      A
 Frequencies --   314.5110               322.2074               325.3219
 Red. masses --     4.9672                 6.0151                 5.1782
 Frc consts  --     0.2895                 0.3679                 0.3229
 IR Inten    --     3.9716                 0.9687                 1.9074
 Raman Activ --     0.2814                 2.1008                 1.6156

                    25                     26                     27
                     A                      A                      A
 Frequencies --   329.9015               356.6143               379.4892
 Red. masses --     7.2350                 4.5809                 8.7318
 Frc consts  --     0.4639                 0.3432                 0.7409
 IR Inten    --     9.6465                 6.9225                 2.7960
 Raman Activ --     7.8173                 0.1539                 2.0396

                    28                     29                     30
                     A                      A                      A
 Frequencies --   406.3998               412.2197               432.7526
 Red. masses --     3.9228                 6.1442                 4.8649
 Frc consts  --     0.3817                 0.6151                 0.5368
 IR Inten    --    18.9581                 5.2036                 0.8519
 Raman Activ --     1.0020                 4.0891                 3.4202

                    31                     32                     33
                     A                      A                      A
 Frequencies --   442.2807               478.4515               491.1414
 Red. masses --     4.8982                 4.5958                 4.1698
 Frc consts  --     0.5645                 0.6199                 0.5926
 IR Inten    --     2.1554                 4.6248                14.8336
 Raman Activ --     2.0238                 0.2386                 3.3778

                    34                     35                     36
                     A                      A                      A
 Frequencies --   501.4398               528.8596               565.4560
 Red. masses --     4.2990                 3.1542                 4.0891
 Frc consts  --     0.6369                 0.5198                 0.7703
 IR Inten    --     7.5148                 6.8581                16.0973
 Raman Activ --     4.6686                 3.9668                 1.4000

                    37                     38                     39
                     A                      A                      A
 Frequencies --   584.3543               593.6846               630.7894
 Red. masses --     2.7332                 5.8036                 4.3498
 Frc consts  --     0.5499                 1.2052                 1.0197
 IR Inten    --    46.1288                 8.3782                 1.2704
 Raman Activ --     0.8437                 0.4879                 0.1781

                    40                     41                     42
                     A                      A                      A
 Frequencies --   645.1824               680.5271               680.8729
 Red. masses --     5.6425                 1.1636                 1.0511
 Frc consts  --     1.3838                 0.3175                 0.2871
 IR Inten    --    38.5895                75.8652                53.9302
 Raman Activ --     1.3844                 0.9488                 2.0422

                    43                     44                     45
                     A                      A                      A
 Frequencies --   685.6187               695.9704               722.1676
 Red. masses --     1.0633                 4.5772                 1.0838
 Frc consts  --     0.2945                 1.3063                 0.3330
 IR Inten    --   133.5166                21.4934               100.9497
 Raman Activ --     2.2074                 1.0872                 1.6159

                    46                     47                     48
                     A                      A                      A
 Frequencies --   748.3793               785.5344               857.1482
 Red. masses --     1.0901                 1.0584                 1.7923
 Frc consts  --     0.3597                 0.3848                 0.7758
 IR Inten    --   209.1292                69.0890                 2.4759
 Raman Activ --     4.3021                 0.9124                 1.3616

                    49                     50                     51
                     A                      A                      A
 Frequencies --   863.2967               917.9661               954.6102
 Red. masses --     1.6848                 6.3116                 5.5207
 Frc consts  --     0.7398                 3.1336                 2.9641
 IR Inten    --     1.1178               142.7493                55.7821
 Raman Activ --     0.5400                 2.9980                 0.6373

                    52                     53                     54
                     A                      A                      A
 Frequencies --   973.3190               981.8529               984.8163
 Red. masses --     6.4558                 6.2033                 4.6266
 Frc consts  --     3.6034                 3.5234                 2.6438
 IR Inten    --    28.4991               141.7849               157.5210
 Raman Activ --     2.0562                 1.3858                 0.9865

                    55                     56                     57
                     A                      A                      A
 Frequencies --   989.7691              1005.8340              1023.1713
 Red. masses --     5.9462                 5.9195                 6.2605
 Frc consts  --     3.4321                 3.5285                 3.8615
 IR Inten    --   343.0823                17.3462                77.3810
 Raman Activ --     4.4185                 1.1629                 3.2168

                    58                     59                     60
                     A                      A                      A
 Frequencies --  1038.6810              1054.7185              1058.6404
 Red. masses --     5.2540                 6.1817                 4.9382
 Frc consts  --     3.3396                 4.0516                 3.2608
 IR Inten    --   211.7682                59.0817               161.7467
 Raman Activ --     2.2764                 4.6791                 4.9402

                    61                     62                     63
                     A                      A                      A
 Frequencies --  1059.9992              1071.0879              1081.4500
 Red. masses --     3.2546                 4.8945                 3.5535
 Frc consts  --     2.1546                 3.3083                 2.4486
 IR Inten    --    33.9614                70.9497                33.0293
 Raman Activ --     9.2659                 4.1803                17.0542

                    64                     65                     66
                     A                      A                      A
 Frequencies --  1096.5669              1108.2683              1112.6052
 Red. masses --     3.8404                 2.5016                 2.5869
 Frc consts  --     2.7208                 1.8103                 1.8868
 IR Inten    --    43.3761               111.3503                 3.2368
 Raman Activ --    14.7649                 1.6260                 6.1985

                    67                     68                     69
                     A                      A                      A
 Frequencies --  1115.8931              1117.7412              1140.2548
 Red. masses --     2.6274                 2.9102                 3.1847
 Frc consts  --     1.9276                 2.1422                 2.4396
 IR Inten    --    19.1715                 0.7864                18.0255
 Raman Activ --     2.2688                 5.4013                 4.7688

                    70                     71                     72
                     A                      A                      A
 Frequencies --  1146.1536              1150.6314              1156.8927
 Red. masses --     2.2096                 1.6576                 1.8300
 Frc consts  --     1.7102                 1.2930                 1.4431
 IR Inten    --    79.0816                 9.6422                 2.8968
 Raman Activ --     3.5184                 3.4430                 1.8704

                    73                     74                     75
                     A                      A                      A
 Frequencies --  1164.6447              1185.2676              1195.8731
 Red. masses --     2.0923                 2.0809                 1.4007
 Frc consts  --     1.6721                 1.7224                 1.1802
 IR Inten    --     3.8427                 7.8014                23.8087
 Raman Activ --     6.1833                 1.5108                 4.8932

                    76                     77                     78
                     A                      A                      A
 Frequencies --  1197.8148              1205.4098              1227.0620
 Red. masses --     1.5551                 1.3822                 1.2617
 Frc consts  --     1.3146                 1.1833                 1.1193
 IR Inten    --    22.2451                 2.0001                 9.2250
 Raman Activ --     0.3069                 0.4712                 1.4267

                    79                     80                     81
                     A                      A                      A
 Frequencies --  1232.3448              1249.3796              1260.8044
 Red. masses --     1.3392                 1.2364                 1.2223
 Frc consts  --     1.1983                 1.1371                 1.1448
 IR Inten    --     7.0032                 1.1979                27.0862
 Raman Activ --     0.4465                 1.2971                 0.5282

                    82                     83                     84
                     A                      A                      A
 Frequencies --  1280.6092              1282.7128              1283.4643
 Red. masses --     1.2383                 1.3225                 1.3068
 Frc consts  --     1.1965                 1.2821                 1.2683
 IR Inten    --    13.4130                15.0002                 0.0299
 Raman Activ --     2.6047                 2.9268                 2.7481

                    85                     86                     87
                     A                      A                      A
 Frequencies --  1291.5708              1303.5910              1306.5004
 Red. masses --     1.3214                 1.1799                 1.1887
 Frc consts  --     1.2988                 1.1813                 1.1955
 IR Inten    --    46.5458                15.1370                18.6701
 Raman Activ --     1.2765                 3.2814                 5.1202

                    88                     89                     90
                     A                      A                      A
 Frequencies --  1310.6876              1318.8616              1331.0778
 Red. masses --     1.2613                 1.2901                 1.3190
 Frc consts  --     1.2766                 1.3221                 1.3769
 IR Inten    --     7.7670                 5.0063                26.7117
 Raman Activ --     8.8476                 6.4282                 1.6148

                    91                     92                     93
                     A                      A                      A
 Frequencies --  1332.8643              1337.1693              1352.6674
 Red. masses --     1.2398                 1.2764                 1.1870
 Frc consts  --     1.2977                 1.3446                 1.2796
 IR Inten    --    51.0524                 7.6341                10.9583
 Raman Activ --     5.0110                 6.8911                 3.3242

                    94                     95                     96
                     A                      A                      A
 Frequencies --  1358.7495              1369.3487              1375.3175
 Red. masses --     1.2254                 1.4048                 1.4730
 Frc consts  --     1.3329                 1.5520                 1.6416
 IR Inten    --    44.1129                27.7597                 1.6353
 Raman Activ --     2.8171                 5.0099                 5.4688

                    97                     98                     99
                     A                      A                      A
 Frequencies --  1376.8521              1399.0696              1402.9353
 Red. masses --     1.5086                 1.4811                 1.4097
 Frc consts  --     1.6850                 1.7081                 1.6347
 IR Inten    --     1.4423                17.0835                11.5038
 Raman Activ --     5.9694                 4.4685                 2.0719

                   100                    101                    102
                     A                      A                      A
 Frequencies --  1412.0069              1431.1352              1454.1450
 Red. masses --     1.3189                 1.4133                 1.4243
 Frc consts  --     1.5494                 1.7055                 1.7745
 IR Inten    --     0.8377                22.6281                26.9562
 Raman Activ --     8.6255                 2.5312                 2.6972

                   103                    104                    105
                     A                      A                      A
 Frequencies --  1463.2905              1472.8675              1478.0332
 Red. masses --     1.3399                 1.0744                 1.0941
 Frc consts  --     1.6904                 1.3733                 1.4082
 IR Inten    --    23.1058                 4.1230                 1.6212
 Raman Activ --     2.4140                 5.0242                 3.7652

                   106                    107                    108
                     A                      A                      A
 Frequencies --  1484.0327              1489.1287              3254.5397
 Red. masses --     1.3144                 1.3270                 1.0605
 Frc consts  --     1.7056                 1.7337                 6.6182
 IR Inten    --    31.6391                73.3645                27.4653
 Raman Activ --     0.2844                 1.4362                76.5578

                   109                    110                    111
                     A                      A                      A
 Frequencies --  3257.5161              3260.3486              3265.4166
 Red. masses --     1.0607                 1.0774                 1.0819
 Frc consts  --     6.6317                 6.7476                 6.7967
 IR Inten    --   126.0808                20.4132                16.8198
 Raman Activ --    21.8937                93.7848                12.8493

                   112                    113                    114
                     A                      A                      A
 Frequencies --  3269.3362              3271.0111              3277.1195
 Red. masses --     1.0803                 1.0812                 1.0819
 Frc consts  --     6.8032                 6.8157                 6.8460
 IR Inten    --    64.3132                 1.1146                47.3914
 Raman Activ --   102.2364               234.7779                25.4431

                   115                    116                    117
                     A                      A                      A
 Frequencies --  3281.7017              3283.4105              3286.1666
 Red. masses --     1.0825                 1.0748                 1.0851
 Frc consts  --     6.8688                 6.8273                 6.9043
 IR Inten    --    58.8819               323.7920                56.7809
 Raman Activ --   102.0695               203.6750                11.8922

                   118                    119                    120
                     A                      A                      A
 Frequencies --  3294.3710              3299.6756              3300.9693
 Red. masses --     1.0854                 1.0880                 1.0880
 Frc consts  --     6.9401                 6.9792                 6.9848
 IR Inten    --     0.5276                 8.5942               111.8589
 Raman Activ --    73.0611                13.8972                 8.1101

                   121                    122                    123
                     A                      A                      A
 Frequencies --  3309.8392              3314.2966              3324.2271
 Red. masses --     1.1038                 1.1046                 1.0678
 Frc consts  --     7.1242                 7.1491                 6.9522
 IR Inten    --    50.9108                76.3136               476.7705
 Raman Activ --    26.5202                37.4241               141.7321

                   124                    125                    126
                     A                      A                      A
 Frequencies --  3357.7391              3366.8658              3368.3523
 Red. masses --     1.0653                 1.0678                 1.0674
 Frc consts  --     7.0766                 7.1315                 7.1355
 IR Inten    --    30.3913                57.1483                50.5668
 Raman Activ --    83.0274               137.9884               174.5074

                   127                    128                    129
                     A                      A                      A
 Frequencies --  3372.8552              3887.9904              3890.7611
 Red. masses --     1.0669                 1.0673                 1.0675
 Frc consts  --     7.1512                 9.5060                 9.5212
 IR Inten    --    54.4429                56.5561                71.5275
 Raman Activ --   162.4041               125.4805               101.3695

 - Thermochemistry -
 -------------------
 Temperature   298.150 Kelvin.  Pressure   1.00000 Atm.
 Atom     1 has atomic number  8 and mass  15.99491

 Molecular mass:   342.11621 amu.
 Principal axes and moments of inertia in atomic units:
                           1         2         3
     Eigenvalues --  4484.34972********************
           X            0.99997  -0.00797   0.00057
           Y            0.00797   0.99997  -0.00027
           Z           -0.00057   0.00028   1.00000
 This molecule is an asymmetric top.
 Rotational symmetry number  1.
 Warning -- assumption of classical behavior for rotation
           may cause significant error
 Rotational temperatures (Kelvin)      0.01931     0.00708     0.00532
 Rotational constants (GHZ):           0.40245     0.14748     0.11081
    6 imaginary frequencies ignored.
 Zero-point vibrational energy     972691.3 (Joules/Mol)
                                  232.47879 (Kcal/Mol)
 Warning -- explicit consideration of  32 degrees of freedom as
           vibrations may cause significant error
 Vibrational temperatures:     17.70    39.43    88.16   105.90   123.41
          (Kelvin)            134.69   219.41   253.80   260.96   281.25
                              321.02   381.93   398.22   415.47   423.20
                              452.51   463.58   468.07   474.65   513.09
                              546.00   584.72   593.09   622.63   636.34
                              688.38   706.64   721.46   760.91   813.56
                              840.75   854.18   907.56   928.27   979.13
                              979.62   986.45  1001.34  1039.04  1076.75
                             1130.21  1233.24  1242.09  1320.75  1373.47
                             1400.39  1412.67  1416.93  1424.06  1447.17
                             1472.11  1494.43  1517.50  1523.15  1525.10
                             1541.05  1555.96  1577.71  1594.55  1600.79
                             1605.52  1608.18  1640.57  1649.06  1655.50
                             1664.51  1675.66  1705.33  1720.59  1723.39
                             1734.31  1765.47  1773.07  1797.58  1814.01
                             1842.51  1845.54  1846.62  1858.28  1875.57
                             1879.76  1885.78  1897.55  1915.12  1917.69
                             1923.89  1946.18  1954.94  1970.18  1978.77
                             1980.98  2012.95  2018.51  2031.56  2059.08
                             2092.19  2105.35  2119.13  2126.56  2135.19
                             2142.52  4682.55  4686.83  4690.91  4698.20
                             4703.84  4706.25  4715.04  4721.63  4724.09
                             4728.05  4739.86  4747.49  4749.35  4762.11
                             4768.53  4782.82  4831.03  4844.16  4846.30
                             4852.78  5593.94  5597.93

 Zero-point correction=                           0.370479 (Hartree/Particle)
 Thermal correction to Energy=                    0.389958
 Thermal correction to Enthalpy=                  0.390902
 Thermal correction to Gibbs Free Energy=         0.321400
 Sum of electronic and zero-point Energies=          -1297.604586
 Sum of electronic and thermal Energies=             -1297.585107
 Sum of electronic and thermal Enthalpies=           -1297.584163
 Sum of electronic and thermal Free Energies=        -1297.653664

                     E (Thermal)             CV                S
                      KCal/Mol        Cal/Mol-Kelvin    Cal/Mol-Kelvin
 Total                  244.702             78.333            146.279
 Electronic               0.000              0.000              0.000
 Translational            0.889              2.981             43.384
 Rotational               0.889              2.981             35.146
 Vibrational            242.925             72.371             67.749
 Vibration     1          0.593              1.987              7.600
 Vibration     2          0.593              1.984              6.009
 Vibration     3          0.597              1.973              4.416
 Vibration     4          0.599              1.966              4.055
 Vibration     5          0.601              1.959              3.754
 Vibration     6          0.603              1.954              3.583
 Vibration     7          0.619              1.900              2.641
 Vibration     8          0.628              1.871              2.366
 Vibration     9          0.630              1.865              2.314
 Vibration    10          0.636              1.846              2.175
 Vibration    11          0.649              1.806              1.934
 Vibration    12          0.671              1.736              1.626
 Vibration    13          0.678              1.716              1.554
 Vibration    14          0.685              1.695              1.481
 Vibration    15          0.689              1.685              1.450
 Vibration    16          0.702              1.646              1.338
 Vibration    17          0.707              1.631              1.299
 Vibration    18          0.709              1.625              1.283
 Vibration    19          0.713              1.616              1.261
 Vibration    20          0.732              1.562              1.137
 Vibration    21          0.749              1.514              1.041
 Vibration    22          0.771              1.456              0.939
 Vibration    23          0.776              1.444              0.919
 Vibration    24          0.794              1.399              0.850
 Vibration    25          0.802              1.378              0.819
 Vibration    26          0.835              1.298              0.714
 Vibration    27          0.847              1.270              0.681
 Vibration    28          0.857              1.247              0.655
 Vibration    29          0.884              1.186              0.590
 Vibration    30          0.921              1.106              0.513
 Vibration    31          0.941              1.065              0.477
 Vibration    32          0.951              1.045              0.461

 Normal termination of Gaussian 09 at Fri Apr  1 10:32:14 2016.
