 Gaussian 09, Revision B.01,
 Gaussian 09:  EM64L-G09RevB.01 12-Aug-2010

 ------------------------------------------------
 # freq=raman b3lyp/6-31+g(d,p) geom=connectivity
 ------------------------------------------------

 ------------
 280 8000.com
 ------------
 Symbolic Z-matrix:
 Charge =  0 Multiplicity = 1

                         Standard orientation:
 ---------------------------------------------------------------------
 Center     Atomic      Atomic             Coordinates (Angstroms)
 Number     Number       Type             X           Y           Z
 ---------------------------------------------------------------------
      1          8           0       -5.027959   -0.418793    0.399047
      2          6           0       -3.737967   -0.187795   -0.186254
      3          6           0       -3.311604    1.241350    0.108330
      4          8           0       -4.319817    2.214261   -0.200654
      5          1           0       -5.185067    1.746981   -0.018798
      6          6           0       -1.883758    1.496962   -0.344761
      7          8           0       -1.469820    2.834540   -0.032564
      8          1           0       -0.473405    2.793641   -0.102768
      9          6           0       -2.949841   -2.644564    0.080749
     10          8           0       -4.207844   -3.274152    0.363978
     11          1           0       -4.090026   -4.261535    0.469153
     12          6           0       -2.670636   -1.164207    0.281254
     13          8           0       -1.376653   -0.809300   -0.229415
     14          6           0       -0.889979    0.475290    0.183949
     15          8           0        0.358536    0.690400   -0.490106
     16          6           0        1.596352    0.227227    0.067837
     17          6           0        1.986998   -1.111294   -0.537126
     18          8           0        1.063249   -2.177356   -0.270689
     19          1           0        0.150038   -1.786530   -0.380621
     20          6           0        3.375624   -1.499024   -0.054885
     21          8           0        3.970717   -2.701988   -0.562777
     22          1           0        4.770414   -2.917482   -0.002852
     23          6           0        2.152173    2.616327    0.499112
     24          8           0        1.233120    3.348464   -0.325443
     25          1           0        1.291890    4.324844   -0.121826
     26          6           0        2.658235    1.304809   -0.078283
     27          8           0        3.876112    0.846090    0.525656
     28          6           0        4.383559   -0.360013   -0.062997
     29          8           0        5.536697   -0.665847    0.734727
     30          1           0       -5.660342   -0.627570   -0.292404
     31          1           0        6.258405   -0.937595    0.162983
     32          1           0        2.997416    3.242984    0.693445
     33          1           0        1.669370    2.406035    1.430550
     34          1           0        2.841133    1.451617   -1.122264
     35          1           0        1.439444    0.071767    1.114791
     36          1           0        2.035553   -0.984062   -1.598424
     37          1           0        3.229461   -1.707769    0.984328
     38          1           0        4.689381   -0.163177   -1.069292
     39          1           0       -2.217792   -3.167153    0.660322
     40          1           0       -2.737841   -2.851305   -0.947460
     41          1           0       -2.608731   -1.029094    1.340882
     42          1           0       -3.835139   -0.290942   -1.246829
     43          1           0       -3.247932    1.277578    1.175820
     44          1           0       -1.877706    1.411073   -1.411291
     45          1           0       -0.784167    0.536741    1.246929
 ---------------------------------------------------------------------

 SCF Done:  E(RB3LYP) =  -1297.93564164     A.U. after   13 cycles

 The electronic state is 1-A.
 Alpha  occ. eigenvalues --  -19.20557 -19.19980 -19.19699 -19.19204 -19.19177
 Alpha  occ. eigenvalues --  -19.18305 -19.17582 -19.17374 -19.16045 -19.15349
 Alpha  occ. eigenvalues --  -19.14365 -10.32470 -10.31454 -10.27099 -10.27051
 Alpha  occ. eigenvalues --  -10.26678 -10.26246 -10.25934 -10.25388 -10.25250
 Alpha  occ. eigenvalues --  -10.25224 -10.24714 -10.24498  -1.10913  -1.09448
 Alpha  occ. eigenvalues --   -1.06122  -1.05539  -1.04855  -1.03910  -1.03144
 Alpha  occ. eigenvalues --   -1.02998  -1.02033  -1.01280  -1.00406  -0.83154
 Alpha  occ. eigenvalues --   -0.80997  -0.79772  -0.79020  -0.72722  -0.70707
 Alpha  occ. eigenvalues --   -0.67968  -0.65272  -0.63947  -0.63213  -0.61654
 Alpha  occ. eigenvalues --   -0.60585  -0.57039  -0.56331  -0.55627  -0.55291
 Alpha  occ. eigenvalues --   -0.54416  -0.53762  -0.53448  -0.52294  -0.51894
 Alpha  occ. eigenvalues --   -0.51065  -0.50752  -0.49843  -0.48890  -0.46941
 Alpha  occ. eigenvalues --   -0.46519  -0.45946  -0.45253  -0.44300  -0.44042
 Alpha  occ. eigenvalues --   -0.42806  -0.42053  -0.41326  -0.40666  -0.39709
 Alpha  occ. eigenvalues --   -0.39288  -0.38180  -0.37771  -0.36596  -0.36173
 Alpha  occ. eigenvalues --   -0.35724  -0.34957  -0.34571  -0.34511  -0.34208
 Alpha  occ. eigenvalues --   -0.33291  -0.31870  -0.31472  -0.30835  -0.30424
 Alpha  occ. eigenvalues --   -0.29769  -0.28954  -0.28354  -0.27394  -0.27228
 Alpha  occ. eigenvalues --   -0.26651
 Alpha virt. eigenvalues --   -0.02262  -0.01989  -0.01832  -0.00638   0.00062
 Alpha virt. eigenvalues --    0.00659   0.01714   0.02173   0.02696   0.03238
 Alpha virt. eigenvalues --    0.03750   0.04234   0.04449   0.05225   0.05456

 Mulliken atomic charges:
              1
     1  O   -0.545113
     2  C   -0.192309
     3  C    0.036672
     4  O   -0.495358
     5  H    0.358448
     6  C    0.182473
     7  O   -0.527374
     8  H    0.434983
     9  C   -0.112061
    10  O   -0.554867
    11  H    0.370020
    12  C    0.197863
    13  O   -0.428407
    14  C   -0.038979
    15  O   -0.335368
    16  C    0.053751
    17  C    0.124823
    18  O   -0.525140
    19  H    0.425608
    20  C    0.037685
    21  O   -0.512506
    22  H    0.351838
    23  C    0.088553
    24  O   -0.602757
    25  H    0.389255
    26  C   -0.189714
    27  O   -0.319811
    28  C    0.221422
    29  O   -0.558833
    30  H    0.377878
    31  H    0.365997
    32  H    0.145620
    33  H    0.140279
    34  H    0.146719
    35  H    0.133549
    36  H    0.138385
    37  H    0.147049
    38  H    0.125956
    39  H    0.139637
    40  H    0.141113
    41  H    0.129781
    42  H    0.136027
    43  H    0.122499
    44  H    0.142042
    45  H    0.132670
 Sum of Mulliken atomic charges =   0.00000

 Dipole moment (field-independent basis, Debye):
    X=              2.3453    Y=             -1.0948    Z=             -0.2261  Tot=              2.5981
 Quadrupole moment (field-independent basis, Debye-Ang):
   XX=           -123.1523   YY=           -137.4219   ZZ=           -141.2261
   XY=             18.8994   XZ=              0.3379   YZ=              0.0357

  Exact polarizability: 229.503  -1.904 193.904   0.885   0.584 141.823
 Approx polarizability: 266.658  -1.400 250.482   1.059  -0.041 230.911

 ******    7 imaginary frequencies (negative Signs) ******

                     1                      2                      3
                     A                      A                      A
 Frequencies --  -339.2140              -297.7835              -256.4035
 Red. masses --     1.6832                 1.1796                 1.1892
 Frc consts  --     0.1141                 0.0616                 0.0461
 IR Inten    --     5.2011               140.1157               121.7051
 Raman Activ --     0.0709                 1.2128                 0.7659

                     4                      5                      6
                     A                      A                      A
 Frequencies --  -230.7718               -62.7151               -55.1330
 Red. masses --     1.7942                 6.8744                 6.0880
 Frc consts  --     0.0563                 0.0159                 0.0109
 IR Inten    --     5.1444                 1.2645                 0.9091
 Raman Activ --     0.0412                 0.0599                 0.0292

                     7                      8                      9
                     A                      A                      A
 Frequencies --   -25.9350                35.1672                71.5708
 Red. masses --     6.5457                 6.3363                 6.6818
 Frc consts  --     0.0026                 0.0046                 0.0202
 IR Inten    --     2.4323                 1.9524                 0.9805
 Raman Activ --     0.0275                 0.0094                 0.1141

                    10                     11                     12
                     A                      A                      A
 Frequencies --    82.5048                84.3483               116.4832
 Red. masses --     6.6558                 6.5626                 5.4788
 Frc consts  --     0.0267                 0.0275                 0.0438
 IR Inten    --     0.4801                 2.7466                 2.1631
 Raman Activ --     0.2883                 0.1193                 0.1556

                    13                     14                     15
                     A                      A                      A
 Frequencies --   139.2374               165.9179               186.9973
 Red. masses --     6.2984                 5.8917                 7.4643
 Frc consts  --     0.0719                 0.0956                 0.1538
 IR Inten    --     6.2071                 1.4553                 0.0776
 Raman Activ --     0.1474                 0.1819                 0.3644

                    16                     17                     18
                     A                      A                      A
 Frequencies --   201.2354               228.3576               238.9271
 Red. masses --     7.4659                 5.5158                 4.3230
 Frc consts  --     0.1781                 0.1695                 0.1454
 IR Inten    --     0.5683                 3.6293                17.5752
 Raman Activ --     2.9157                 1.2030                 0.2206

                    19                     20                     21
                     A                      A                      A
 Frequencies --   269.1880               288.0507               295.9237
 Red. masses --     4.6924                 5.3774                 4.4510
 Frc consts  --     0.2003                 0.2629                 0.2297
 IR Inten    --     2.4413                 3.3092                 0.1847
 Raman Activ --     0.1541                 0.4436                 0.2749

                    22                     23                     24
                     A                      A                      A
 Frequencies --   303.2484               312.9182               316.5258
 Red. masses --     6.6949                 6.3087                 4.9334
 Frc consts  --     0.3627                 0.3640                 0.2912
 IR Inten    --     9.5935                 4.7999                 4.0845
 Raman Activ --     1.5476                 3.5725                 1.8469

                    25                     26                     27
                     A                      A                      A
 Frequencies --   329.3049               352.8947               374.8367
 Red. masses --     6.6531                 5.3331                 4.5568
 Frc consts  --     0.4251                 0.3913                 0.3772
 IR Inten    --     3.7363                 5.1398                 4.5791
 Raman Activ --     2.4920                 0.7315                 0.3689

                    28                     29                     30
                     A                      A                      A
 Frequencies --   399.6329               422.2356               424.0027
 Red. masses --     5.4681                 5.8637                 4.9542
 Frc consts  --     0.5145                 0.6159                 0.5248
 IR Inten    --    20.1588                 9.8642                 1.7143
 Raman Activ --     3.3712                 2.8799                 3.3625

                    31                     32                     33
                     A                      A                      A
 Frequencies --   434.9382               464.5881               475.0670
 Red. masses --     6.2897                 4.6608                 4.6626
 Frc consts  --     0.7010                 0.5927                 0.6200
 IR Inten    --     2.9157                 5.3242                12.5709
 Raman Activ --     6.4929                 4.7259                 0.7713

                    34                     35                     36
                     A                      A                      A
 Frequencies --   503.5120               506.3735               558.7220
 Red. masses --     3.2651                 3.4973                 3.6752
 Frc consts  --     0.4877                 0.5284                 0.6760
 IR Inten    --    10.2698                11.0216                 7.4527
 Raman Activ --     3.0129                 2.4362                 1.3002

                    37                     38                     39
                     A                      A                      A
 Frequencies --   571.5670               593.2381               600.3936
 Red. masses --     3.0133                 5.6353                 5.3082
 Frc consts  --     0.5800                 1.1685                 1.1274
 IR Inten    --    49.3466                 1.7619                 7.0363
 Raman Activ --     0.3211                 1.1168                 0.2856

                    40                     41                     42
                     A                      A                      A
 Frequencies --   618.3586               636.7904               670.8708
 Red. masses --     3.8185                 1.0993                 5.5926
 Frc consts  --     0.8603                 0.2626                 1.4830
 IR Inten    --    30.1239               118.8318                15.6629
 Raman Activ --     1.4831                 2.2553                 0.7858

                    43                     44                     45
                     A                      A                      A
 Frequencies --   709.7313               723.3617               732.6287
 Red. masses --     1.0807                 1.0637                 1.0624
 Frc consts  --     0.3207                 0.3279                 0.3360
 IR Inten    --   100.4535                87.2002                82.7736
 Raman Activ --     1.6988                 1.6369                 1.4978

                    46                     47                     48
                     A                      A                      A
 Frequencies --   792.6970               844.4047               846.8039
 Red. masses --     1.0640                 1.1863                 1.8204
 Frc consts  --     0.3939                 0.4984                 0.7691
 IR Inten    --    85.6972                58.4331                 2.9103
 Raman Activ --     1.6649                 0.4619                 1.4901

                    49                     50                     51
                     A                      A                      A
 Frequencies --   864.8435               924.0881               967.3386
 Red. masses --     1.4896                 5.8235                 3.8065
 Frc consts  --     0.6564                 2.9299                 2.0986
 IR Inten    --    33.4418               100.1004                88.4768
 Raman Activ --     0.4544                 1.7144                 0.5081

                    52                     53                     54
                     A                      A                      A
 Frequencies --   977.9189               989.8753              1005.0032
 Red. masses --     5.1348                 5.9249                 5.1731
 Frc consts  --     2.8932                 3.4205                 3.0785
 IR Inten    --    13.3168                55.3120               211.4365
 Raman Activ --     3.2532                 1.2597                 0.6493

                    55                     56                     57
                     A                      A                      A
 Frequencies --  1011.0595              1016.6072              1031.8804
 Red. masses --     6.9661                 6.0493                 5.5517
 Frc consts  --     4.1956                 3.6835                 3.4829
 IR Inten    --   130.7479                90.2663                75.4131
 Raman Activ --     0.4488                 2.6328                 1.6219

                    58                     59                     60
                     A                      A                      A
 Frequencies --  1044.5620              1055.2897              1065.1780
 Red. masses --     5.0782                 4.5395                 3.2444
 Frc consts  --     3.2646                 2.9786                 2.1689
 IR Inten    --   498.2107               148.1744                38.8715
 Raman Activ --     2.1521                 3.5929                 6.4773

                    61                     62                     63
                     A                      A                      A
 Frequencies --  1078.8203              1090.9680              1093.3652
 Red. masses --     4.2736                 5.5806                 4.5891
 Frc consts  --     2.9305                 3.9134                 3.2323
 IR Inten    --     7.4785                95.8391                27.0158
 Raman Activ --     4.7529                 1.4176                 7.4800

                    64                     65                     66
                     A                      A                      A
 Frequencies --  1103.8939              1125.1144              1132.4291
 Red. masses --     2.4838                 3.2013                 2.9211
 Frc consts  --     1.7833                 2.3876                 2.2071
 IR Inten    --    89.5807                44.4363                11.9554
 Raman Activ --     6.9418                10.9952                 4.5884

                    67                     68                     69
                     A                      A                      A
 Frequencies --  1135.3076              1138.1214              1143.2462
 Red. masses --     3.1349                 2.0509                 2.5152
 Frc consts  --     2.3807                 1.5652                 1.9369
 IR Inten    --    36.6015                68.4412                22.6992
 Raman Activ --     1.4945                 2.4512                13.8598

                    70                     71                     72
                     A                      A                      A
 Frequencies --  1150.6494              1163.9632              1165.4958
 Red. masses --     2.3059                 1.8444                 2.0875
 Frc consts  --     1.7988                 1.4722                 1.6707
 IR Inten    --    11.9819                 7.5072                73.1018
 Raman Activ --     4.2437                 2.6162                 0.9189

                    73                     74                     75
                     A                      A                      A
 Frequencies --  1173.1014              1181.0832              1203.0466
 Red. masses --     1.8675                 2.4138                 1.8823
 Frc consts  --     1.5142                 1.9839                 1.6051
 IR Inten    --     3.2467                16.7956                24.2032
 Raman Activ --     6.3211                 3.1683                 2.8632

                    76                     77                     78
                     A                      A                      A
 Frequencies --  1208.5592              1217.5974              1235.8363
 Red. masses --     1.4626                 1.3220                 1.3809
 Frc consts  --     1.2587                 1.1548                 1.2426
 IR Inten    --    16.7767                22.1602                 6.4945
 Raman Activ --     3.0984                 2.3858                 0.9602

                    79                     80                     81
                     A                      A                      A
 Frequencies --  1242.1634              1248.8021              1268.2184
 Red. masses --     1.3757                 1.1776                 1.2368
 Frc consts  --     1.2506                 1.0820                 1.1721
 IR Inten    --     2.9455                 6.9201                 3.4089
 Raman Activ --     0.4475                 1.9789                 4.4185

                    82                     83                     84
                     A                      A                      A
 Frequencies --  1277.1210              1293.4284              1295.1270
 Red. masses --     1.2821                 1.3214                 1.3039
 Frc consts  --     1.2321                 1.3024                 1.2886
 IR Inten    --    13.9678                 4.5859                14.4977
 Raman Activ --     2.0645                 2.3498                 0.8203

                    85                     86                     87
                     A                      A                      A
 Frequencies --  1306.0355              1312.7982              1313.7228
 Red. masses --     1.2660                 1.2502                 1.2469
 Frc consts  --     1.2723                 1.2695                 1.2679
 IR Inten    --    22.8136                19.1873                32.3936
 Raman Activ --     1.0987                 1.4197                 5.0498

                    88                     89                     90
                     A                      A                      A
 Frequencies --  1323.3362              1331.9262              1335.2718
 Red. masses --     1.2068                 1.1980                 1.3485
 Frc consts  --     1.2452                 1.2522                 1.4166
 IR Inten    --    10.9304                12.8135                23.4716
 Raman Activ --     8.9971                11.0622                 2.1577

                    91                     92                     93
                     A                      A                      A
 Frequencies --  1343.9523              1351.9010              1352.7555
 Red. masses --     1.1593                 1.2135                 1.2808
 Frc consts  --     1.2337                 1.3068                 1.3809
 IR Inten    --    42.9523                20.0348                18.0246
 Raman Activ --    10.0736                 2.0284                 1.6835

                    94                     95                     96
                     A                      A                      A
 Frequencies --  1364.7458              1373.9336              1378.3249
 Red. masses --     1.5752                 1.4014                 1.3133
 Frc consts  --     1.7286                 1.5587                 1.4700
 IR Inten    --    15.6377                10.5968                 1.2794
 Raman Activ --    11.8142                 2.6874                 8.7517

                    97                     98                     99
                     A                      A                      A
 Frequencies --  1380.9585              1385.2347              1405.4463
 Red. masses --     1.4334                 1.2200                 1.6207
 Frc consts  --     1.6106                 1.3793                 1.8861
 IR Inten    --     6.3349                40.9845                11.2951
 Raman Activ --     7.2184                 2.7426                 4.9042

                   100                    101                    102
                     A                      A                      A
 Frequencies --  1438.9016              1444.5891              1448.2386
 Red. masses --     1.3761                 1.4655                 1.3971
 Frc consts  --     1.6787                 1.8019                 1.7264
 IR Inten    --    32.8684                 9.1621                35.9285
 Raman Activ --     0.9686                 1.5544                 0.5199

                   103                    104                    105
                     A                      A                      A
 Frequencies --  1456.8349              1481.9164              1482.4034
 Red. masses --     1.3901                 1.0880                 1.1032
 Frc consts  --     1.7382                 1.4078                 1.4284
 IR Inten    --     3.7212                 4.3545                 0.2933
 Raman Activ --     2.8795                 5.4814                 3.8485

                   106                    107                    108
                     A                      A                      A
 Frequencies --  1508.2932              1515.9751              3259.0414
 Red. masses --     1.2657                 1.2893                 1.0804
 Frc consts  --     1.6965                 1.7457                 6.7608
 IR Inten    --    32.5447                81.3543                11.2546
 Raman Activ --     1.3621                 1.2239                48.3566

                   109                    110                    111
                     A                      A                      A
 Frequencies --  3264.5852              3270.6649              3271.2369
 Red. masses --     1.0592                 1.0811                 1.0591
 Frc consts  --     6.6512                 6.8140                 6.6776
 IR Inten    --    32.6344                17.7149                46.3189
 Raman Activ --   120.3497                80.9747                61.4012

                   112                    113                    114
                     A                      A                      A
 Frequencies --  3275.0532              3283.0375              3285.8004
 Red. masses --     1.0804                 1.0822                 1.0830
 Frc consts  --     6.8278                 6.8721                 6.8888
 IR Inten    --     7.7186                 9.2848                23.5716
 Raman Activ --   159.6766                29.6769                52.1801

                   115                    116                    117
                     A                      A                      A
 Frequencies --  3287.7899              3294.6631              3297.2297
 Red. masses --     1.0829                 1.0860                 1.0864
 Frc consts  --     6.8968                 6.9452                 6.9589
 IR Inten    --     5.4753                23.5460                50.8654
 Raman Activ --    95.2743                16.0082                79.5128

                   118                    119                    120
                     A                      A                      A
 Frequencies --  3305.2030              3309.6620              3315.3611
 Red. masses --     1.0859                 1.0832                 1.0964
 Frc consts  --     6.9895                 6.9906                 7.1001
 IR Inten    --    97.5416                69.6192                79.8459
 Raman Activ --    26.4740                41.3367                62.4934

                   121                    122                    123
                     A                      A                      A
 Frequencies --  3316.9103              3331.7866              3334.5267
 Red. masses --     1.0789                 1.1071                 1.0688
 Frc consts  --     6.9934                 7.2406                 7.0017
 IR Inten    --   317.2088                55.9295               801.3039
 Raman Activ --   157.7382                51.8189               113.2487

                   124                    125                    126
                     A                      A                      A
 Frequencies --  3382.8905              3391.1409              3392.8800
 Red. masses --     1.0649                 1.0682                 1.0663
 Frc consts  --     7.1800                 7.2374                 7.2319
 IR Inten    --    46.0965                59.1398                41.9150
 Raman Activ --    87.3886               165.7793               125.4290

                   127                    128                    129
                     A                      A                      A
 Frequencies --  3409.4167              3919.1960              3922.0327
 Red. masses --     1.0678                 1.0678                 1.0674
 Frc consts  --     7.3133                 9.6635                 9.6740
 IR Inten    --    68.5771                81.3336                71.7357
 Raman Activ --   145.1816                87.6804               114.6342

 - Thermochemistry -
 -------------------
 Temperature   298.150 Kelvin.  Pressure   1.00000 Atm.
 Atom     1 has atomic number  8 and mass  15.99491

 Molecular mass:   342.11621 amu.
 Principal axes and moments of inertia in atomic units:
                           1         2         3
     Eigenvalues --  4474.59209********************
           X            0.99997   0.00755  -0.00036
           Y           -0.00755   0.99997   0.00161
           Z            0.00037  -0.00161   1.00000
 This molecule is an asymmetric top.
 Rotational symmetry number  1.
 Warning -- assumption of classical behavior for rotation
           may cause significant error
 Rotational temperatures (Kelvin)      0.01936     0.00690     0.00522
 Rotational constants (GHZ):           0.40333     0.14378     0.10878
    7 imaginary frequencies ignored.
 Zero-point vibrational energy     977350.6 (Joules/Mol)
                                  233.59240 (Kcal/Mol)
 Warning -- explicit consideration of  33 degrees of freedom as
           vibrations may cause significant error
 Vibrational temperatures:     50.60   102.97   118.71   121.36   167.59
          (Kelvin)            200.33   238.72   269.05   289.53   328.56
                              343.76   387.30   414.44   425.77   436.31
                              450.22   455.41   473.80   507.74   539.31
                              574.98   607.50   610.04   625.78   668.44
                              683.51   724.44   728.56   803.88   822.36
                              853.54   863.83   889.68   916.20   965.23
                             1021.14  1040.75  1054.09  1140.51  1214.91
                             1218.36  1244.32  1329.55  1391.78  1407.01
                             1424.21  1445.97  1454.69  1462.67  1484.64
                             1502.89  1518.32  1532.55  1552.18  1569.66
                             1573.11  1588.26  1618.79  1629.31  1633.45
                             1637.50  1644.87  1655.53  1674.68  1676.89
                             1687.83  1699.31  1730.91  1738.84  1751.85
                             1778.09  1787.19  1796.75  1824.68  1837.49
                             1860.95  1863.40  1879.09  1888.82  1890.15
                             1903.98  1916.34  1921.16  1933.65  1945.08
                             1946.31  1963.56  1976.78  1983.10  1986.89
                             1993.04  2022.12  2070.26  2078.44  2083.69
                             2096.06  2132.14  2132.85  2170.09  2181.15
                             4689.03  4697.00  4705.75  4706.57  4712.07
                             4723.55  4727.53  4730.39  4740.28  4743.97
                             4755.44  4761.86  4770.06  4772.29  4793.69
                             4797.63  4867.22  4879.09  4881.59  4905.38
                             5638.84  5642.92

 Zero-point correction=                           0.372253 (Hartree/Particle)
 Thermal correction to Energy=                    0.390847
 Thermal correction to Enthalpy=                  0.391791
 Thermal correction to Gibbs Free Energy=         0.326235
 Sum of electronic and zero-point Energies=          -1297.563388
 Sum of electronic and thermal Energies=             -1297.544795
 Sum of electronic and thermal Enthalpies=           -1297.543851
 Sum of electronic and thermal Free Energies=        -1297.609406

                     E (Thermal)             CV                S
                      KCal/Mol        Cal/Mol-Kelvin    Cal/Mol-Kelvin
 Total                  245.260             76.219            137.973
 Electronic               0.000              0.000              0.000
 Translational            0.889              2.981             43.384
 Rotational               0.889              2.981             35.187
 Vibrational            243.483             70.257             59.402
 Vibration     1          0.594              1.982              5.514
 Vibration     2          0.598              1.968              4.110
 Vibration     3          0.600              1.961              3.830
 Vibration     4          0.601              1.960              3.787
 Vibration     5          0.608              1.936              3.158
 Vibration     6          0.615              1.914              2.814
 Vibration     7          0.624              1.884              2.481
 Vibration     8          0.632              1.858              2.257
 Vibration     9          0.638              1.838              2.122
 Vibration    10          0.651              1.798              1.892
 Vibration    11          0.657              1.781              1.811
 Vibration    12          0.674              1.730              1.601
 Vibration    13          0.685              1.696              1.485
 Vibration    14          0.690              1.681              1.440
 Vibration    15          0.695              1.668              1.399
 Vibration    16          0.701              1.649              1.347
 Vibration    17          0.703              1.642              1.328
 Vibration    18          0.712              1.617              1.263
 Vibration    19          0.729              1.569              1.153
 Vibration    20          0.746              1.524              1.060
 Vibration    21          0.766              1.471              0.964
 Vibration    22          0.785              1.422              0.884
 Vibration    23          0.786              1.418              0.878
 Vibration    24          0.796              1.394              0.843
 Vibration    25          0.822              1.329              0.753
 Vibration    26          0.832              1.305              0.723
 Vibration    27          0.859              1.242              0.649
 Vibration    28          0.862              1.236              0.642
 Vibration    29          0.914              1.121              0.526
 Vibration    30          0.928              1.093              0.501
 Vibration    31          0.951              1.046              0.461
 Vibration    32          0.959              1.031              0.449
 Vibration    33          0.978              0.993              0.419

 Normal termination of Gaussian 09 at Tue Mar  1 03:24:16 2016.
