 Gaussian 09, Revision B.01,
 Gaussian 09:  EM64L-G09RevB.01 12-Aug-2010

 --------------------------------------------------
 # freq=raman b3lyp/6-31+g(2df,p) geom=connectivity
 --------------------------------------------------

 ------------
 500 7000.com
 ------------
 Symbolic Z-matrix:
 Charge =  0 Multiplicity = 1

                         Standard orientation:
 ---------------------------------------------------------------------
 Center     Atomic      Atomic             Coordinates (Angstroms)
 Number     Number       Type             X           Y           Z
 ---------------------------------------------------------------------
      1          8           0        5.007780   -0.595607   -0.533539
      2          6           0        3.809002   -0.162741    0.124820
      3          6           0        3.441380    1.209404   -0.414424
      4          8           0        4.448376    2.228872   -0.329018
      5          1           0        5.204612    1.816642   -0.836562
      6          6           0        2.081261    1.638228    0.110898
      7          8           0        1.534511    2.804853   -0.521000
      8          1           0        2.326537    3.339179   -0.817960
      9          6           0        2.891725   -2.468197    0.698594
     10          8           0        1.896242   -3.500170    0.635213
     11          1           0        2.282053   -4.399400    0.842297
     12          6           0        2.803120   -1.252297   -0.208950
     13          8           0        1.540671   -0.733271    0.235216
     14          6           0        1.036972    0.560312   -0.127675
     15          8           0       -0.114944    0.793205    0.696537
     16          6           0       -1.295511    0.242589    0.095490
     17          6           0       -1.751678   -1.179541    0.382051
     18          8           0       -0.780721   -2.118127   -0.104231
     19          1           0        0.127059   -2.010536    0.299069
     20          6           0       -3.027292   -1.438220   -0.401165
     21          8           0       -3.340066   -2.717626   -0.972219
     22          1           0       -2.448472   -3.091220   -1.226877
     23          6           0       -2.179757    2.596081    0.206083
     24          8           0       -2.970445    3.755440    0.505822
     25          1           0       -2.454113    4.606668    0.419420
     26          6           0       -2.478917    1.126774    0.454895
     27          8           0       -3.710885    0.720865   -0.158764
     28          6           0       -4.125331   -0.597423    0.229372
     29          8           0       -5.319417   -0.762502   -0.549719
     30          1           0       -6.087833   -0.638177    0.012136
     31          1           0       -4.249259   -0.730919    1.283754
     32          1           0       -2.830462   -0.883839   -1.294932
     33          1           0       -1.918505   -1.318503    1.429791
     34          1           0       -1.159887    0.313308   -0.963521
     35          1           0       -2.621221    1.022957    1.510296
     36          1           0       -1.238868    2.795807   -0.262677
     37          1           0       -3.120647    2.396355    0.674844
     38          1           0        5.722359   -0.648809    0.105325
     39          1           0        2.906277   -2.107596    1.705895
     40          1           0        3.837275   -2.932237    0.510173
     41          1           0        2.794319   -1.509621   -1.247510
     42          1           0        3.965626   -0.115408    1.182236
     43          1           0        3.296959    1.060341   -1.464102
     44          1           0        2.158801    1.818761    1.162704
     45          1           0        0.748724    0.558988   -1.158117
 ---------------------------------------------------------------------

 SCF Done:  E(RB3LYP) =  -1297.70373831     A.U. after   23 cycles

 The electronic state is 1-A.
 Alpha  occ. eigenvalues --  -19.19344 -19.19335 -19.18390 -19.18068 -19.17737
 Alpha  occ. eigenvalues --  -19.17670 -19.17240 -19.15056 -19.14879 -19.13992
 Alpha  occ. eigenvalues --  -19.13900 -10.30762 -10.28705 -10.27984 -10.27657
 Alpha  occ. eigenvalues --  -10.27287 -10.26973 -10.26081 -10.25678 -10.25597
 Alpha  occ. eigenvalues --  -10.24366 -10.22479 -10.17936  -1.09871  -1.07849
 Alpha  occ. eigenvalues --   -1.07419  -1.05735  -1.05094  -1.04567  -1.03492
 Alpha  occ. eigenvalues --   -1.03244  -1.01764  -1.00493  -0.99251  -0.82883
 Alpha  occ. eigenvalues --   -0.82123  -0.80318  -0.79417  -0.72670  -0.70871
 Alpha  occ. eigenvalues --   -0.67715  -0.64905  -0.64363  -0.62484  -0.61168
 Alpha  occ. eigenvalues --   -0.60680  -0.57124  -0.56721  -0.55644  -0.55011
 Alpha  occ. eigenvalues --   -0.53635  -0.53504  -0.53051  -0.52559  -0.51810
 Alpha  occ. eigenvalues --   -0.51356  -0.49347  -0.48671  -0.48204  -0.47050
 Alpha  occ. eigenvalues --   -0.46170  -0.45533  -0.45063  -0.44245  -0.43531
 Alpha  occ. eigenvalues --   -0.43064  -0.41262  -0.40282  -0.39855  -0.39263
 Alpha  occ. eigenvalues --   -0.38194  -0.37701  -0.37217  -0.36486  -0.35959
 Alpha  occ. eigenvalues --   -0.35490  -0.35433  -0.35061  -0.33962  -0.33618
 Alpha  occ. eigenvalues --   -0.32933  -0.31470  -0.31235  -0.30719  -0.30338
 Alpha  occ. eigenvalues --   -0.29768  -0.29058  -0.28155  -0.27150  -0.24982
 Alpha  occ. eigenvalues --   -0.13070
 Alpha virt. eigenvalues --   -0.04906  -0.03451  -0.02368  -0.01048   0.00280
 Alpha virt. eigenvalues --    0.00681   0.01374   0.02038   0.02542   0.02800
 Alpha virt. eigenvalues --    0.03488   0.04101   0.04247   0.04780   0.05701

 Mulliken atomic charges:
              1
     1  O   -0.477029
     2  C    0.009100
     3  C   -0.177829
     4  O   -0.451381
     5  H    0.354713
     6  C   -0.194045
     7  O   -0.460313
     8  H    0.362047
     9  C   -0.404074
    10  O   -0.471132
    11  H    0.366581
    12  C    0.101765
    13  O   -0.084159
    14  C    0.357763
    15  O    0.013237
    16  C   -0.055372
    17  C   -0.085298
    18  O   -0.468310
    19  H    0.415829
    20  C   -0.130460
    21  O   -0.475355
    22  H    0.357122
    23  C   -0.802624
    24  O   -0.373107
    25  H    0.343814
    26  C   -0.260958
    27  O   -0.040111
    28  C    0.292439
    29  O   -0.431731
    30  H    0.329685
    31  H    0.129656
    32  H    0.123009
    33  H    0.121166
    34  H    0.129529
    35  H    0.144725
    36  H    0.192057
    37  H    0.396262
    38  H    0.346527
    39  H    0.150349
    40  H    0.142817
    41  H    0.136346
    42  H    0.128560
    43  H    0.128928
    44  H    0.143742
    45  H    0.125523
 Sum of Mulliken atomic charges =   0.00000

 Dipole moment (field-independent basis, Debye):
    X=              8.9301    Y=             -0.6864    Z=              3.1589  Tot=              9.4972
 Quadrupole moment (field-independent basis, Debye-Ang):
   XX=           -121.2494   YY=           -136.4140   ZZ=           -138.2489
   XY=            -11.9179   XZ=            -12.0021   YZ=             -7.1498

  Exact polarizability: 237.486  -0.240 239.636  -5.554  -1.550 154.079
 Approx polarizability: 287.879   0.554 320.607  -7.788   0.335 254.961

 ******   11 imaginary frequencies (negative Signs) ******

                     1                      2                      3
                     A                      A                      A
 Frequencies -- -2354.8876             -1050.8541              -682.2846
 Red. masses --     1.0884                 1.2156                 1.2306
 Frc consts  --     3.5560                 0.7909                 0.3375
 IR Inten    --   103.2162               547.4265                29.9032
 Raman Activ --   426.1166               606.1238                16.8455

                     4                      5                      6
                     A                      A                      A
 Frequencies --  -499.1931              -276.8354              -264.1678
 Red. masses --     5.6137                 1.1014                 1.7901
 Frc consts  --     0.8242                 0.0497                 0.0736
 IR Inten    --    73.0364                87.1193                 3.9443
 Raman Activ --    51.1260                 2.4480                 0.0594

                     7                      8                      9
                     A                      A                      A
 Frequencies --  -188.3140               -89.6914               -79.1566
 Red. masses --     3.7938                 5.0823                 6.0823
 Frc consts  --     0.0793                 0.0241                 0.0225
 IR Inten    --    63.8205                 7.7411                 1.2593
 Raman Activ --    31.4242                 0.0679                 0.8449

                    10                     11                     12
                     A                      A                      A
 Frequencies --   -51.8518               -24.3521                41.2317
 Red. masses --     5.4635                 6.8270                 3.7855
 Frc consts  --     0.0087                 0.0024                 0.0038
 IR Inten    --     0.6447                 1.8609                 7.0518
 Raman Activ --     1.1619                 0.4649                 3.2883

                    13                     14                     15
                     A                      A                      A
 Frequencies --    69.3652                87.3827               103.2568
 Red. masses --     3.2263                 5.8520                 4.8861
 Frc consts  --     0.0091                 0.0263                 0.0307
 IR Inten    --    33.5611                 5.4926                 7.4931
 Raman Activ --     1.8568                 5.0592                 7.8949

                    16                     17                     18
                     A                      A                      A
 Frequencies --   126.7473               146.1572               173.5856
 Red. masses --     2.1031                 5.0002                 3.3253
 Frc consts  --     0.0199                 0.0629                 0.0590
 IR Inten    --    55.9761                 9.1379                27.3146
 Raman Activ --     0.7265                 0.7768                21.0929

                    19                     20                     21
                     A                      A                      A
 Frequencies --   173.7974               190.1999               207.5916
 Red. masses --     6.5807                 4.6028                 5.5511
 Frc consts  --     0.1171                 0.0981                 0.1409
 IR Inten    --     3.7021                 4.3648                 1.2105
 Raman Activ --     1.9375                 4.4514                 2.1497

                    22                     23                     24
                     A                      A                      A
 Frequencies --   248.5410               258.4808               271.2757
 Red. masses --     4.7956                 3.7605                 5.7369
 Frc consts  --     0.1745                 0.1480                 0.2487
 IR Inten    --     7.0225                 3.4896                 4.8596
 Raman Activ --     0.8425                 0.4974                 0.4968

                    25                     26                     27
                     A                      A                      A
 Frequencies --   279.3355               301.1879               314.0947
 Red. masses --     5.2928                 2.8045                 4.0284
 Frc consts  --     0.2433                 0.1499                 0.2342
 IR Inten    --     8.6631                24.0757                 1.4499
 Raman Activ --     1.1269                 9.1300                 2.7948

                    28                     29                     30
                     A                      A                      A
 Frequencies --   321.5127               328.2990               364.2642
 Red. masses --     5.0453                 5.8024                 3.9208
 Frc consts  --     0.3073                 0.3685                 0.3065
 IR Inten    --     4.3320                 5.1032                 2.8501
 Raman Activ --    10.4262                 6.9600                 5.0460

                    31                     32                     33
                     A                      A                      A
 Frequencies --   385.3153               400.4620               412.0924
 Red. masses --     4.9290                 6.8411                 4.6241
 Frc consts  --     0.4312                 0.6464                 0.4627
 IR Inten    --    10.8200                 3.4994                 0.9297
 Raman Activ --     3.0257                 7.3582                 3.5066

                    34                     35                     36
                     A                      A                      A
 Frequencies --   428.2423               448.7168               478.7484
 Red. masses --     5.3527                 5.8618                 5.1798
 Frc consts  --     0.5784                 0.6954                 0.6995
 IR Inten    --     4.8172                 3.3004                 7.0682
 Raman Activ --     6.3020                 3.2867                 0.7073

                    37                     38                     39
                     A                      A                      A
 Frequencies --   491.1200               533.3913               559.6041
 Red. masses --     4.3268                 3.5348                 4.3947
 Frc consts  --     0.6149                 0.5925                 0.8109
 IR Inten    --    13.8009                 9.6586                49.4583
 Raman Activ --     0.2788                 3.5290                 3.7272

                    40                     41                     42
                     A                      A                      A
 Frequencies --   572.9435               576.1796               603.4645
 Red. masses --     4.2287                 3.8294                 3.4205
 Frc consts  --     0.8179                 0.7490                 0.7339
 IR Inten    --    23.2527                 4.5488                 8.4975
 Raman Activ --     0.7105                10.2376                11.7199

                    43                     44                     45
                     A                      A                      A
 Frequencies --   624.9321               633.2170               659.1613
 Red. masses --     4.1104                 2.9631                 1.1982
 Frc consts  --     0.9458                 0.7000                 0.3067
 IR Inten    --    17.9821                72.8213                93.2378
 Raman Activ --    10.8891                 2.2866                 1.9154

                    46                     47                     48
                     A                      A                      A
 Frequencies --   663.1085               690.5333               717.7132
 Red. masses --     4.0745                 1.1613                 1.0937
 Frc consts  --     1.0556                 0.3263                 0.3319
 IR Inten    --    15.9131               155.2907                71.9229
 Raman Activ --     5.4028                 6.3351                 0.9110

                    49                     50                     51
                     A                      A                      A
 Frequencies --   734.3687               777.0021               812.7581
 Red. masses --     1.0835                 1.1085                 4.2934
 Frc consts  --     0.3443                 0.3943                 1.6710
 IR Inten    --    78.3682                97.4628               164.3615
 Raman Activ --     1.2574                 2.1626                85.1791

                    52                     53                     54
                     A                      A                      A
 Frequencies --   854.2102               921.3360               930.6528
 Red. masses --     2.6715                 5.3028                 5.9774
 Frc consts  --     1.1485                 2.6521                 3.0503
 IR Inten    --     9.1847                44.9425               237.8853
 Raman Activ --     2.0868                 4.2738                61.1414

                    55                     56                     57
                     A                      A                      A
 Frequencies --   941.3010               964.2945               972.4100
 Red. masses --     5.9153                 5.3141                 6.6412
 Frc consts  --     3.0880                 2.9114                 3.7000
 IR Inten    --     8.3708               113.6028               220.1235
 Raman Activ --    64.5713                 3.9293                 2.3615

                    58                     59                     60
                     A                      A                      A
 Frequencies --   984.8266               999.7495              1006.1337
 Red. masses --     6.7099                 4.7416                 4.5481
 Frc consts  --     3.8343                 2.7923                 2.7126
 IR Inten    --    40.9112               124.1234               202.8696
 Raman Activ --    78.5453                 6.8197                 3.9940

                    61                     62                     63
                     A                      A                      A
 Frequencies --  1033.9658              1050.7464              1056.9623
 Red. masses --     3.2920                 3.4888                 3.0927
 Frc consts  --     2.0736                 2.2695                 2.0357
 IR Inten    --   125.6117               106.9551                60.4230
 Raman Activ --     5.1591                15.9403                23.1337

                    64                     65                     66
                     A                      A                      A
 Frequencies --  1061.9623              1069.3532              1076.8636
 Red. masses --     6.4965                 2.5974                 2.9270
 Frc consts  --     4.3167                 1.7500                 1.9998
 IR Inten    --    29.8199                10.2175                64.2581
 Raman Activ --    25.5393                81.6234                 9.8630

                    67                     68                     69
                     A                      A                      A
 Frequencies --  1079.6489              1107.3769              1112.9610
 Red. masses --     4.6242                 1.6650                 2.7242
 Frc consts  --     3.1758                 1.2030                 1.9881
 IR Inten    --    92.0628                47.8756                16.3115
 Raman Activ --     8.4008                19.8125                30.7548

                    70                     71                     72
                     A                      A                      A
 Frequencies --  1123.6926              1127.1735              1132.4572
 Red. masses --     2.4041                 2.1283                 2.0254
 Frc consts  --     1.7886                 1.5932                 1.5304
 IR Inten    --     3.0632               121.9362                40.2175
 Raman Activ --     9.1831               138.5369                11.5831

                    73                     74                     75
                     A                      A                      A
 Frequencies --  1141.5822              1143.8812              1159.6655
 Red. masses --     2.7750                 2.2127                 1.9248
 Frc consts  --     2.1307                 1.7058                 1.5251
 IR Inten    --    75.2704                67.2548                52.2813
 Raman Activ --   153.0953               196.9650                25.8194

                    76                     77                     78
                     A                      A                      A
 Frequencies --  1162.7312              1170.9757              1181.6848
 Red. masses --     1.9171                 1.4414                 1.8540
 Frc consts  --     1.5271                 1.1645                 1.5253
 IR Inten    --    25.9783                15.2440                30.9290
 Raman Activ --   181.8393                89.6348                11.2637

                    79                     80                     81
                     A                      A                      A
 Frequencies --  1191.2701              1195.2185              1221.6496
 Red. masses --     1.4496                 1.4636                 1.2481
 Frc consts  --     1.2121                 1.2319                 1.0975
 IR Inten    --     4.2352                23.8582                14.5723
 Raman Activ --     0.6714                 8.6358                 3.1488

                    82                     83                     84
                     A                      A                      A
 Frequencies --  1228.1776              1234.7758              1240.4273
 Red. masses --     1.4460                 1.3605                 1.2966
 Frc consts  --     1.2851                 1.2221                 1.1754
 IR Inten    --    17.5314                18.6866                 8.9728
 Raman Activ --    12.3589                 2.9605                 4.7793

                    85                     86                     87
                     A                      A                      A
 Frequencies --  1249.5719              1265.2085              1281.7040
 Red. masses --     1.1990                 1.1865                 1.2275
 Frc consts  --     1.1031                 1.1190                 1.1881
 IR Inten    --    25.4889                 5.4706                 9.0234
 Raman Activ --    15.2701                 3.1056                 5.5261

                    88                     89                     90
                     A                      A                      A
 Frequencies --  1288.9570              1290.3511              1303.7773
 Red. masses --     1.4271                 1.2422                 1.2563
 Frc consts  --     1.3969                 1.2186                 1.2582
 IR Inten    --    13.2483                 4.4542                 2.6180
 Raman Activ --     9.5132                20.6069                 3.4436

                    91                     92                     93
                     A                      A                      A
 Frequencies --  1319.9914              1324.2316              1328.8897
 Red. masses --     1.3349                 1.3331                 1.3880
 Frc consts  --     1.3704                 1.3773                 1.4442
 IR Inten    --     6.0420                40.0913                14.8095
 Raman Activ --     3.6351                13.3641                 4.3272

                    94                     95                     96
                     A                      A                      A
 Frequencies --  1344.1353              1351.2841              1360.1498
 Red. masses --     1.2542                 1.0941                 1.4714
 Frc consts  --     1.3351                 1.1770                 1.6038
 IR Inten    --    47.3646                30.7044                11.2868
 Raman Activ --     3.3394                 4.7762                 2.9630

                    97                     98                     99
                     A                      A                      A
 Frequencies --  1365.5810              1380.1898              1394.6206
 Red. masses --     1.4836                 1.1940                 1.5551
 Frc consts  --     1.6300                 1.3400                 1.7820
 IR Inten    --     5.6815                29.8886                98.4386
 Raman Activ --     7.5584                 2.5743                 9.0442

                   100                    101                    102
                     A                      A                      A
 Frequencies --  1407.4415              1427.5963              1436.8479
 Red. masses --     1.3555                 1.2006                 1.3642
 Frc consts  --     1.5820                 1.4416                 1.6594
 IR Inten    --    14.3094                11.6424                16.4790
 Raman Activ --     9.6587                 9.3897                 0.8053

                   103                    104                    105
                     A                      A                      A
 Frequencies --  1449.6106              1464.4915              1467.0475
 Red. masses --     1.0799                 1.4407                 1.4598
 Frc consts  --     1.3370                 1.8205                 1.8511
 IR Inten    --     7.0819                35.0371                50.9858
 Raman Activ --     5.3758                 3.3736                 4.4643

                   106                    107                    108
                     A                      A                      A
 Frequencies --  1470.3512              1521.5303              2927.7590
 Red. masses --     1.3505                 1.0946                 1.0339
 Frc consts  --     1.7203                 1.4930                 5.2216
 IR Inten    --    85.5672                 5.8935                42.1448
 Raman Activ --     1.9861                 5.1228              1885.6588

                   109                    110                    111
                     A                      A                      A
 Frequencies --  3199.3107              3217.8465              3241.2161
 Red. masses --     1.0726                 1.0683                 1.0810
 Frc consts  --     6.4685                 6.5175                 6.6910
 IR Inten    --    83.4146                66.6913                10.0712
 Raman Activ --  1511.6432              2621.4353                62.4168

                   112                    113                    114
                     A                      A                      A
 Frequencies --  3255.1218              3256.6704              3267.1829
 Red. masses --     1.0722                 1.0664                 1.0821
 Frc consts  --     6.6937                 6.6640                 6.8056
 IR Inten    --    36.8606                19.6871                14.0779
 Raman Activ --    21.4117               149.3108                41.7800

                   115                    116                    117
                     A                      A                      A
 Frequencies --  3278.3433              3283.8966              3287.6885
 Red. masses --     1.0845                 1.0849                 1.0844
 Frc consts  --     6.8674                 6.8931                 6.9056
 IR Inten    --     3.5860                 4.0835                 4.1771
 Raman Activ --    29.5837                 6.4341               125.1880

                   118                    119                    120
                     A                      A                      A
 Frequencies --  3293.1393              3294.1281              3297.1740
 Red. masses --     1.0873                 1.0871                 1.0911
 Frc consts  --     6.9477                 6.9505                 6.9887
 IR Inten    --     1.6661                71.8815                53.3465
 Raman Activ --    26.2780                82.7806                10.2038

                   121                    122                    123
                     A                      A                      A
 Frequencies --  3311.4555              3338.0410              3353.7382
 Red. masses --     1.0964                 1.0673                 1.0661
 Frc consts  --     7.0834                 7.0069                 7.0647
 IR Inten    --    78.3982               477.0275                43.9164
 Raman Activ --    21.2064               249.7516                96.9799

                   124                    125                    126
                     A                      A                      A
 Frequencies --  3360.4306              3364.8148              3365.9440
 Red. masses --     1.0693                 1.0649                 1.0648
 Frc consts  --     7.1147                 7.1038                 7.1079
 IR Inten    --    63.3930                50.6109                35.2887
 Raman Activ --   206.3254                89.9601                59.8809

                   127                    128                    129
                     A                      A                      A
 Frequencies --  3385.1814              3872.1732              3875.3815
 Red. masses --     1.1517                 1.0675                 1.0673
 Frc consts  --     7.7759                 9.4299                 9.4441
 IR Inten    --    32.2048                65.3428                50.7165
 Raman Activ --    72.2994               109.8080               195.8195

 - Thermochemistry -
 -------------------
 Temperature   298.150 Kelvin.  Pressure   1.00000 Atm.
 Atom     1 has atomic number  8 and mass  15.99491

 Molecular mass:   342.11621 amu.
 Principal axes and moments of inertia in atomic units:
                           1         2         3
     Eigenvalues --  4806.16594********************
           X            0.99996  -0.00869  -0.00190
           Y            0.00868   0.99995  -0.00499
           Z            0.00194   0.00497   0.99999
 This molecule is an asymmetric top.
 Rotational symmetry number  1.
 Warning -- assumption of classical behavior for rotation
           may cause significant error
 Rotational temperatures (Kelvin)      0.01802     0.00745     0.00549
 Rotational constants (GHZ):           0.37551     0.15526     0.11436
   11 imaginary frequencies ignored.
 Zero-point vibrational energy     938528.4 (Joules/Mol)
                                  224.31367 (Kcal/Mol)
 Warning -- explicit consideration of  31 degrees of freedom as
           vibrations may cause significant error
 Vibrational temperatures:     59.32    99.80   125.72   148.56   182.36
          (Kelvin)            210.29   249.75   250.06   273.65   298.68
                              357.59   371.90   390.30   401.90   433.34
                              451.91   462.58   472.35   524.09   554.38
                              576.17   592.91   616.14   645.60   688.81
                              706.61   767.43   805.14   824.34   828.99
                              868.25   899.14   911.06   948.38   954.06
                              993.52  1032.63  1056.59  1117.93  1169.38
                             1229.02  1325.60  1339.00  1354.32  1387.40
                             1399.08  1416.94  1438.41  1447.60  1487.64
                             1511.79  1520.73  1527.92  1538.56  1549.36
                             1553.37  1593.27  1601.30  1616.74  1621.75
                             1629.35  1642.48  1645.79  1668.50  1672.91
                             1684.77  1700.18  1713.97  1719.65  1757.68
                             1767.07  1776.56  1784.70  1797.85  1820.35
                             1844.08  1854.52  1856.53  1875.84  1899.17
                             1905.27  1911.97  1933.91  1944.19  1956.95
                             1964.76  1985.78  2006.55  2024.99  2053.99
                             2067.30  2085.66  2107.07  2110.75  2115.50
                             2189.14  4212.39  4603.09  4629.76  4663.38
                             4683.39  4685.62  4700.74  4716.80  4724.79
                             4730.24  4738.09  4739.51  4743.89  4764.44
                             4802.69  4825.28  4834.90  4841.21  4842.84
                             4870.51  5571.19  5575.80

 Zero-point correction=                           0.357467 (Hartree/Particle)
 Thermal correction to Energy=                    0.375922
 Thermal correction to Enthalpy=                  0.376866
 Thermal correction to Gibbs Free Energy=         0.311814
 Sum of electronic and zero-point Energies=          -1297.346272
 Sum of electronic and thermal Energies=             -1297.327816
 Sum of electronic and thermal Enthalpies=           -1297.326872
 Sum of electronic and thermal Free Energies=        -1297.391924

                     E (Thermal)             CV                S
                      KCal/Mol        Cal/Mol-Kelvin    Cal/Mol-Kelvin
 Total                  235.895             75.638            136.913
 Electronic               0.000              0.000              0.000
 Translational            0.889              2.981             43.384
 Rotational               0.889              2.981             35.132
 Vibrational            234.117             69.677             58.397
 Vibration     1          0.594              1.981              5.199
 Vibration     2          0.598              1.969              4.171
 Vibration     3          0.601              1.958              3.718
 Vibration     4          0.605              1.947              3.392
 Vibration     5          0.611              1.926              2.995
 Vibration     6          0.617              1.907              2.722
 Vibration     7          0.627              1.875              2.396
 Vibration     8          0.627              1.875              2.394
 Vibration     9          0.634              1.853              2.226
 Vibration    10          0.641              1.829              2.065
 Vibration    11          0.662              1.765              1.741
 Vibration    12          0.667              1.748              1.672
 Vibration    13          0.675              1.726              1.588
 Vibration    14          0.680              1.712              1.538
 Vibration    15          0.693              1.671              1.410
 Vibration    16          0.702              1.647              1.341
 Vibration    17          0.707              1.632              1.302
 Vibration    18          0.712              1.619              1.268
 Vibration    19          0.738              1.546              1.104
 Vibration    20          0.754              1.502              1.018
 Vibration    21          0.766              1.469              0.961
 Vibration    22          0.776              1.444              0.919
 Vibration    23          0.790              1.409              0.864
 Vibration    24          0.808              1.364              0.800
 Vibration    25          0.835              1.297              0.713
 Vibration    26          0.847              1.270              0.681
 Vibration    27          0.888              1.176              0.580
 Vibration    28          0.915              1.119              0.525
 Vibration    29          0.929              1.090              0.499
 Vibration    30          0.933              1.083              0.492
 Vibration    31          0.962              1.024              0.444

 Normal termination of Gaussian 09 at Tue Feb 16 14:22:01 2016.
