 Gaussian 09, Revision B.01,
 Gaussian 09:  EM64L-G09RevB.01 12-Aug-2010

 -------------------------------------------------
 # freq=raman b3lyp/6-31+g(2d,p) geom=connectivity
 -------------------------------------------------

 -----------------
 550 8915/8915.com
 -----------------
 Symbolic Z-matrix:
 Charge =  0 Multiplicity = 1

                         Standard orientation:
 ---------------------------------------------------------------------
 Center     Atomic      Atomic             Coordinates (Angstroms)
 Number     Number       Type             X           Y           Z
 ---------------------------------------------------------------------
      1          8           0       -4.926427    0.610566   -0.689792
      2          6           0       -3.858568    0.222156    0.187491
      3          6           0       -3.382170   -1.074539   -0.446830
      4          8           0       -4.393127   -2.091728   -0.501526
      5          1           0       -5.235023   -1.628702   -0.779173
      6          6           0       -2.071109   -1.534508    0.169581
      7          8           0       -1.478603   -2.680819   -0.459791
      8          1           0       -2.190785   -3.337000   -0.707235
      9          6           0       -2.955967    2.672168    0.461496
     10          8           0       -1.974087    3.698927    0.257113
     11          1           0       -2.520602    4.494033    0.519987
     12          6           0       -2.702049    1.206474    0.150310
     13          8           0       -1.559318    0.640852    0.809740
     14          6           0       -1.004001   -0.456584    0.069851
     15          8           0        0.231014   -0.673739    0.765883
     16          6           0        1.461602   -0.300204    0.129917
     17          6           0        1.896660    1.148940    0.275097
     18          8           0        1.066313    2.054776   -0.465971
     19          1           0        0.379194    2.230333    0.238087
     20          6           0        3.207756    1.328861   -0.473193
     21          8           0        3.628260    2.700984   -0.467060
     22          1           0        3.064480    3.397791   -0.909495
     23          6           0        2.295478   -2.663800    0.093310
     24          8           0        1.193290   -3.528078    0.406187
     25          1           0        0.316954   -3.087199    0.212619
     26          6           0        2.552964   -1.251343    0.592784
     27          8           0        3.830052   -0.930242    0.020961
     28          6           0        4.274379    0.429459    0.131095
     29          8           0        5.452686    0.168581   -0.644210
     30          1           0        6.046311   -0.396231   -0.144013
     31          1           0        4.505983    0.689103    1.142948
     32          1           0        3.055942    1.030844   -1.489578
     33          1           0        1.985051    1.440167    1.300901
     34          1           0        1.327154   -0.472387   -0.917545
     35          1           0        2.617226   -1.245907    1.660838
     36          1           0        3.170933   -3.218833    0.358673
     37          1           0        2.298338   -2.588489   -0.974033
     38          1           0       -0.829295   -0.178744   -0.948571
     39          1           0       -2.238474   -1.758208    1.202464
     40          1           0       -3.157010   -0.835443   -1.465180
     41          1           0       -5.768510    0.380956   -0.290073
     42          1           0       -4.209132    0.062440    1.185737
     43          1           0       -2.420161    1.221319   -0.881784
     44          1           0       -3.232831    2.719047    1.493993
     45          1           0       -3.816013    2.957991   -0.107298
 ---------------------------------------------------------------------

 SCF Done:  E(RB3LYP) =  -1297.96328259     A.U. after   13 cycles

 The electronic state is 1-A.
 Alpha  occ. eigenvalues --  -19.19884 -19.18958 -19.18194 -19.17953 -19.17931
 Alpha  occ. eigenvalues --  -19.17785 -19.16198 -19.15814 -19.14618 -19.14488
 Alpha  occ. eigenvalues --  -19.12550 -10.31197 -10.29197 -10.27893 -10.26873
 Alpha  occ. eigenvalues --  -10.26733 -10.26484 -10.25563 -10.24682 -10.24522
 Alpha  occ. eigenvalues --  -10.24366 -10.23568 -10.21174  -1.10062  -1.08388
 Alpha  occ. eigenvalues --   -1.07901  -1.05616  -1.04801  -1.04332  -1.04018
 Alpha  occ. eigenvalues --   -1.03207  -1.00317  -0.99580  -0.98630  -0.82861
 Alpha  occ. eigenvalues --   -0.81735  -0.79172  -0.77881  -0.72556  -0.69242
 Alpha  occ. eigenvalues --   -0.67574  -0.65049  -0.63461  -0.62942  -0.61571
 Alpha  occ. eigenvalues --   -0.60177  -0.57653  -0.56132  -0.55523  -0.54628
 Alpha  occ. eigenvalues --   -0.54092  -0.53319  -0.53117  -0.52180  -0.50872
 Alpha  occ. eigenvalues --   -0.50691  -0.49815  -0.49228  -0.47904  -0.46939
 Alpha  occ. eigenvalues --   -0.46431  -0.45991  -0.44464  -0.43925  -0.43618
 Alpha  occ. eigenvalues --   -0.42902  -0.42506  -0.40734  -0.39586  -0.39302
 Alpha  occ. eigenvalues --   -0.39121  -0.38362  -0.38086  -0.37301  -0.36179
 Alpha  occ. eigenvalues --   -0.35760  -0.34745  -0.34190  -0.33741  -0.32863
 Alpha  occ. eigenvalues --   -0.32254  -0.31507  -0.31291  -0.30468  -0.29963
 Alpha  occ. eigenvalues --   -0.29362  -0.28848  -0.28738  -0.27332  -0.26970
 Alpha  occ. eigenvalues --   -0.25423
 Alpha virt. eigenvalues --   -0.04160  -0.02481  -0.00911   0.00374   0.00718
 Alpha virt. eigenvalues --    0.00895   0.01716   0.02344   0.02847   0.03474
 Alpha virt. eigenvalues --    0.03522   0.04234   0.04618   0.05062   0.05547

 Mulliken atomic charges:
              1
     1  O   -0.555991
     2  C   -0.162079
     3  C    0.215934
     4  O   -0.581887
     5  H    0.329901
     6  C    0.018855
     7  O   -0.590681
     8  H    0.365052
     9  C   -0.470345
    10  O   -0.484818
    11  H    0.338380
    12  C    0.338139
    13  O   -0.293576
    14  C    0.271463
    15  O   -0.274769
    16  C    0.230257
    17  C    0.094734
    18  O   -0.534459
    19  H    0.359537
    20  C   -0.026434
    21  O   -0.561470
    22  H    0.356142
    23  C   -0.232852
    24  O   -0.530908
    25  H    0.385647
    26  C   -0.070335
    27  O   -0.217447
    28  C    0.265311
    29  O   -0.484795
    30  H    0.325905
    31  H    0.128425
    32  H    0.133738
    33  H    0.130644
    34  H    0.107462
    35  H    0.114202
    36  H    0.142388
    37  H    0.137393
    38  H    0.142446
    39  H    0.136850
    40  H    0.126272
    41  H    0.332583
    42  H    0.132067
    43  H    0.113060
    44  H    0.137598
    45  H    0.162460
 Sum of Mulliken atomic charges =   0.00000

 Dipole moment (field-independent basis, Debye):
    X=             -8.3702    Y=              2.9105    Z=              1.5778  Tot=              9.0011
 Quadrupole moment (field-independent basis, Debye-Ang):
   XX=           -114.3705   YY=           -146.0756   ZZ=           -139.1056
   XY=            -10.0743   XZ=              5.4158   YZ=              6.9086

  Exact polarizability: 229.423   2.077 199.923   0.097   0.873 144.709
 Approx polarizability: 274.135   0.619 261.084  -0.683  -0.178 240.963

 ******    7 imaginary frequencies (negative Signs) ******

                     1                      2                      3
                     A                      A                      A
 Frequencies --  -313.0850              -310.5894              -252.8730
 Red. masses --     1.6797                 1.1002                 1.6546
 Frc consts  --     0.0970                 0.0625                 0.0623
 IR Inten    --     2.1123               138.3036                 1.2197
 Raman Activ --     0.1240                 1.9509                 0.0648

                     4                      5                      6
                     A                      A                      A
 Frequencies --  -148.8687              -102.9443               -67.3252
 Red. masses --     1.4477                 5.2926                 5.7668
 Frc consts  --     0.0189                 0.0330                 0.0154
 IR Inten    --   113.3803                 1.4189                 0.3775
 Raman Activ --     1.0648                 0.1287                 0.0524

                     7                      8                      9
                     A                      A                      A
 Frequencies --   -28.5536                25.4103                56.1220
 Red. masses --     6.5702                 6.4892                 6.7883
 Frc consts  --     0.0032                 0.0025                 0.0126
 IR Inten    --     1.0981                 0.6635                 2.3402
 Raman Activ --     0.0625                 0.0841                 0.0681

                    10                     11                     12
                     A                      A                      A
 Frequencies --    62.7881                86.6874                93.4251
 Red. masses --     6.2797                 6.2464                 6.8291
 Frc consts  --     0.0146                 0.0277                 0.0351
 IR Inten    --     0.6555                 2.0356                 1.7128
 Raman Activ --     0.0665                 0.0498                 0.1898

                    13                     14                     15
                     A                      A                      A
 Frequencies --   112.5095               150.7523               182.3729
 Red. masses --     6.4938                 6.5385                 6.5512
 Frc consts  --     0.0484                 0.0875                 0.1284
 IR Inten    --     1.6342                 1.0713                 0.7381
 Raman Activ --     0.2739                 0.4611                 0.5562

                    16                     17                     18
                     A                      A                      A
 Frequencies --   198.0687               223.7128               263.2219
 Red. masses --     5.8595                 5.8622                 6.0508
 Frc consts  --     0.1354                 0.1729                 0.2470
 IR Inten    --     2.7864                 1.3593                 1.8898
 Raman Activ --     1.5991                 1.1322                 0.3635

                    19                     20                     21
                     A                      A                      A
 Frequencies --   268.6161               270.4450               288.3764
 Red. masses --     5.0920                 5.3785                 4.8165
 Frc consts  --     0.2165                 0.2318                 0.2360
 IR Inten    --     1.2296                14.8176                 8.2924
 Raman Activ --     0.6343                 0.6689                 0.4568

                    22                     23                     24
                     A                      A                      A
 Frequencies --   308.4676               324.2286               338.3113
 Red. masses --     5.7771                 5.2686                 5.9973
 Frc consts  --     0.3239                 0.3263                 0.4044
 IR Inten    --     4.8211                 1.6644                 0.7843
 Raman Activ --     0.9455                 3.9400                 3.5801

                    25                     26                     27
                     A                      A                      A
 Frequencies --   357.8351               369.0698               375.1471
 Red. masses --     3.8699                 4.0626                 6.1172
 Frc consts  --     0.2920                 0.3260                 0.5072
 IR Inten    --    12.7164                 6.1279                 2.9484
 Raman Activ --     2.8265                 0.6243                 4.0626

                    28                     29                     30
                     A                      A                      A
 Frequencies --   408.7427               426.0739               427.8207
 Red. masses --     4.2262                 7.0047                 5.2666
 Frc consts  --     0.4160                 0.7492                 0.5679
 IR Inten    --     5.3538                 1.4086                20.4351
 Raman Activ --     1.7273                 1.9529                 8.2407

                    31                     32                     33
                     A                      A                      A
 Frequencies --   436.0462               477.3126               489.8236
 Red. masses --     4.4945                 4.0184                 4.1998
 Frc consts  --     0.5035                 0.5394                 0.5937
 IR Inten    --     3.0835                 7.7841                 6.2350
 Raman Activ --     1.0023                 1.2325                 1.7959

                    34                     35                     36
                     A                      A                      A
 Frequencies --   506.8836               550.9773               559.6671
 Red. masses --     3.3681                 4.1488                 3.1972
 Frc consts  --     0.5099                 0.7421                 0.5900
 IR Inten    --     7.0973                22.5761                42.6472
 Raman Activ --     1.5201                 3.1240                 0.5038

                    37                     38                     39
                     A                      A                      A
 Frequencies --   582.4579               594.9861               617.2557
 Red. masses --     3.7439                 3.0824                 4.4346
 Frc consts  --     0.7483                 0.6429                 0.9955
 IR Inten    --     0.6304                70.1528                28.4817
 Raman Activ --     0.8381                 0.1374                 0.6587

                    40                     41                     42
                     A                      A                      A
 Frequencies --   626.6241               642.4778               715.8600
 Red. masses --     3.9396                 1.1179                 2.2598
 Frc consts  --     0.9114                 0.2719                 0.6823
 IR Inten    --     6.6280                86.2786                58.1709
 Raman Activ --     0.4346                 1.1757                 0.9142

                    43                     44                     45
                     A                      A                      A
 Frequencies --   724.4790               727.3896               736.7477
 Red. masses --     1.3966                 1.1684                 1.1098
 Frc consts  --     0.4319                 0.3642                 0.3549
 IR Inten    --    10.5935               166.0525                28.0286
 Raman Activ --     2.4809                 1.6249                 0.6277

                    46                     47                     48
                     A                      A                      A
 Frequencies --   767.0872               799.9204               837.5765
 Red. masses --     1.1627                 1.0993                 2.6675
 Frc consts  --     0.4031                 0.4144                 1.1026
 IR Inten    --   108.9490                71.0441                10.7890
 Raman Activ --     2.1556                 0.8922                 4.3904

                    49                     50                     51
                     A                      A                      A
 Frequencies --   853.2250               916.0402               924.1473
 Red. masses --     1.7236                 6.1689                 5.5075
 Frc consts  --     0.7393                 3.0499                 2.7713
 IR Inten    --    16.7042               222.4563                22.0639
 Raman Activ --     1.0042                 2.4613                 1.0309

                    52                     53                     54
                     A                      A                      A
 Frequencies --   967.4592               974.2072               982.8847
 Red. masses --     5.6255                 4.9850                 5.5113
 Frc consts  --     3.1022                 2.7875                 3.1370
 IR Inten    --   192.5540                28.5726                64.6156
 Raman Activ --     5.4117                 3.8541                 2.1440

                    55                     56                     57
                     A                      A                      A
 Frequencies --   992.3754              1016.6378              1023.8532
 Red. masses --     4.5955                 6.1272                 5.2109
 Frc consts  --     2.6664                 3.7312                 3.2184
 IR Inten    --    87.8731               286.5295                57.6043
 Raman Activ --     3.1123                 2.1496                 3.1093

                    58                     59                     60
                     A                      A                      A
 Frequencies --  1032.9026              1046.7450              1056.9434
 Red. masses --     2.7108                 3.4104                 3.7126
 Frc consts  --     1.7040                 2.2016                 2.4436
 IR Inten    --    50.2638               223.6704               109.9917
 Raman Activ --     1.3247                 4.0134                 1.6748

                    61                     62                     63
                     A                      A                      A
 Frequencies --  1064.9272              1071.4965              1074.9186
 Red. masses --     5.4318                 2.8514                 4.3695
 Frc consts  --     3.6294                 1.9288                 2.9746
 IR Inten    --    62.2618                 3.7201                53.8168
 Raman Activ --     7.1256                 7.9289                 5.1936

                    64                     65                     66
                     A                      A                      A
 Frequencies --  1085.2892              1099.8578              1108.1476
 Red. masses --     3.7011                 3.0889                 2.8349
 Frc consts  --     2.5684                 2.2015                 2.0511
 IR Inten    --    74.7598                16.6737                69.3683
 Raman Activ --    21.4948                 2.7310                 8.1877

                    67                     68                     69
                     A                      A                      A
 Frequencies --  1113.6914              1119.0214              1133.0146
 Red. masses --     3.2789                 2.7397                 2.5483
 Frc consts  --     2.3961                 2.0213                 1.9274
 IR Inten    --    25.4910                25.0207                75.4950
 Raman Activ --     6.7020                 1.8166                 6.0957

                    70                     71                     72
                     A                      A                      A
 Frequencies --  1137.8400              1144.1723              1157.7743
 Red. masses --     2.9205                 2.9766                 1.9371
 Frc consts  --     2.2278                 2.2959                 1.5299
 IR Inten    --    37.8179                42.2985                 5.8680
 Raman Activ --     0.2126                 1.2339                 2.6024

                    73                     74                     75
                     A                      A                      A
 Frequencies --  1167.7382              1171.8139              1184.9145
 Red. masses --     1.6382                 1.9126                 1.6914
 Frc consts  --     1.3161                 1.5474                 1.3992
 IR Inten    --     0.4939                32.0040                13.4665
 Raman Activ --     3.4604                 0.7849                 1.4362

                    76                     77                     78
                     A                      A                      A
 Frequencies --  1195.2656              1200.2714              1209.9708
 Red. masses --     1.2551                 1.3146                 1.5964
 Frc consts  --     1.0565                 1.1158                 1.3770
 IR Inten    --     4.5910                25.7978                 5.0272
 Raman Activ --     4.5221                 2.4645                 2.1477

                    79                     80                     81
                     A                      A                      A
 Frequencies --  1215.6055              1234.1610              1254.4831
 Red. masses --     1.3094                 1.3308                 1.2320
 Frc consts  --     1.1401                 1.1943                 1.1423
 IR Inten    --     3.3256                13.1366                 5.9524
 Raman Activ --     1.9116                 0.7220                 2.2036

                    82                     83                     84
                     A                      A                      A
 Frequencies --  1269.9866              1275.5101              1282.8958
 Red. masses --     1.2946                 1.3620                 1.2725
 Frc consts  --     1.2302                 1.3056                 1.2340
 IR Inten    --    50.8639                 4.6496                 8.0445
 Raman Activ --     0.9853                 5.6608                 2.2001

                    85                     86                     87
                     A                      A                      A
 Frequencies --  1286.9365              1304.7699              1318.0029
 Red. masses --     1.2901                 1.2467                 1.1615
 Frc consts  --     1.2589                 1.2505                 1.1888
 IR Inten    --     6.7031                 2.9293                 3.8860
 Raman Activ --     0.7482                 5.1215                 5.6233

                    88                     89                     90
                     A                      A                      A
 Frequencies --  1323.8684              1331.3572              1335.7638
 Red. masses --     1.3887                 1.2737                 1.2628
 Frc consts  --     1.4340                 1.3302                 1.3276
 IR Inten    --    35.7533                11.1892                14.5500
 Raman Activ --     1.3650                 8.5625                 6.6885

                    91                     92                     93
                     A                      A                      A
 Frequencies --  1341.5242              1342.8061              1361.4525
 Red. masses --     1.3003                 1.3473                 1.2045
 Frc consts  --     1.3788                 1.4314                 1.3154
 IR Inten    --    15.5733                55.5887                 4.8532
 Raman Activ --     1.8963                 1.9116                 2.4072

                    94                     95                     96
                     A                      A                      A
 Frequencies --  1364.4323              1371.2010              1377.9506
 Red. masses --     1.6737                 1.2382                 1.1745
 Frc consts  --     1.8358                 1.3717                 1.3140
 IR Inten    --    25.8959                22.7816                 1.1329
 Raman Activ --     3.1258                 1.3847                 1.1428

                    97                     98                     99
                     A                      A                      A
 Frequencies --  1385.5736              1396.3821              1415.9161
 Red. masses --     1.4476                 1.2647                 1.1671
 Frc consts  --     1.6374                 1.4529                 1.3785
 IR Inten    --    10.3490                 6.5043                18.5473
 Raman Activ --     8.4927                 5.3901                 3.2149

                   100                    101                    102
                     A                      A                      A
 Frequencies --  1419.5244              1436.0107              1447.8114
 Red. masses --     1.8548                 1.5324                 1.4550
 Frc consts  --     2.2020                 1.8618                 1.7969
 IR Inten    --    14.6672                16.1314                60.8138
 Raman Activ --     8.3297                 1.8828                 2.3802

                   103                    104                    105
                     A                      A                      A
 Frequencies --  1455.6974              1462.3552              1467.6549
 Red. masses --     1.0834                 1.0886                 1.1707
 Frc consts  --     1.3527                 1.3716                 1.4858
 IR Inten    --     8.6922                 0.5810                66.1299
 Raman Activ --     4.0796                 4.4960                 4.6904

                   106                    107                    108
                     A                      A                      A
 Frequencies --  1492.1180              1510.9947              3246.1828
 Red. masses --     1.2677                 1.2843                 1.0739
 Frc consts  --     1.6629                 1.7275                 6.6677
 IR Inten    --    40.9973                24.3067                10.8572
 Raman Activ --     2.0302                 1.4960                92.7561

                   109                    110                    111
                     A                      A                      A
 Frequencies --  3255.3286              3257.6306              3269.4642
 Red. masses --     1.0616                 1.0664                 1.0819
 Frc consts  --     6.6284                 6.6677                 6.8136
 IR Inten    --    48.0484                36.2849                 7.2365
 Raman Activ --   124.1732                39.1210               154.7239

                   112                    113                    114
                     A                      A                      A
 Frequencies --  3269.6834              3280.4363              3285.9594
 Red. masses --     1.0817                 1.0836                 1.0840
 Frc consts  --     6.8138                 6.8706                 6.8960
 IR Inten    --     6.1038                34.9753                 2.7363
 Raman Activ --     6.2132                20.9467                17.9379

                   115                    116                    117
                     A                      A                      A
 Frequencies --  3286.8626              3290.7745              3295.6234
 Red. masses --     1.0840                 1.0859                 1.0865
 Frc consts  --     6.8998                 6.9287                 6.9530
 IR Inten    --     5.3087                 6.7934                 1.0695
 Raman Activ --   209.7287                 5.4142                46.5268

                   118                    119                    120
                     A                      A                      A
 Frequencies --  3301.6984              3305.0913              3306.0038
 Red. masses --     1.0948                 1.0890                 1.0931
 Frc consts  --     7.0317                 7.0086                 7.0388
 IR Inten    --    12.5616                20.3986               111.0099
 Raman Activ --    18.8489                17.2190                53.9684

                   121                    122                    123
                     A                      A                      A
 Frequencies --  3315.2265              3343.7525              3367.5965
 Red. masses --     1.1007                 1.0693                 1.0645
 Frc consts  --     7.1279                 7.0439                 7.1125
 IR Inten    --   120.8574               314.7924                37.5722
 Raman Activ --   118.3108                98.5704                98.6237

                   124                    125                    126
                     A                      A                      A
 Frequencies --  3372.9610              3381.5574              3381.9074
 Red. masses --     1.0657                 1.0656                 1.0663
 Frc consts  --     7.1436                 7.1790                 7.1857
 IR Inten    --    58.7323                77.9820                40.9487
 Raman Activ --   133.6427                80.2227                84.1368

                   127                    128                    129
                     A                      A                      A
 Frequencies --  3383.9097              3882.8599              3888.5545
 Red. masses --     1.0672                 1.0675                 1.0668
 Frc consts  --     7.2002                 9.4828                 9.5038
 IR Inten    --    92.4187                62.9238                68.6505
 Raman Activ --   138.0498               107.0794               118.0278

 - Thermochemistry -
 -------------------
 Temperature   298.150 Kelvin.  Pressure   1.00000 Atm.
 Atom     1 has atomic number  8 and mass  15.99491

 Molecular mass:   342.11621 amu.
 Principal axes and moments of inertia in atomic units:
                           1         2         3
     Eigenvalues --  4666.14915********************
           X            0.99996  -0.00885   0.00099
           Y            0.00884   0.99995   0.00487
           Z           -0.00103  -0.00486   0.99999
 This molecule is an asymmetric top.
 Rotational symmetry number  1.
 Warning -- assumption of classical behavior for rotation
           may cause significant error
 Rotational temperatures (Kelvin)      0.01856     0.00746     0.00554
 Rotational constants (GHZ):           0.38677     0.15549     0.11536
    7 imaginary frequencies ignored.
 Zero-point vibrational energy     973109.1 (Joules/Mol)
                                  232.57865 (Kcal/Mol)
 Warning -- explicit consideration of  32 degrees of freedom as
           vibrations may cause significant error
 Vibrational temperatures:     36.56    80.75    90.34   124.72   134.42
          (Kelvin)            161.88   216.90   262.39   284.98   321.87
                              378.72   386.48   389.11   414.91   443.82
                              466.49   486.75   514.84   531.01   539.75
                              588.09   613.02   615.54   627.37   686.75
                              704.75   729.29   792.73   805.24   838.03
                              856.05   888.09   901.57   924.38  1029.96
                             1042.36  1046.55  1060.01  1103.67  1150.91
                             1205.08  1227.60  1317.98  1329.64  1391.96
                             1401.67  1414.15  1427.81  1462.71  1473.09
                             1486.11  1506.03  1520.70  1532.19  1541.64
                             1546.57  1561.49  1582.45  1594.38  1602.35
                             1610.02  1630.15  1637.10  1646.21  1665.78
                             1680.11  1685.98  1704.83  1719.72  1726.92
                             1740.88  1748.98  1775.68  1804.92  1827.23
                             1835.17  1845.80  1851.61  1877.27  1896.31
                             1904.75  1915.52  1921.86  1930.15  1932.00
                             1958.82  1963.11  1972.85  1982.56  1993.53
                             2009.08  2037.18  2042.38  2066.10  2083.08
                             2094.42  2104.00  2111.63  2146.82  2173.98
                             4670.53  4683.69  4687.00  4704.02  4704.34
                             4719.81  4727.76  4729.06  4734.68  4741.66
                             4750.40  4755.28  4756.60  4769.87  4810.91
                             4845.21  4852.93  4865.30  4865.80  4868.69
                             5586.56  5594.76

 Zero-point correction=                           0.370638 (Hartree/Particle)
 Thermal correction to Energy=                    0.389320
 Thermal correction to Enthalpy=                  0.390264
 Thermal correction to Gibbs Free Energy=         0.323734
 Sum of electronic and zero-point Energies=          -1297.592645
 Sum of electronic and thermal Energies=             -1297.573963
 Sum of electronic and thermal Enthalpies=           -1297.573019
 Sum of electronic and thermal Free Energies=        -1297.639549

                     E (Thermal)             CV                S
                      KCal/Mol        Cal/Mol-Kelvin    Cal/Mol-Kelvin
 Total                  244.302             76.359            140.024
 Electronic               0.000              0.000              0.000
 Translational            0.889              2.981             43.384
 Rotational               0.889              2.981             35.093
 Vibrational            242.524             70.397             61.547
 Vibration     1          0.593              1.985              6.159
 Vibration     2          0.596              1.975              4.589
 Vibration     3          0.597              1.972              4.368
 Vibration     4          0.601              1.958              3.733
 Vibration     5          0.602              1.954              3.587
 Vibration     6          0.607              1.939              3.225
 Vibration     7          0.618              1.902              2.663
 Vibration     8          0.630              1.864              2.304
 Vibration     9          0.637              1.843              2.151
 Vibration    10          0.649              1.805              1.929
 Vibration    11          0.670              1.740              1.640
 Vibration    12          0.673              1.731              1.605
 Vibration    13          0.674              1.728              1.593
 Vibration    14          0.685              1.695              1.483
 Vibration    15          0.698              1.658              1.371
 Vibration    16          0.709              1.627              1.289
 Vibration    17          0.719              1.599              1.220
 Vibration    18          0.733              1.559              1.131
 Vibration    19          0.741              1.536              1.084
 Vibration    20          0.746              1.523              1.059
 Vibration    21          0.773              1.451              0.931
 Vibration    22          0.788              1.414              0.872
 Vibration    23          0.789              1.410              0.866
 Vibration    24          0.796              1.392              0.839
 Vibration    25          0.834              1.300              0.717
 Vibration    26          0.846              1.273              0.684
 Vibration    27          0.862              1.235              0.641
 Vibration    28          0.906              1.138              0.542
 Vibration    29          0.915              1.119              0.524
 Vibration    30          0.939              1.069              0.481
 Vibration    31          0.953              1.042              0.458
 Vibration    32          0.977              0.995              0.421

 Normal termination of Gaussian 09 at Mon Apr  4 21:32:07 2016.
