 Gaussian 09, Revision B.01,
 Gaussian 09:  EM64L-G09RevB.01 12-Aug-2010

 -------------------------------------------------
 # freq=raman b3lyp/6-31+g(2d,p) geom=connectivity
 -------------------------------------------------

 -----------------
 300 8359/8359.com
 -----------------
 Symbolic Z-matrix:
 Charge =  0 Multiplicity = 1

                         Standard orientation:
 ---------------------------------------------------------------------
 Center     Atomic      Atomic             Coordinates (Angstroms)
 Number     Number       Type             X           Y           Z
 ---------------------------------------------------------------------
      1          8           0        5.048863   -0.447224   -0.349050
      2          6           0        3.805642   -0.098156    0.277577
      3          6           0        3.222872    1.183239   -0.296615
      4          8           0        4.104792    2.295064   -0.088994
      5          1           0        5.060833    2.031956   -0.217156
      6          6           0        1.823996    1.612127    0.115707
      7          8           0        1.358688    2.834544   -0.474060
      8          1           0        0.475349    3.034012   -0.048635
      9          6           0        3.017218   -2.500696    0.366230
     10          8           0        4.140497   -3.223315   -0.157041
     11          1           0        4.032228   -4.190543    0.072204
     12          6           0        2.732518   -1.093458   -0.132809
     13          8           0        1.463051   -0.681886    0.394932
     14          6           0        0.872340    0.474653   -0.215287
     15          8           0       -0.333343    0.628016    0.546652
     16          6           0       -1.567930    0.210333   -0.054061
     17          6           0       -1.873581   -1.241030    0.276796
     18          8           0       -0.895169   -2.186460   -0.177672
     19          1           0       -0.044815   -1.923527    0.278037
     20          6           0       -3.261411   -1.506189   -0.282988
     21          8           0       -3.815611   -2.802802   -0.011878
     22          1           0       -4.730008   -2.906599   -0.403063
     23          6           0       -2.472610    2.617300    0.012197
     24          8           0       -1.186113    3.209768    0.241679
     25          1           0       -1.302957    4.162817    0.519201
     26          6           0       -2.657990    1.162961    0.411400
     27          8           0       -3.942328    0.856192   -0.150093
     28          6           0       -4.301025   -0.494727    0.171718
     29          8           0       -5.552183   -0.632591   -0.517495
     30          1           0        5.700498   -0.652728    0.325294
     31          1           0        2.143867   -3.088635    0.175216
     32          1           0        3.142750   -2.442551    1.427249
     33          1           0        2.671780   -1.112801   -1.200909
     34          1           0        3.900721   -0.042940    1.341913
     35          1           0        3.180161    1.031648   -1.354961
     36          1           0        1.822691    1.742307    1.177758
     37          1           0        0.699450    0.354104   -1.264323
     38          1           0       -6.261968   -0.722225    0.122639
     39          1           0       -3.198090    3.196600    0.544165
     40          1           0       -2.687460    2.698635   -1.032850
     41          1           0       -2.727390    1.106631    1.477660
     42          1           0       -1.473377    0.300034   -1.116094
     43          1           0       -1.931326   -1.325300    1.341908
     44          1           0       -3.184863   -1.417871   -1.346586
     45          1           0       -4.457475   -0.585618    1.226309
 ---------------------------------------------------------------------

 SCF Done:  E(RB3LYP) =  -1297.99207618     A.U. after   13 cycles

 The electronic state is 1-A.
 Alpha  occ. eigenvalues --  -19.18443 -19.18150 -19.17848 -19.17831 -19.17446
 Alpha  occ. eigenvalues --  -19.17001 -19.16122 -19.15766 -19.15081 -19.14122
 Alpha  occ. eigenvalues --  -19.12891 -10.30610 -10.30030 -10.26002 -10.25555
 Alpha  occ. eigenvalues --  -10.25295 -10.25094 -10.25046 -10.24997 -10.24952
 Alpha  occ. eigenvalues --  -10.23907 -10.23706 -10.23664  -1.09775  -1.09257
 Alpha  occ. eigenvalues --   -1.05383  -1.04966  -1.03640  -1.03368  -1.02605
 Alpha  occ. eigenvalues --   -1.02346  -1.01367  -1.01172  -0.99417  -0.82375
 Alpha  occ. eigenvalues --   -0.80141  -0.79588  -0.78125  -0.71692  -0.69810
 Alpha  occ. eigenvalues --   -0.67403  -0.64663  -0.63291  -0.61940  -0.61348
 Alpha  occ. eigenvalues --   -0.60269  -0.56366  -0.55594  -0.55374  -0.54529
 Alpha  occ. eigenvalues --   -0.53570  -0.53396  -0.52905  -0.52435  -0.51044
 Alpha  occ. eigenvalues --   -0.50274  -0.49561  -0.49010  -0.48595  -0.46383
 Alpha  occ. eigenvalues --   -0.45798  -0.45135  -0.44480  -0.43562  -0.43378
 Alpha  occ. eigenvalues --   -0.42542  -0.41620  -0.41169  -0.40442  -0.39483
 Alpha  occ. eigenvalues --   -0.38105  -0.37652  -0.37505  -0.36439  -0.35891
 Alpha  occ. eigenvalues --   -0.35330  -0.34505  -0.33993  -0.33800  -0.33229
 Alpha  occ. eigenvalues --   -0.33001  -0.31328  -0.30804  -0.30154  -0.30069
 Alpha  occ. eigenvalues --   -0.28959  -0.28573  -0.28324  -0.27097  -0.26470
 Alpha  occ. eigenvalues --   -0.25837
 Alpha virt. eigenvalues --   -0.02000  -0.01820  -0.01767  -0.00075   0.00262
 Alpha virt. eigenvalues --    0.01109   0.02022   0.02222   0.03052   0.03361
 Alpha virt. eigenvalues --    0.03633   0.04126   0.05075   0.05471   0.05539

 Mulliken atomic charges:
              1
     1  O   -0.530549
     2  C   -0.091340
     3  C    0.330539
     4  O   -0.579447
     5  H    0.339892
     6  C   -0.149879
     7  O   -0.576183
     8  H    0.410119
     9  C   -0.232880
    10  O   -0.526940
    11  H    0.338580
    12  C    0.152705
    13  O   -0.238120
    14  C    0.243865
    15  O   -0.216605
    16  C    0.240813
    17  C    0.095176
    18  O   -0.522187
    19  H    0.364396
    20  C    0.022692
    21  O   -0.553969
    22  H    0.346339
    23  C   -0.266091
    24  O   -0.564032
    25  H    0.357950
    26  C   -0.033863
    27  O   -0.226768
    28  C    0.137474
    29  O   -0.546159
    30  H    0.338525
    31  H    0.138492
    32  H    0.135564
    33  H    0.119530
    34  H    0.122829
    35  H    0.111753
    36  H    0.125270
    37  H    0.138219
    38  H    0.336640
    39  H    0.145082
    40  H    0.160975
    41  H    0.117444
    42  H    0.112226
    43  H    0.117969
    44  H    0.128931
    45  H    0.125021
 Sum of Mulliken atomic charges =   0.00000

 Dipole moment (field-independent basis, Debye):
    X=             -2.5408    Y=             -0.1745    Z=              3.7495  Tot=              4.5326
 Quadrupole moment (field-independent basis, Debye-Ang):
   XX=           -117.8029   YY=           -138.1642   ZZ=           -137.3638
   XY=            -16.5082   XZ=              1.3662   YZ=              1.4930

  Exact polarizability: 235.612   0.217 197.175   0.643   0.010 143.364
 Approx polarizability: 276.731  -1.524 256.356   1.558   0.662 239.400

 ******    6 imaginary frequencies (negative Signs) ******

                     1                      2                      3
                     A                      A                      A
 Frequencies --  -296.9181              -257.6394              -243.4076
 Red. masses --     1.5549                 1.2519                 1.8290
 Frc consts  --     0.0808                 0.0490                 0.0638
 IR Inten    --    37.1341                67.6915                 1.0719
 Raman Activ --     0.2478                 0.8085                 0.0552

                     4                      5                      6
                     A                      A                      A
 Frequencies --  -174.0568               -75.5959               -55.1798
 Red. masses --     1.1920                 6.8083                 6.6682
 Frc consts  --     0.0213                 0.0229                 0.0120
 IR Inten    --    97.4114                 0.7613                 0.9688
 Raman Activ --     0.8551                 0.0272                 0.0124

                     7                      8                      9
                     A                      A                      A
 Frequencies --    15.6981                53.2174                78.5179
 Red. masses --     6.3675                 6.3958                 6.2249
 Frc consts  --     0.0009                 0.0107                 0.0226
 IR Inten    --     0.6247                 0.7687                 2.5623
 Raman Activ --     0.0154                 0.0351                 0.1931

                    10                     11                     12
                     A                      A                      A
 Frequencies --    83.4741               104.1164               121.6011
 Red. masses --     6.7267                 6.4927                 6.0926
 Frc consts  --     0.0276                 0.0415                 0.0531
 IR Inten    --     0.4889                 0.7406                 2.8892
 Raman Activ --     0.1450                 0.1143                 0.0608

                    13                     14                     15
                     A                      A                      A
 Frequencies --   161.7423               178.5816               192.5733
 Red. masses --     6.3944                 6.1388                 6.6337
 Frc consts  --     0.0986                 0.1153                 0.1449
 IR Inten    --     1.0556                 3.5390                 0.1727
 Raman Activ --     0.5562                 0.3999                 0.3599

                    16                     17                     18
                     A                      A                      A
 Frequencies --   208.5799               238.9198               276.1525
 Red. masses --     7.4183                 6.0480                 4.7404
 Frc consts  --     0.1902                 0.2034                 0.2130
 IR Inten    --     0.0367                 0.3955                 0.4447
 Raman Activ --     2.4327                 0.3032                 0.0894

                    19                     20                     21
                     A                      A                      A
 Frequencies --   281.6821               289.7078               299.7461
 Red. masses --     4.9486                 4.9424                 4.3605
 Frc consts  --     0.2313                 0.2444                 0.2308
 IR Inten    --    13.1926                 8.8422                 4.1721
 Raman Activ --     0.3196                 0.5636                 0.1164

                    22                     23                     24
                     A                      A                      A
 Frequencies --   312.1694               318.2268               323.8822
 Red. masses --     5.4459                 6.2713                 5.7401
 Frc consts  --     0.3127                 0.3742                 0.3548
 IR Inten    --     4.8072                 2.5534                 4.0765
 Raman Activ --     0.1395                 4.5274                 1.7681

                    25                     26                     27
                     A                      A                      A
 Frequencies --   347.4091               357.2781               380.0298
 Red. masses --     6.3384                 4.2776                 7.4761
 Frc consts  --     0.4507                 0.3217                 0.6361
 IR Inten    --    13.2737                 3.3720                 3.2060
 Raman Activ --     3.3359                 0.4160                 2.0307

                    28                     29                     30
                     A                      A                      A
 Frequencies --   400.3241               420.8798               423.1824
 Red. masses --     5.4983                 6.6345                 4.3395
 Frc consts  --     0.5192                 0.6924                 0.4579
 IR Inten    --    15.1953                 2.1960                 9.1526
 Raman Activ --     2.6101                 0.5523                 9.0084

                    31                     32                     33
                     A                      A                      A
 Frequencies --   435.2919               486.4538               490.8567
 Red. masses --     4.6531                 4.0596                 4.4354
 Frc consts  --     0.5195                 0.5660                 0.6296
 IR Inten    --     2.2476                18.2206                 5.0572
 Raman Activ --     2.6408                 0.4002                 0.5080

                    34                     35                     36
                     A                      A                      A
 Frequencies --   501.9691               524.7703               562.8422
 Red. masses --     3.9541                 3.1540                 3.3057
 Frc consts  --     0.5870                 0.5117                 0.6170
 IR Inten    --     3.5384                11.7216                 6.9138
 Raman Activ --     6.1032                 2.6578                 0.9649

                    37                     38                     39
                     A                      A                      A
 Frequencies --   583.3365               603.5666               624.9299
 Red. masses --     3.0375                 6.7774                 4.0083
 Frc consts  --     0.6090                 1.4547                 0.9223
 IR Inten    --    53.3562                 4.5094                 9.8919
 Raman Activ --     0.4282                 0.5450                 0.3373

                    40                     41                     42
                     A                      A                      A
 Frequencies --   629.6622               674.8508               692.0391
 Red. masses --     6.2240                 1.1596                 3.6480
 Frc consts  --     1.4539                 0.3112                 1.0294
 IR Inten    --    37.5341                67.6754                44.7376
 Raman Activ --     1.3396                 1.3752                 0.6130

                    43                     44                     45
                     A                      A                      A
 Frequencies --   698.7748               724.7725               733.7317
 Red. masses --     1.1052                 1.0607                 1.0537
 Frc consts  --     0.3180                 0.3283                 0.3342
 IR Inten    --    83.4792                95.3039               102.3483
 Raman Activ --     2.0513                 2.0709                 1.8360

                    46                     47                     48
                     A                      A                      A
 Frequencies --   785.6823               792.6938               853.4835
 Red. masses --     1.0971                 1.0845                 1.7617
 Frc consts  --     0.3990                 0.4015                 0.7561
 IR Inten    --   145.5278                95.6900                 1.2420
 Raman Activ --     2.4600                 1.9050                 1.0079

                    49                     50                     51
                     A                      A                      A
 Frequencies --   862.7183               913.1101               956.5737
 Red. masses --     1.6949                 5.9755                 6.3470
 Frc consts  --     0.7432                 2.9354                 3.4218
 IR Inten    --     1.0511               114.5429                77.2748
 Raman Activ --     0.8046                 2.8144                 1.5951

                    52                     53                     54
                     A                      A                      A
 Frequencies --   973.6052               978.8824               980.8023
 Red. masses --     4.7923                 4.3985                 6.7093
 Frc consts  --     2.6764                 2.4832                 3.8027
 IR Inten    --    66.6383                22.9527               147.9768
 Raman Activ --     1.2354                 0.9300                 1.5894

                    55                     56                     57
                     A                      A                      A
 Frequencies --   997.9586              1009.2682              1023.1058
 Red. masses --     6.2677                 6.2066                 5.7778
 Frc consts  --     3.6778                 3.7249                 3.5633
 IR Inten    --   352.7277                11.4404               144.4766
 Raman Activ --     3.8254                 1.1890                 1.8054

                    58                     59                     60
                     A                      A                      A
 Frequencies --  1036.2655              1057.4135              1063.2868
 Red. masses --     6.0089                 5.1693                 4.1079
 Frc consts  --     3.8018                 3.4054                 2.7363
 IR Inten    --   344.2631                64.8980                96.1666
 Raman Activ --     1.7343                 6.9393                 6.3457

                    61                     62                     63
                     A                      A                      A
 Frequencies --  1066.2055              1076.2541              1077.9452
 Red. masses --     4.1602                 3.9534                 4.7769
 Frc consts  --     2.7864                 2.6980                 3.2703
 IR Inten    --    57.1086                15.2063                66.1307
 Raman Activ --     3.1669                 6.4323                22.7422

                    64                     65                     66
                     A                      A                      A
 Frequencies --  1096.4901              1099.5354              1109.4544
 Red. masses --     2.9142                 2.5142                 2.6372
 Frc consts  --     2.0643                 1.7909                 1.9126
 IR Inten    --    24.4304                10.1543                73.9296
 Raman Activ --     7.6491                 3.9796                 5.2449

                    67                     68                     69
                     A                      A                      A
 Frequencies --  1114.4871              1117.4985              1133.6575
 Red. masses --     2.5635                 2.0515                 2.6682
 Frc consts  --     1.8760                 1.5095                 2.0204
 IR Inten    --    61.7286                39.9679                15.9476
 Raman Activ --     2.5063                13.9347                 2.1227

                    70                     71                     72
                     A                      A                      A
 Frequencies --  1137.7482              1145.4657              1157.1206
 Red. masses --     2.8245                 2.8939                 2.3494
 Frc consts  --     2.1542                 2.2372                 1.8534
 IR Inten    --    82.4206                39.9794                 2.7119
 Raman Activ --     3.0236                 4.8860                 8.4431

                    73                     74                     75
                     A                      A                      A
 Frequencies --  1163.7468              1173.3879              1181.1203
 Red. masses --     1.5679                 1.6421                 1.8173
 Frc consts  --     1.2511                 1.3321                 1.4937
 IR Inten    --     3.6671                 2.7735                26.2048
 Raman Activ --     0.6805                 2.1846                 2.3765

                    76                     77                     78
                     A                      A                      A
 Frequencies --  1196.9995              1217.4264              1221.2957
 Red. masses --     1.3795                 1.3189                 1.3771
 Frc consts  --     1.1646                 1.1517                 1.2102
 IR Inten    --    15.0651                 8.6024                10.0156
 Raman Activ --     0.5034                 1.2783                 1.8590

                    79                     80                     81
                     A                      A                      A
 Frequencies --  1230.2367              1235.7793              1255.9564
 Red. masses --     1.2088                 1.2289                 1.3614
 Frc consts  --     1.0779                 1.1057                 1.2653
 IR Inten    --     1.6541                 6.1162                 5.9142
 Raman Activ --     2.0822                 1.9300                 1.5626

                    82                     83                     84
                     A                      A                      A
 Frequencies --  1269.2127              1284.6416              1289.1397
 Red. masses --     1.1563                 1.2987                 1.3316
 Frc consts  --     1.0975                 1.2628                 1.3038
 IR Inten    --    10.3591                 0.6690                34.6200
 Raman Activ --     4.3637                 3.4576                 1.9099

                    85                     86                     87
                     A                      A                      A
 Frequencies --  1293.9573              1298.6295              1303.7679
 Red. masses --     1.2455                 1.2251                 1.2475
 Frc consts  --     1.2287                 1.2173                 1.2494
 IR Inten    --    11.7848                 4.3707                18.2428
 Raman Activ --     1.0455                 1.3140                 5.2504

                    88                     89                     90
                     A                      A                      A
 Frequencies --  1310.9452              1327.1356              1330.7432
 Red. masses --     1.3297                 1.2903                 1.1455
 Frc consts  --     1.3464                 1.3390                 1.1951
 IR Inten    --    20.8475                20.6034                32.4341
 Raman Activ --     8.9780                 4.9220                12.5242

                    91                     92                     93
                     A                      A                      A
 Frequencies --  1339.8066              1344.2637              1351.8498
 Red. masses --     1.1826                 1.2939                 1.3000
 Frc consts  --     1.2507                 1.3776                 1.3998
 IR Inten    --    33.2673                48.3944                16.3155
 Raman Activ --     0.9947                 4.8019                 2.4273

                    94                     95                     96
                     A                      A                      A
 Frequencies --  1359.2639              1361.8859              1365.6830
 Red. masses --     1.2032                 1.4588                 1.4441
 Frc consts  --     1.3097                 1.5941                 1.5869
 IR Inten    --    55.0432                12.1507                 4.9602
 Raman Activ --     0.8810                10.6924                 4.6064

                    97                     98                     99
                     A                      A                      A
 Frequencies --  1381.3311              1387.7594              1389.5548
 Red. masses --     1.3803                 1.4980                 1.5054
 Frc consts  --     1.5517                 1.6998                 1.7126
 IR Inten    --     1.6911                 9.4094                 3.2109
 Raman Activ --     1.7338                 6.0692                 4.0205

                   100                    101                    102
                     A                      A                      A
 Frequencies --  1419.8565              1421.6673              1465.7267
 Red. masses --     1.5541                 1.5412                 1.2835
 Frc consts  --     1.8459                 1.8352                 1.6246
 IR Inten    --    45.9452                14.8132                23.5095
 Raman Activ --     0.5988                 1.9372                 3.1213

                   103                    104                    105
                     A                      A                      A
 Frequencies --  1466.7466              1472.8992              1474.3753
 Red. masses --     1.2957                 1.1249                 1.1608
 Frc consts  --     1.6423                 1.4378                 1.4867
 IR Inten    --    22.2517                 2.8231                 7.4045
 Raman Activ --     2.7672                 3.6901                 1.8786

                   106                    107                    108
                     A                      A                      A
 Frequencies --  1508.2575              1518.0394              3252.1224
 Red. masses --     1.2731                 1.2429                 1.0577
 Frc consts  --     1.7063                 1.6876                 6.5909
 IR Inten    --    26.1143                33.6688                36.2512
 Raman Activ --     2.1646                 1.0433                80.7971

                   109                    110                    111
                     A                      A                      A
 Frequencies --  3259.5181              3263.7857              3268.0157
 Red. masses --     1.0797                 1.0598                 1.0818
 Frc consts  --     6.7585                 6.6512                 6.8071
 IR Inten    --    28.7331               180.3650                 5.0696
 Raman Activ --    77.9627                49.5872                32.7736

                   112                    113                    114
                     A                      A                      A
 Frequencies --  3270.0836              3275.1962              3279.6638
 Red. masses --     1.0814                 1.0830                 1.0725
 Frc consts  --     6.8131                 6.8446                 6.7967
 IR Inten    --    11.4748                 9.4183               365.0088
 Raman Activ --    96.0014               104.0861               272.2384

                   115                    116                    117
                     A                      A                      A
 Frequencies --  3281.7635              3283.7056              3286.3888
 Red. masses --     1.0831                 1.0854                 1.0798
 Frc consts  --     6.8725                 6.8956                 6.8709
 IR Inten    --     7.2056                 9.3968               154.5679
 Raman Activ --    84.0548                36.5413                54.4546

                   118                    119                    120
                     A                      A                      A
 Frequencies --  3296.8253              3298.1706              3303.3162
 Red. masses --     1.0879                 1.0909                 1.0889
 Frc consts  --     6.9667                 6.9917                 7.0006
 IR Inten    --    66.7466                 5.2355                85.8591
 Raman Activ --    21.6711                24.3233                25.8544

                   121                    122                    123
                     A                      A                      A
 Frequencies --  3308.4985              3317.0193              3322.8783
 Red. masses --     1.0964                 1.0692                 1.1064
 Frc consts  --     7.0707                 6.9311                 7.1974
 IR Inten    --    82.6102               485.8989                47.3651
 Raman Activ --    12.9133               140.5233                41.3578

                   124                    125                    126
                     A                      A                      A
 Frequencies --  3367.6587              3368.4789              3370.2108
 Red. masses --     1.0661                 1.0674                 1.0662
 Frc consts  --     7.1239                 7.1355                 7.1349
 IR Inten    --    29.5273                48.3178                53.3962
 Raman Activ --   105.5075               182.0260               136.1805

                   127                    128                    129
                     A                      A                      A
 Frequencies --  3376.3957              3891.0124              3892.4978
 Red. masses --     1.0682                 1.0675                 1.0675
 Frc consts  --     7.1749                 9.5222                 9.5300
 IR Inten    --    49.6887                84.6869                75.1678
 Raman Activ --   146.9264               107.8270               103.8042

 - Thermochemistry -
 -------------------
 Temperature   298.150 Kelvin.  Pressure   1.00000 Atm.
 Atom     1 has atomic number  8 and mass  15.99491

 Molecular mass:   342.11621 amu.
 Principal axes and moments of inertia in atomic units:
                           1         2         3
     Eigenvalues --  4370.07037********************
           X            0.99997  -0.00797   0.00007
           Y            0.00797   0.99997  -0.00112
           Z           -0.00006   0.00112   1.00000
 This molecule is an asymmetric top.
 Rotational symmetry number  1.
 Warning -- assumption of classical behavior for rotation
           may cause significant error
 Rotational temperatures (Kelvin)      0.01982     0.00702     0.00530
 Rotational constants (GHZ):           0.41298     0.14635     0.11038
    6 imaginary frequencies ignored.
 Zero-point vibrational energy     974349.7 (Joules/Mol)
                                  232.87516 (Kcal/Mol)
 Warning -- explicit consideration of  32 degrees of freedom as
           vibrations may cause significant error
 Vibrational temperatures:     22.59    76.57   112.97   120.10   149.80
          (Kelvin)            174.96   232.71   256.94   277.07   300.10
                              343.75   397.32   405.28   416.82   431.27
                              449.14   457.86   465.99   499.84   514.04
                              546.78   575.98   605.55   608.86   626.29
                              699.90   706.23   722.22   755.03   809.80
                              839.29   868.40   899.13   905.94   970.96
                              995.69  1005.38  1042.78  1055.67  1130.42
                             1140.51  1227.97  1241.26  1313.76  1376.29
                             1400.80  1408.39  1411.15  1435.84  1452.11
                             1472.02  1490.95  1521.38  1529.83  1534.03
                             1548.49  1550.92  1577.60  1581.98  1596.26
                             1603.50  1607.83  1631.08  1636.96  1648.07
                             1664.84  1674.37  1688.24  1699.37  1722.21
                             1751.60  1757.17  1770.03  1778.01  1807.04
                             1826.11  1848.31  1854.78  1861.71  1868.44
                             1875.83  1886.16  1909.45  1914.64  1927.68
                             1934.09  1945.01  1955.68  1959.45  1964.91
                             1987.42  1996.67  1999.26  2042.85  2045.46
                             2108.85  2110.32  2119.17  2121.29  2170.04
                             2184.12  4679.07  4689.71  4695.85  4701.94
                             4704.92  4712.27  4718.70  4721.72  4724.51
                             4728.37  4743.39  4745.33  4752.73  4760.19
                             4772.44  4780.87  4845.30  4846.48  4848.98
                             4857.87  5598.29  5600.43

 Zero-point correction=                           0.371110 (Hartree/Particle)
 Thermal correction to Energy=                    0.390246
 Thermal correction to Enthalpy=                  0.391190
 Thermal correction to Gibbs Free Energy=         0.323658
 Sum of electronic and zero-point Energies=          -1297.620966
 Sum of electronic and thermal Energies=             -1297.601831
 Sum of electronic and thermal Enthalpies=           -1297.600886
 Sum of electronic and thermal Free Energies=        -1297.668418

                     E (Thermal)             CV                S
                      KCal/Mol        Cal/Mol-Kelvin    Cal/Mol-Kelvin
 Total                  244.883             78.042            142.132
 Electronic               0.000              0.000              0.000
 Translational            0.889              2.981             43.384
 Rotational               0.889              2.981             35.131
 Vibrational            243.105             72.081             63.616
 Vibration     1          0.593              1.986              7.115
 Vibration     2          0.596              1.976              4.694
 Vibration     3          0.600              1.964              3.928
 Vibration     4          0.600              1.961              3.807
 Vibration     5          0.605              1.946              3.376
 Vibration     6          0.609              1.931              3.075
 Vibration     7          0.622              1.889              2.529
 Vibration     8          0.629              1.869              2.343
 Vibration     9          0.635              1.850              2.203
 Vibration    10          0.642              1.828              2.056
 Vibration    11          0.657              1.781              1.811
 Vibration    12          0.678              1.718              1.557
 Vibration    13          0.681              1.708              1.523
 Vibration    14          0.686              1.693              1.476
 Vibration    15          0.692              1.674              1.418
 Vibration    16          0.701              1.650              1.351
 Vibration    17          0.705              1.639              1.319
 Vibration    18          0.708              1.628              1.290
 Vibration    19          0.725              1.581              1.178
 Vibration    20          0.732              1.560              1.134
 Vibration    21          0.750              1.513              1.039
 Vibration    22          0.766              1.469              0.961
 Vibration    23          0.783              1.425              0.889
 Vibration    24          0.785              1.420              0.881
 Vibration    25          0.796              1.393              0.842
 Vibration    26          0.842              1.280              0.693
 Vibration    27          0.847              1.270              0.681
 Vibration    28          0.857              1.246              0.653
 Vibration    29          0.880              1.195              0.599
 Vibration    30          0.919              1.112              0.518
 Vibration    31          0.940              1.067              0.479
 Vibration    32          0.962              1.024              0.444

 Normal termination of Gaussian 09 at Wed Mar 23 07:20:21 2016.
