 Gaussian 09, Revision B.01,
 Gaussian 09:  EM64L-G09RevB.01 12-Aug-2010

 ------------------------------------------------
 # freq=raman b3lyp/6-31+g(d,p) geom=connectivity
 ------------------------------------------------

 ------------
 280 7000.com
 ------------
 Symbolic Z-matrix:
 Charge =  0 Multiplicity = 1

                         Standard orientation:
 ---------------------------------------------------------------------
 Center     Atomic      Atomic             Coordinates (Angstroms)
 Number     Number       Type             X           Y           Z
 ---------------------------------------------------------------------
      1          8           0       -4.959780   -0.431873    0.609248
      2          6           0       -3.806741   -0.126925   -0.189239
      3          6           0       -3.289942    1.220595    0.288311
      4          8           0       -4.252717    2.262368    0.073858
      5          1           0       -5.075331    1.804466    0.412368
      6          6           0       -1.924816    1.546479   -0.296274
      7          8           0       -1.427957    2.821134    0.134435
      8          1           0       -0.481293    2.839731   -0.187462
      9          6           0       -2.999704   -2.578472   -0.324492
     10          8           0       -4.081024   -3.287366    0.298046
     11          1           0       -3.950403   -4.278636    0.275459
     12          6           0       -2.761065   -1.164834    0.182605
     13          8           0       -1.505456   -0.803051   -0.409622
     14          6           0       -0.951132    0.434479    0.059028
     15          8           0        0.287387    0.559017   -0.653743
     16          6           0        1.482686    0.181685    0.044706
     17          6           0        2.052855   -1.169747   -0.355448
     18          8           0        1.041216   -2.150347   -0.081165
     19          1           0        0.272426   -1.877068   -0.658589
     20          6           0        3.397737   -1.510945    0.263872
     21          8           0        4.068879   -2.589414   -0.403394
     22          1           0        4.945107   -2.766779    0.044591
     23          6           0        2.319355    2.602073    0.202632
     24          8           0        1.190369    3.310113   -0.329538
     25          1           0        1.475360    4.268044   -0.331850
     26          6           0        2.544946    1.199799   -0.337961
     27          8           0        3.795209    0.888266    0.293445
     28          6           0        4.400233   -0.389006    0.043529
     29          8           0        5.563070   -0.569417    0.864643
     30          1           0        6.313699   -0.796498    0.310937
     31          1           0       -5.673595   -0.728977    0.040217
     32          1           0       -2.102227   -3.142021   -0.176679
     33          1           0       -3.195098   -2.527577   -1.375268
     34          1           0       -2.653578   -1.187778    1.246945
     35          1           0       -4.026620   -0.129748   -1.236399
     36          1           0       -3.157499    1.140032    1.347022
     37          1           0       -2.020493    1.573591   -1.361643
     38          1           0       -0.781095    0.398555    1.114820
     39          1           0        3.197575    3.179912    0.003304
     40          1           0        2.198025    2.533287    1.263503
     41          1           0        2.665708    1.228444   -1.400739
     42          1           0        1.313911    0.209602    1.100943
     43          1           0        2.194068   -1.150039   -1.415906
     44          1           0        3.292145   -1.721276    1.307668
     45          1           0        4.709169   -0.415789   -0.980552
 ---------------------------------------------------------------------

 SCF Done:  E(RB3LYP) =  -1297.95493876     A.U. after   13 cycles

 The electronic state is 1-A.
 Alpha  occ. eigenvalues --  -19.19719 -19.19499 -19.19187 -19.18353 -19.18158
 Alpha  occ. eigenvalues --  -19.17793 -19.17378 -19.16903 -19.15677 -19.15617
 Alpha  occ. eigenvalues --  -19.13768 -10.31257 -10.30823 -10.26366 -10.26243
 Alpha  occ. eigenvalues --  -10.25842 -10.25473 -10.25411 -10.25381 -10.25174
 Alpha  occ. eigenvalues --  -10.24452 -10.24115 -10.24018  -1.09836  -1.09004
 Alpha  occ. eigenvalues --   -1.05681  -1.05265  -1.04180  -1.03998  -1.03267
 Alpha  occ. eigenvalues --   -1.02408  -1.01838  -1.01636  -0.99858  -0.82294
 Alpha  occ. eigenvalues --   -0.79959  -0.79702  -0.78321  -0.71782  -0.69944
 Alpha  occ. eigenvalues --   -0.67580  -0.64622  -0.63224  -0.62258  -0.61519
 Alpha  occ. eigenvalues --   -0.60245  -0.56878  -0.55884  -0.55323  -0.54866
 Alpha  occ. eigenvalues --   -0.53969  -0.53295  -0.52891  -0.52611  -0.50795
 Alpha  occ. eigenvalues --   -0.50666  -0.49709  -0.49299  -0.48250  -0.46650
 Alpha  occ. eigenvalues --   -0.45974  -0.45350  -0.44666  -0.43954  -0.43585
 Alpha  occ. eigenvalues --   -0.42889  -0.42063  -0.40651  -0.40391  -0.39032
 Alpha  occ. eigenvalues --   -0.38628  -0.38233  -0.37634  -0.36748  -0.36108
 Alpha  occ. eigenvalues --   -0.35710  -0.34898  -0.34535  -0.34460  -0.33757
 Alpha  occ. eigenvalues --   -0.33383  -0.31745  -0.30855  -0.30319  -0.30110
 Alpha  occ. eigenvalues --   -0.29289  -0.28756  -0.28426  -0.26969  -0.26673
 Alpha  occ. eigenvalues --   -0.26268
 Alpha virt. eigenvalues --   -0.02452  -0.01742  -0.01598   0.00011   0.00290
 Alpha virt. eigenvalues --    0.00838   0.01761   0.02188   0.02921   0.03508
 Alpha virt. eigenvalues --    0.03858   0.04358   0.04992   0.05180   0.05421

 Mulliken atomic charges:
              1
     1  O   -0.546259
     2  C   -0.058312
     3  C    0.089361
     4  O   -0.480663
     5  H    0.353685
     6  C   -0.146800
     7  O   -0.522359
     8  H    0.440093
     9  C   -0.109038
    10  O   -0.571567
    11  H    0.366360
    12  C    0.132408
    13  O   -0.409845
    14  C    0.305725
    15  O   -0.338696
    16  C    0.091901
    17  C   -0.151713
    18  O   -0.472758
    19  H    0.383162
    20  C    0.249082
    21  O   -0.514639
    22  H    0.347739
    23  C   -0.045010
    24  O   -0.605134
    25  H    0.388599
    26  C   -0.100235
    27  O   -0.311546
    28  C    0.126928
    29  O   -0.556615
    30  H    0.367672
    31  H    0.369369
    32  H    0.140745
    33  H    0.133362
    34  H    0.142058
    35  H    0.141300
    36  H    0.132248
    37  H    0.138993
    38  H    0.116906
    39  H    0.137613
    40  H    0.150959
    41  H    0.142378
    42  H    0.128837
    43  H    0.139626
    44  H    0.153020
    45  H    0.131060
 Sum of Mulliken atomic charges =   0.00000

 Dipole moment (field-independent basis, Debye):
    X=              3.3222    Y=             -1.5690    Z=             -1.9382  Tot=              4.1540
 Quadrupole moment (field-independent basis, Debye-Ang):
   XX=           -116.0725   YY=           -138.2101   ZZ=           -140.2653
   XY=             17.8697   XZ=              0.9328   YZ=             -0.4914

  Exact polarizability: 227.757  -1.548 191.163   0.528   0.064 141.480
 Approx polarizability: 264.772  -1.430 245.466   0.459  -1.303 230.689

 ******    7 imaginary frequencies (negative Signs) ******

                     1                      2                      3
                     A                      A                      A
 Frequencies --  -276.8511              -261.8320              -234.6215
 Red. masses --     1.2614                 1.2336                 1.5718
 Frc consts  --     0.0570                 0.0498                 0.0510
 IR Inten    --    90.4815               141.3386                25.2070
 Raman Activ --     0.6200                 1.0298                 0.4117

                     4                      5                      6
                     A                      A                      A
 Frequencies --  -223.6440               -95.8963               -60.6012
 Red. masses --     1.8390                 6.6077                 6.5223
 Frc consts  --     0.0542                 0.0358                 0.0141
 IR Inten    --     1.7430                 0.2653                 0.4057
 Raman Activ --     0.0544                 0.0335                 0.0570

                     7                      8                      9
                     A                      A                      A
 Frequencies --   -36.0047                36.8010                49.2534
 Red. masses --     6.2940                 6.3928                 6.5786
 Frc consts  --     0.0048                 0.0051                 0.0094
 IR Inten    --     1.7193                 0.6890                 0.9572
 Raman Activ --     0.0271                 0.0480                 0.0982

                    10                     11                     12
                     A                      A                      A
 Frequencies --    82.4287                94.7041               110.8249
 Red. masses --     6.4659                 6.1961                 5.5192
 Frc consts  --     0.0259                 0.0327                 0.0399
 IR Inten    --     0.5199                 2.7371                 2.2587
 Raman Activ --     0.2676                 0.0333                 0.1384

                    13                     14                     15
                     A                      A                      A
 Frequencies --   150.2463               167.1996               178.5901
 Red. masses --     6.2801                 5.5810                 7.7114
 Frc consts  --     0.0835                 0.0919                 0.1449
 IR Inten    --     2.3694                 3.6593                 0.1139
 Raman Activ --     0.4246                 0.2285                 0.5323

                    16                     17                     18
                     A                      A                      A
 Frequencies --   205.1419               227.3293               265.1770
 Red. masses --     6.8623                 6.0761                 4.4053
 Frc consts  --     0.1701                 0.1850                 0.1825
 IR Inten    --     0.6228                 0.6690                 6.2326
 Raman Activ --     2.1993                 1.0254                 0.0904

                    19                     20                     21
                     A                      A                      A
 Frequencies --   266.3946               284.5444               300.6653
 Red. masses --     4.6229                 5.7384                 4.7623
 Frc consts  --     0.1933                 0.2737                 0.2536
 IR Inten    --    14.4516                 1.5187                 1.6974
 Raman Activ --     0.3627                 0.1409                 0.7586

                    22                     23                     24
                     A                      A                      A
 Frequencies --   313.0903               322.0449               328.8900
 Red. masses --     6.3170                 4.6888                 6.4856
 Frc consts  --     0.3648                 0.2865                 0.4133
 IR Inten    --     3.3183                 6.4682                 2.6525
 Raman Activ --     1.5249                 1.0938                 2.7486

                    25                     26                     27
                     A                      A                      A
 Frequencies --   351.3150               357.4872               377.9127
 Red. masses --     6.6697                 4.8684                 6.9348
 Frc consts  --     0.4850                 0.3666                 0.5835
 IR Inten    --     8.9929                 9.0298                 1.5640
 Raman Activ --     3.6556                 0.1848                 1.8263

                    28                     29                     30
                     A                      A                      A
 Frequencies --   405.3395               422.5362               427.4797
 Red. masses --     3.8145                 6.6068                 5.1993
 Frc consts  --     0.3693                 0.6950                 0.5598
 IR Inten    --    23.3752                 5.6186                 1.0048
 Raman Activ --     1.6425                 2.0043                 7.7575

                    31                     32                     33
                     A                      A                      A
 Frequencies --   435.1224               478.9348               488.9847
 Red. masses --     4.8134                 4.1859                 3.7460
 Frc consts  --     0.5369                 0.5657                 0.5277
 IR Inten    --     2.0254                 5.6729                13.7631
 Raman Activ --     1.7928                 1.4565                 2.5410

                    34                     35                     36
                     A                      A                      A
 Frequencies --   519.6791               525.7847               575.0348
 Red. masses --     4.0788                 3.1595                 3.2725
 Frc consts  --     0.6490                 0.5146                 0.6376
 IR Inten    --     5.8730                13.5347                 8.2848
 Raman Activ --     3.2424                 2.3367                 1.3004

                    37                     38                     39
                     A                      A                      A
 Frequencies --   582.7059               607.6277               621.8443
 Red. masses --     3.0037                 5.7118                 5.2341
 Frc consts  --     0.6009                 1.2425                 1.1925
 IR Inten    --    63.3719                 9.5665                18.8223
 Raman Activ --     0.6050                 0.2979                 1.4063

                    40                     41                     42
                     A                      A                      A
 Frequencies --   632.5223               654.5742               689.4645
 Red. masses --     3.9951                 1.1385                 1.3440
 Frc consts  --     0.9417                 0.2874                 0.3764
 IR Inten    --    17.8850               127.5429               101.6913
 Raman Activ --     0.7423                 2.1740                 0.9475

                    43                     44                     45
                     A                      A                      A
 Frequencies --   690.4245               725.5070               760.8198
 Red. masses --     2.6760                 1.0684                 1.1025
 Frc consts  --     0.7516                 0.3313                 0.3760
 IR Inten    --    15.2339               105.8653               189.7472
 Raman Activ --     1.4872                 1.7283                 5.0803

                    46                     47                     48
                     A                      A                      A
 Frequencies --   776.4597               849.8750               853.4114
 Red. masses --     1.0921                 1.4761                 1.5293
 Frc consts  --     0.3879                 0.6282                 0.6562
 IR Inten    --    81.5378                18.1759                13.1264
 Raman Activ --     1.4771                 1.2748                 0.7666

                    49                     50                     51
                     A                      A                      A
 Frequencies --   873.5637               931.2913               961.7450
 Red. masses --     1.2619                 5.0164                 3.9747
 Frc consts  --     0.5674                 2.5634                 2.1661
 IR Inten    --    42.0128               130.0730                39.6119
 Raman Activ --     0.6296                 3.8305                 1.1681

                    52                     53                     54
                     A                      A                      A
 Frequencies --   981.5612               997.4841              1002.2035
 Red. masses --     5.2943                 5.0128                 4.9406
 Frc consts  --     3.0053                 2.9386                 2.9238
 IR Inten    --    43.2278                87.9743                46.0454
 Raman Activ --     2.3813                 0.9043                 1.1542

                    55                     56                     57
                     A                      A                      A
 Frequencies --  1011.1222              1026.8102              1035.7555
 Red. masses --     5.5175                 5.1898                 5.2659
 Frc consts  --     3.3235                 3.2239                 3.3284
 IR Inten    --   291.3239                68.9974                79.7395
 Raman Activ --     1.5454                 2.4008                 2.2622

                    58                     59                     60
                     A                      A                      A
 Frequencies --  1053.0293              1064.1088              1071.5305
 Red. masses --     4.0261                 4.0346                 3.8622
 Frc consts  --     2.6303                 2.6916                 2.6127
 IR Inten    --   359.3901               217.3621                82.5167
 Raman Activ --     4.7553                 8.5498                 1.1572

                    61                     62                     63
                     A                      A                      A
 Frequencies --  1078.9474              1085.9707              1092.7103
 Red. masses --     3.6097                 3.6185                 5.7150
 Frc consts  --     2.4758                 2.5143                 4.0204
 IR Inten    --    11.1632                33.8548                76.7299
 Raman Activ --     5.0784                12.9393                13.5091

                    64                     65                     66
                     A                      A                      A
 Frequencies --  1097.3925              1107.2851              1114.0688
 Red. masses --     2.8608                 2.8347                 2.5046
 Frc consts  --     2.0298                 2.0477                 1.8316
 IR Inten    --    12.7391                26.9373                67.3002
 Raman Activ --     8.9281                 6.4822                 4.2731

                    67                     68                     69
                     A                      A                      A
 Frequencies --  1115.4709              1124.2427              1134.2682
 Red. masses --     2.5457                 2.4754                 2.0729
 Frc consts  --     1.8663                 1.8434                 1.5713
 IR Inten    --   165.2549                55.1800               120.1033
 Raman Activ --     1.7483                 3.1861                 6.1309

                    70                     71                     72
                     A                      A                      A
 Frequencies --  1144.1368              1148.2007              1151.7993
 Red. masses --     2.1526                 2.2027                 2.5829
 Frc consts  --     1.6603                 1.7110                 2.0189
 IR Inten    --     1.6128                14.0267                 4.0337
 Raman Activ --     3.4873                 4.6042                 4.1261

                    73                     74                     75
                     A                      A                      A
 Frequencies --  1163.7038              1169.1835              1172.8840
 Red. masses --     1.9812                 1.6566                 1.8802
 Frc consts  --     1.5808                 1.3342                 1.5239
 IR Inten    --    15.4035                 8.8674                15.9168
 Raman Activ --     2.4286                 1.3959                 2.2781

                    76                     77                     78
                     A                      A                      A
 Frequencies --  1188.0072              1201.6219              1226.3539
 Red. masses --     1.4122                 1.4921                 1.4046
 Frc consts  --     1.1743                 1.2694                 1.2446
 IR Inten    --    22.3079                 5.7755                 1.7712
 Raman Activ --     0.6565                 4.0793                 0.8880

                    79                     80                     81
                     A                      A                      A
 Frequencies --  1237.5425              1245.6996              1252.6903
 Red. masses --     1.2798                 1.2910                 1.2818
 Frc consts  --     1.1548                 1.1804                 1.1851
 IR Inten    --     5.1534                 8.4632                17.9233
 Raman Activ --     1.4526                 3.2833                 1.3271

                    82                     83                     84
                     A                      A                      A
 Frequencies --  1263.8427              1265.6172              1276.3801
 Red. masses --     1.1792                 1.4612                 1.2818
 Frc consts  --     1.1098                 1.3790                 1.2304
 IR Inten    --     3.9603                40.9688                 0.3357
 Raman Activ --     8.2255                 1.5428                 1.1668

                    85                     86                     87
                     A                      A                      A
 Frequencies --  1279.3891              1289.1528              1302.0916
 Red. masses --     1.1974                 1.2709                 1.3176
 Frc consts  --     1.1548                 1.2444                 1.3162
 IR Inten    --     1.2408                 2.1307                 4.5407
 Raman Activ --     5.5828                 0.6373                 4.6244

                    88                     89                     90
                     A                      A                      A
 Frequencies --  1312.2320              1318.5909              1328.1849
 Red. masses --     1.3339                 1.1890                 1.3119
 Frc consts  --     1.3533                 1.2180                 1.3635
 IR Inten    --    53.6480                58.8096                19.4555
 Raman Activ --     4.7076                 7.8146                 4.2613

                    91                     92                     93
                     A                      A                      A
 Frequencies --  1335.2403              1344.6721              1352.6737
 Red. masses --     1.3061                 1.2339                 1.2923
 Frc consts  --     1.3720                 1.3145                 1.3932
 IR Inten    --    11.0926                31.4482                10.3359
 Raman Activ --     7.5370                 3.1272                 8.6789

                    94                     95                     96
                     A                      A                      A
 Frequencies --  1356.4931              1364.3512              1369.0875
 Red. masses --     1.2636                 1.4122                 1.5056
 Frc consts  --     1.3699                 1.5488                 1.6627
 IR Inten    --    39.9965                31.1259                15.8662
 Raman Activ --     2.0147                 6.9014                 7.4672

                    97                     98                     99
                     A                      A                      A
 Frequencies --  1383.0802              1391.0933              1393.8405
 Red. masses --     1.6843                 1.3903                 1.3592
 Frc consts  --     1.8982                 1.5851                 1.5559
 IR Inten    --     7.3200                 7.0052                 0.3347
 Raman Activ --     5.2628                 9.9659                 0.8296

                   100                    101                    102
                     A                      A                      A
 Frequencies --  1414.7316              1435.3045              1471.1427
 Red. masses --     1.5302                 1.4983                 1.2734
 Frc consts  --     1.8045                 1.8186                 1.6238
 IR Inten    --    46.0114                10.7537                17.0249
 Raman Activ --     0.6421                 0.5977                 3.1102

                   103                    104                    105
                     A                      A                      A
 Frequencies --  1477.1940              1480.6128              1484.3831
 Red. masses --     1.2468                 1.0818                 1.1998
 Frc consts  --     1.6029                 1.3973                 1.5576
 IR Inten    --    42.8181                 2.8316                 1.7581
 Raman Activ --     1.3488                 4.7511                 2.6271

                   106                    107                    108
                     A                      A                      A
 Frequencies --  1491.7781              1503.3009              3269.5089
 Red. masses --     1.3215                 1.3722                 1.0576
 Frc consts  --     1.7327                 1.8270                 6.6608
 IR Inten    --    33.2627                88.9366                32.7129
 Raman Activ --     3.3778                 0.8780                83.1029

                   109                    110                    111
                     A                      A                      A
 Frequencies --  3274.4149              3279.6057              3284.7260
 Red. masses --     1.0582                 1.0817                 1.0835
 Frc consts  --     6.6848                 6.8548                 6.8879
 IR Inten    --    72.7477                 9.7356                 5.5029
 Raman Activ --    49.7486               118.9713                19.1864

                   112                    113                    114
                     A                      A                      A
 Frequencies --  3291.1332              3291.5710              3298.0270
 Red. masses --     1.0848                 1.0844                 1.0848
 Frc consts  --     6.9229                 6.9222                 6.9520
 IR Inten    --    47.3203                21.7767                18.4318
 Raman Activ --    29.9100               121.9818               121.7249

                   115                    116                    117
                     A                      A                      A
 Frequencies --  3300.9890              3305.4927              3310.1960
 Red. masses --     1.0851                 1.0858                 1.0853
 Frc consts  --     6.9661                 6.9901                 7.0066
 IR Inten    --    17.6882                34.2132                50.5746
 Raman Activ --    69.5046                80.1375                 4.7806

                   118                    119                    120
                     A                      A                      A
 Frequencies --  3313.8492              3318.2500              3319.0574
 Red. masses --     1.0720                 1.0870                 1.0879
 Frc consts  --     6.9363                 7.0519                 7.0613
 IR Inten    --   479.4210                18.3422               117.0493
 Raman Activ --   179.8217                23.4233                14.8955

                   121                    122                    123
                     A                      A                      A
 Frequencies --  3330.0084              3336.2544              3374.2986
 Red. masses --     1.1053                 1.1076                 1.0644
 Frc consts  --     7.2216                 7.2637                 7.1403
 IR Inten    --    51.5145                62.5226                39.9467
 Raman Activ --    33.0471                28.2040                91.1156

                   124                    125                    126
                     A                      A                      A
 Frequencies --  3377.4196              3388.9095              3389.2791
 Red. masses --     1.0662                 1.0687                 1.0660
 Frc consts  --     7.1657                 7.2314                 7.2151
 IR Inten    --   239.1950                41.6489                34.1289
 Raman Activ --   112.2785               164.9776               145.5990

                   127                    128                    129
                     A                      A                      A
 Frequencies --  3405.6231              3918.5705              3921.9043
 Red. masses --     1.0675                 1.0678                 1.0675
 Frc consts  --     7.2947                 9.6600                 9.6744
 IR Inten    --    51.3398                84.8254                67.4209
 Raman Activ --   154.0766               101.6440               103.9457

 - Thermochemistry -
 -------------------
 Temperature   298.150 Kelvin.  Pressure   1.00000 Atm.
 Atom     1 has atomic number  8 and mass  15.99491

 Molecular mass:   342.11621 amu.
 Principal axes and moments of inertia in atomic units:
                           1         2         3
     Eigenvalues --  4403.79033********************
           X            0.99997   0.00780  -0.00018
           Y           -0.00780   0.99997   0.00225
           Z            0.00020  -0.00224   1.00000
 This molecule is an asymmetric top.
 Rotational symmetry number  1.
 Warning -- assumption of classical behavior for rotation
           may cause significant error
 Rotational temperatures (Kelvin)      0.01967     0.00689     0.00525
 Rotational constants (GHZ):           0.40982     0.14362     0.10929
    7 imaginary frequencies ignored.
 Zero-point vibrational energy     977588.9 (Joules/Mol)
                                  233.64936 (Kcal/Mol)
 Warning -- explicit consideration of  31 degrees of freedom as
           vibrations may cause significant error
 Vibrational temperatures:     52.95    70.86   118.60   136.26   159.45
          (Kelvin)            216.17   240.56   256.95   295.15   327.08
                              381.53   383.28   409.40   432.59   450.47
                              463.35   473.20   505.46   514.34   543.73
                              583.19   607.93   615.05   626.04   689.08
                              703.54   747.70   756.49   827.35   838.38
                              874.24   894.69   910.06   941.79   991.98
                              993.37  1043.84  1094.65  1117.15  1222.78
                             1227.87  1256.86  1339.92  1383.73  1412.25
                             1435.16  1441.95  1454.78  1477.35  1490.22
                             1515.07  1531.01  1541.69  1552.36  1562.47
                             1572.16  1578.90  1593.13  1602.89  1604.91
                             1617.53  1631.96  1646.16  1652.00  1657.18
                             1674.31  1682.19  1687.52  1709.28  1728.86
                             1764.45  1780.55  1792.28  1802.34  1818.39
                             1820.94  1836.42  1840.75  1854.80  1873.42
                             1888.01  1897.16  1910.96  1921.11  1934.68
                             1946.19  1951.69  1962.99  1969.81  1989.94
                             2001.47  2005.42  2035.48  2065.08  2116.64
                             2125.35  2130.27  2135.69  2146.33  2162.91
                             4704.09  4711.15  4718.62  4725.98  4735.20
                             4735.83  4745.12  4749.38  4755.86  4762.63
                             4767.88  4774.22  4775.38  4791.13  4800.12
                             4854.86  4859.35  4875.88  4876.41  4899.93
                             5637.94  5642.74

 Zero-point correction=                           0.372344 (Hartree/Particle)
 Thermal correction to Energy=                    0.390756
 Thermal correction to Enthalpy=                  0.391700
 Thermal correction to Gibbs Free Energy=         0.326336
 Sum of electronic and zero-point Energies=          -1297.582595
 Sum of electronic and thermal Energies=             -1297.564183
 Sum of electronic and thermal Enthalpies=           -1297.563239
 Sum of electronic and thermal Free Energies=        -1297.628603

                     E (Thermal)             CV                S
                      KCal/Mol        Cal/Mol-Kelvin    Cal/Mol-Kelvin
 Total                  245.203             75.865            137.571
 Electronic               0.000              0.000              0.000
 Translational            0.889              2.981             43.384
 Rotational               0.889              2.981             35.168
 Vibrational            243.426             69.904             59.018
 Vibration     1          0.594              1.982              5.424
 Vibration     2          0.595              1.978              4.847
 Vibration     3          0.600              1.961              3.832
 Vibration     4          0.603              1.953              3.560
 Vibration     5          0.607              1.941              3.254
 Vibration     6          0.618              1.902              2.669
 Vibration     7          0.624              1.883              2.467
 Vibration     8          0.629              1.869              2.343
 Vibration     9          0.640              1.833              2.086
 Vibration    10          0.651              1.799              1.900
 Vibration    11          0.671              1.737              1.627
 Vibration    12          0.672              1.735              1.619
 Vibration    13          0.683              1.702              1.506
 Vibration    14          0.693              1.672              1.413
 Vibration    15          0.701              1.649              1.346
 Vibration    16          0.707              1.631              1.300
 Vibration    17          0.712              1.618              1.266
 Vibration    18          0.728              1.573              1.160
 Vibration    19          0.733              1.560              1.133
 Vibration    20          0.748              1.517              1.048
 Vibration    21          0.770              1.459              0.943
 Vibration    22          0.785              1.421              0.883
 Vibration    23          0.789              1.410              0.867
 Vibration    24          0.796              1.394              0.842
 Vibration    25          0.835              1.297              0.713
 Vibration    26          0.845              1.274              0.686
 Vibration    27          0.875              1.206              0.611
 Vibration    28          0.881              1.193              0.597
 Vibration    29          0.931              1.085              0.495
 Vibration    30          0.940              1.069              0.480
 Vibration    31          0.966              1.016              0.437

 Normal termination of Gaussian 09 at Tue Mar  1 03:11:04 2016.
