 Gaussian 09, Revision B.01,
 Gaussian 09:  EM64L-G09RevB.01 12-Aug-2010

 -------------------------------------------------
 # freq=raman b3lyp/6-31+g(2d,p) geom=connectivity
 -------------------------------------------------

 -----------------
 550 5555/5555.com
 -----------------
 Symbolic Z-matrix:
 Charge =  0 Multiplicity = 1

                         Standard orientation:
 ---------------------------------------------------------------------
 Center     Atomic      Atomic             Coordinates (Angstroms)
 Number     Number       Type             X           Y           Z
 ---------------------------------------------------------------------
      1          8           0       -4.943870    0.276829   -0.522374
      2          6           0       -3.684853   -0.041785    0.089669
      3          6           0       -3.173403   -1.401038   -0.358109
      4          8           0       -3.994253   -2.364074    0.318905
      5          1           0       -4.909773   -1.996218    0.157921
      6          6           0       -1.780854   -1.617120    0.212411
      7          8           0       -1.117203   -2.780850   -0.300410
      8          1           0       -1.668143   -3.609725   -0.200013
      9          6           0       -3.500312    2.449305    0.155575
     10          8           0       -3.104287    3.795457   -0.142941
     11          1           0       -3.286853    4.486869    0.555910
     12          6           0       -2.799701    1.154417   -0.222537
     13          8           0       -1.477426    0.931661    0.287675
     14          6           0       -1.010091   -0.356028   -0.140961
     15          8           0        0.156470   -0.359718    0.695349
     16          6           0        1.410393   -0.226417    0.010254
     17          6           0        1.860418    1.203451    0.261620
     18          8           0        0.902306    2.185804   -0.156947
     19          1           0        0.011408    1.757159   -0.007725
     20          6           0        3.271913    1.491872   -0.222285
     21          8           0        3.821077    2.786480    0.062741
     22          1           0        3.234918    3.463526    0.506796
     23          6           0        2.053727   -2.614399    0.511569
     24          8           0        1.886371   -3.618355   -0.499936
     25          1           0        1.021057   -3.436617   -0.967242
     26          6           0        2.516343   -1.167242    0.460686
     27          8           0        3.754455   -0.891756   -0.211707
     28          6           0        4.288527    0.405718    0.087636
     29          8           0        5.533156    0.616089   -0.595026
     30          1           0        6.258694    0.341451   -0.029545
     31          1           0        4.486888    0.439356    1.138551
     32          1           0        3.185121    1.474960   -1.288625
     33          1           0        1.907237    1.296835    1.326508
     34          1           0        1.247982   -0.360238   -1.038848
     35          1           0        2.700095   -0.906915    1.482138
     36          1           0        1.096328   -2.563520    0.986647
     37          1           0        2.709442   -3.070865    1.223312
     38          1           0       -4.486198    2.356711   -0.249833
     39          1           0       -3.580853    2.416762    1.222043
     40          1           0       -2.699739    1.179007   -1.287574
     41          1           0       -5.657273    0.064075    0.083755
     42          1           0       -3.830056   -0.078045    1.149151
     43          1           0       -3.202027   -1.518942   -1.421208
     44          1           0       -1.849341   -1.696895    1.277233
     45          1           0       -0.735924   -0.343679   -1.175166
 ---------------------------------------------------------------------

 SCF Done:  E(RB3LYP) =  -1297.94252521     A.U. after   14 cycles

 The electronic state is 1-A.
 Alpha  occ. eigenvalues --  -19.20596 -19.20246 -19.19609 -19.19445 -19.17800
 Alpha  occ. eigenvalues --  -19.16420 -19.15975 -19.15782 -19.14816 -19.14376
 Alpha  occ. eigenvalues --  -19.13586 -10.32326 -10.28834 -10.28265 -10.27773
 Alpha  occ. eigenvalues --  -10.27518 -10.27397 -10.25261 -10.24752 -10.24661
 Alpha  occ. eigenvalues --  -10.23403 -10.23375 -10.22365  -1.12085  -1.08996
 Alpha  occ. eigenvalues --   -1.06906  -1.06704  -1.05226  -1.04439  -1.02637
 Alpha  occ. eigenvalues --   -1.01629  -1.01214  -1.00674  -0.99665  -0.83605
 Alpha  occ. eigenvalues --   -0.82760  -0.79123  -0.77547  -0.73160  -0.70341
 Alpha  occ. eigenvalues --   -0.68340  -0.65682  -0.64706  -0.63133  -0.61788
 Alpha  occ. eigenvalues --   -0.59959  -0.58592  -0.57865  -0.55673  -0.54702
 Alpha  occ. eigenvalues --   -0.54441  -0.53635  -0.53149  -0.52335  -0.51347
 Alpha  occ. eigenvalues --   -0.50702  -0.49504  -0.49024  -0.48429  -0.47767
 Alpha  occ. eigenvalues --   -0.46533  -0.45774  -0.45732  -0.44211  -0.44171
 Alpha  occ. eigenvalues --   -0.43276  -0.42414  -0.41589  -0.40128  -0.39779
 Alpha  occ. eigenvalues --   -0.39134  -0.38418  -0.37745  -0.36561  -0.36060
 Alpha  occ. eigenvalues --   -0.35893  -0.35086  -0.34716  -0.34192  -0.33422
 Alpha  occ. eigenvalues --   -0.32815  -0.32340  -0.31794  -0.30835  -0.30477
 Alpha  occ. eigenvalues --   -0.29690  -0.28685  -0.28425  -0.27532  -0.26383
 Alpha  occ. eigenvalues --   -0.25358
 Alpha virt. eigenvalues --   -0.04595  -0.02407  -0.01555  -0.00484   0.00305
 Alpha virt. eigenvalues --    0.01044   0.01223   0.02016   0.02342   0.03066
 Alpha virt. eigenvalues --    0.03436   0.04148   0.05011   0.05373   0.05541

 Mulliken atomic charges:
              1
     1  O   -0.534205
     2  C   -0.153146
     3  C    0.252246
     4  O   -0.542121
     5  H    0.314355
     6  C    0.000935
     7  O   -0.619716
     8  H    0.374437
     9  C   -0.407284
    10  O   -0.534477
    11  H    0.340517
    12  C    0.231850
    13  O   -0.286077
    14  C    0.245654
    15  O   -0.229027
    16  C    0.248230
    17  C    0.144474
    18  O   -0.611717
    19  H    0.416973
    20  C   -0.001506
    21  O   -0.537156
    22  H    0.343546
    23  C   -0.448949
    24  O   -0.466625
    25  H    0.334480
    26  C    0.114336
    27  O   -0.279721
    28  C    0.252116
    29  O   -0.509993
    30  H    0.325986
    31  H    0.105717
    32  H    0.125295
    33  H    0.104892
    34  H    0.111725
    35  H    0.112659
    36  H    0.173863
    37  H    0.137256
    38  H    0.184262
    39  H    0.126050
    40  H    0.122770
    41  H    0.334933
    42  H    0.143539
    43  H    0.143233
    44  H    0.151305
    45  H    0.144087
 Sum of Mulliken atomic charges =   0.00000

 Dipole moment (field-independent basis, Debye):
    X=             -8.8647    Y=             -0.9032    Z=              4.1757  Tot=              9.8405
 Quadrupole moment (field-independent basis, Debye-Ang):
   XX=           -121.3873   YY=           -150.4118   ZZ=           -137.4653
   XY=              0.6204   XZ=              6.6324   YZ=              8.8681

  Exact polarizability: 227.858   2.735 203.605   1.039   1.741 145.208
 Approx polarizability: 270.616   1.587 264.942   0.986   3.394 242.436

 ******    8 imaginary frequencies (negative Signs) ******

                     1                      2                      3
                     A                      A                      A
 Frequencies --  -346.0432              -242.0035              -201.5252
 Red. masses --     1.5879                 1.5721                 1.1223
 Frc consts  --     0.1120                 0.0542                 0.0269
 IR Inten    --     3.4783                 4.0329                90.1952
 Raman Activ --     0.0723                 0.0891                 1.1216

                     4                      5                      6
                     A                      A                      A
 Frequencies --  -152.9364               -84.6509               -68.9501
 Red. masses --     1.4574                 5.8881                 6.2035
 Frc consts  --     0.0201                 0.0249                 0.0174
 IR Inten    --    82.0158                 4.9618                 5.6082
 Raman Activ --     0.6549                 0.0996                 0.0048

                     7                      8                      9
                     A                      A                      A
 Frequencies --   -33.8460                -7.8716                57.4854
 Red. masses --     5.3069                 6.4564                 6.7373
 Frc consts  --     0.0036                 0.0002                 0.0131
 IR Inten    --     4.5023                 3.3051                 0.5514
 Raman Activ --     0.0466                 0.0275                 0.1115

                    10                     11                     12
                     A                      A                      A
 Frequencies --    60.3287                98.5472               116.6567
 Red. masses --     7.3415                 7.2819                 6.3827
 Frc consts  --     0.0157                 0.0417                 0.0512
 IR Inten    --     1.2938                 2.9835                 0.7290
 Raman Activ --     0.1645                 0.3217                 0.6415

                    13                     14                     15
                     A                      A                      A
 Frequencies --   125.3849               160.9247               168.3834
 Red. masses --     6.1258                 5.9094                 5.8946
 Frc consts  --     0.0567                 0.0902                 0.0985
 IR Inten    --     8.9118                 5.0072                 2.6174
 Raman Activ --     0.4324                 0.6046                 0.1508

                    16                     17                     18
                     A                      A                      A
 Frequencies --   190.3742               219.9299               254.4479
 Red. masses --     6.7561                 6.3087                 5.1741
 Frc consts  --     0.1443                 0.1798                 0.1974
 IR Inten    --     3.4534                 3.3444                 0.6753
 Raman Activ --     1.0523                 2.7916                 2.2751

                    19                     20                     21
                     A                      A                      A
 Frequencies --   259.1600               273.5028               289.9430
 Red. masses --     4.5655                 4.2803                 5.1255
 Frc consts  --     0.1807                 0.1886                 0.2539
 IR Inten    --    15.1098                 9.8098                 6.2429
 Raman Activ --     0.3817                 0.0482                 0.4744

                    22                     23                     24
                     A                      A                      A
 Frequencies --   299.6534               325.9371               330.2312
 Red. masses --     7.0095                 6.0486                 5.4815
 Frc consts  --     0.3708                 0.3786                 0.3522
 IR Inten    --     1.8042                 2.1608                 6.6080
 Raman Activ --     0.5008                 6.1125                 0.7883

                    25                     26                     27
                     A                      A                      A
 Frequencies --   336.1170               359.7101               381.6420
 Red. masses --     4.1635                 4.9828                 5.3340
 Frc consts  --     0.2771                 0.3799                 0.4577
 IR Inten    --     1.2614                 5.9708                16.1952
 Raman Activ --     1.8794                 1.0739                 1.2460

                    28                     29                     30
                     A                      A                      A
 Frequencies --   392.5443               417.7852               439.5871
 Red. masses --     5.8727                 5.1840                 5.1422
 Frc consts  --     0.5332                 0.5331                 0.5855
 IR Inten    --     3.9827                 8.9546                 0.8925
 Raman Activ --     3.7756                 2.0767                 1.4143

                    31                     32                     33
                     A                      A                      A
 Frequencies --   463.3575               469.5473               480.1981
 Red. masses --     4.2574                 3.5587                 4.5596
 Frc consts  --     0.5385                 0.4623                 0.6195
 IR Inten    --    19.4044                 6.2538                 4.6574
 Raman Activ --     3.0061                 1.6996                 5.9676

                    34                     35                     36
                     A                      A                      A
 Frequencies --   512.5879               530.0520               543.0587
 Red. masses --     3.8508                 2.9482                 2.0154
 Frc consts  --     0.5961                 0.4880                 0.3502
 IR Inten    --     4.7651                53.2979                19.9742
 Raman Activ --     1.6555                 0.3039                 1.4725

                    37                     38                     39
                     A                      A                      A
 Frequencies --   559.4915               576.6456               589.6824
 Red. masses --     3.6486                 2.2073                 1.2214
 Frc consts  --     0.6729                 0.4325                 0.2502
 IR Inten    --    13.7362                65.5598                43.8978
 Raman Activ --     4.4380                 1.6736                 2.7554

                    40                     41                     42
                     A                      A                      A
 Frequencies --   600.4985               625.4285               664.4222
 Red. masses --     3.3021                 3.1666                 4.0368
 Frc consts  --     0.7016                 0.7298                 1.0500
 IR Inten    --     4.5222                30.7885                14.9889
 Raman Activ --     0.2755                 0.3196                 0.2246

                    43                     44                     45
                     A                      A                      A
 Frequencies --   680.2409               695.2726               770.4721
 Red. masses --     1.0680                 3.8823                 1.0958
 Frc consts  --     0.2912                 1.1057                 0.3833
 IR Inten    --   100.2658                14.8957                89.6075
 Raman Activ --     1.4626                 1.0133                 1.3988

                    46                     47                     48
                     A                      A                      A
 Frequencies --   774.3395               821.1762               828.9585
 Red. masses --     1.0998                 1.2994                 2.8395
 Frc consts  --     0.3885                 0.5163                 1.1496
 IR Inten    --    98.5482                55.5403                 4.4008
 Raman Activ --     0.9068                 2.5446                 2.2723

                    49                     50                     51
                     A                      A                      A
 Frequencies --   835.9563               856.6548               933.7165
 Red. masses --     2.0572                 2.5633                 6.1382
 Frc consts  --     0.8470                 1.1083                 3.1530
 IR Inten    --    20.5818                26.5203               149.9106
 Raman Activ --     5.2833                 1.1121                 4.9891

                    52                     53                     54
                     A                      A                      A
 Frequencies --   958.0084               964.6346               981.9332
 Red. masses --     7.2090                 5.5514                 5.9588
 Frc consts  --     3.8982                 3.0435                 3.3851
 IR Inten    --   161.1528                82.4345               236.2524
 Raman Activ --     1.3227                 2.0008                 0.7082

                    55                     56                     57
                     A                      A                      A
 Frequencies --   995.7671               998.5748              1016.8866
 Red. masses --     4.6610                 6.0134                 5.6136
 Frc consts  --     2.7230                 3.5329                 3.4201
 IR Inten    --    74.3393               241.4228               241.5521
 Raman Activ --     3.3904                 1.6101                 0.9857

                    58                     59                     60
                     A                      A                      A
 Frequencies --  1031.3098              1048.4444              1050.8935
 Red. masses --     3.1485                 6.3630                 4.0253
 Frc consts  --     1.9730                 4.1210                 2.6192
 IR Inten    --   161.7949                34.3732                28.0004
 Raman Activ --     0.6933                 4.1404                 5.7617

                    61                     62                     63
                     A                      A                      A
 Frequencies --  1059.0983              1071.2657              1078.2653
 Red. masses --     4.0671                 3.9501                 4.3349
 Frc consts  --     2.6878                 2.6709                 2.9695
 IR Inten    --    47.9575                88.3977                14.5701
 Raman Activ --    13.4334                 4.5859                11.5552

                    64                     65                     66
                     A                      A                      A
 Frequencies --  1089.1217              1105.1646              1116.0060
 Red. masses --     2.4681                 3.1511                 3.4022
 Frc consts  --     1.7249                 2.2676                 2.4966
 IR Inten    --    15.2056                59.9788                26.0591
 Raman Activ --     5.2976                 5.8742                 4.7318

                    67                     68                     69
                     A                      A                      A
 Frequencies --  1128.9500              1137.0290              1138.3106
 Red. masses --     2.9486                 3.3227                 2.6029
 Frc consts  --     2.2142                 2.5310                 1.9872
 IR Inten    --    14.9617               107.1289                36.1631
 Raman Activ --     2.5267                 5.1684                 1.1476

                    70                     71                     72
                     A                      A                      A
 Frequencies --  1143.3290              1153.2308              1155.7048
 Red. masses --     1.6260                 2.0377                 3.1640
 Frc consts  --     1.2523                 1.5967                 2.4899
 IR Inten    --     3.0689                23.7069                11.6651
 Raman Activ --     2.1103                 2.2373                 3.6376

                    73                     74                     75
                     A                      A                      A
 Frequencies --  1168.5739              1176.5682              1207.4145
 Red. masses --     1.8703                 1.8191                 1.5464
 Frc consts  --     1.5048                 1.4837                 1.3283
 IR Inten    --    35.6379                18.3836                 4.8193
 Raman Activ --     1.1399                 3.1650                 1.8757

                    76                     77                     78
                     A                      A                      A
 Frequencies --  1209.7658              1216.3669              1230.0908
 Red. masses --     1.8767                 1.4989                 1.4438
 Frc consts  --     1.6182                 1.3066                 1.2871
 IR Inten    --     5.5859                 0.9405                12.0520
 Raman Activ --     1.2631                 0.3536                 2.2144

                    79                     80                     81
                     A                      A                      A
 Frequencies --  1240.6852              1250.7278              1268.8705
 Red. masses --     1.1778                 1.2406                 1.2118
 Frc consts  --     1.0681                 1.1435                 1.1495
 IR Inten    --    29.4194                21.4384                12.0708
 Raman Activ --     1.9979                 1.9643                 1.1627

                    82                     83                     84
                     A                      A                      A
 Frequencies --  1282.7710              1299.7135              1304.5180
 Red. masses --     1.2702                 1.3179                 1.2063
 Frc consts  --     1.2315                 1.3117                 1.2095
 IR Inten    --     9.8629                30.2543                53.3225
 Raman Activ --     2.1078                 3.2653                 4.2672

                    85                     86                     87
                     A                      A                      A
 Frequencies --  1311.0806              1316.2354              1318.8355
 Red. masses --     1.2934                 1.2154                 1.2655
 Frc consts  --     1.3099                 1.2406                 1.2968
 IR Inten    --    15.4105                14.0668                 0.8926
 Raman Activ --     0.6525                 2.2803                 2.3741

                    88                     89                     90
                     A                      A                      A
 Frequencies --  1333.1532              1338.1873              1341.3781
 Red. masses --     1.2363                 1.2441                 1.2906
 Frc consts  --     1.2946                 1.3126                 1.3682
 IR Inten    --    25.5852                16.1915                20.9320
 Raman Activ --     5.5245                 2.0973                 8.0733

                    91                     92                     93
                     A                      A                      A
 Frequencies --  1349.9531              1350.9640              1360.5555
 Red. masses --     1.2482                 1.2563                 1.4415
 Frc consts  --     1.3402                 1.3510                 1.5722
 IR Inten    --    28.4838                16.4764                27.6746
 Raman Activ --    11.2769                 2.0636                11.0523

                    94                     95                     96
                     A                      A                      A
 Frequencies --  1367.4366              1369.6995              1380.6121
 Red. masses --     1.4729                 1.2927                 1.3388
 Frc consts  --     1.6227                 1.4289                 1.5035
 IR Inten    --     9.5383                15.4654                 6.4284
 Raman Activ --     0.7107                 3.6203                 5.5401

                    97                     98                     99
                     A                      A                      A
 Frequencies --  1387.4128              1400.7482              1417.2353
 Red. masses --     1.3837                 1.1734                 1.6852
 Frc consts  --     1.5693                 1.3565                 1.9943
 IR Inten    --     4.1916                14.2276                18.8776
 Raman Activ --     5.5010                 4.0404                 4.9147

                   100                    101                    102
                     A                      A                      A
 Frequencies --  1420.0694              1424.0355              1440.7139
 Red. masses --     1.2532                 1.4407                 1.0811
 Frc consts  --     1.4889                 1.7214                 1.3221
 IR Inten    --    11.5581                13.0018                 8.2298
 Raman Activ --     2.1034                 4.4006                 4.5712

                   103                    104                    105
                     A                      A                      A
 Frequencies --  1443.3301              1453.8383              1476.9270
 Red. masses --     1.2326                 1.0953                 1.3271
 Frc consts  --     1.5129                 1.3640                 1.7056
 IR Inten    --     2.3043                 3.8696                63.3339
 Raman Activ --     0.6403                 3.1344                 2.6505

                   106                    107                    108
                     A                      A                      A
 Frequencies --  1491.3407              1514.7510              3245.5697
 Red. masses --     1.1329                 1.2501                 1.0787
 Frc consts  --     1.4845                 1.6899                 6.6945
 IR Inten    --    90.7323                35.9869                63.5266
 Raman Activ --     4.7624                 0.7150                65.4772

                   109                    110                    111
                     A                      A                      A
 Frequencies --  3250.8551              3254.8574              3258.4770
 Red. masses --     1.0638                 1.0760                 1.0807
 Frc consts  --     6.6239                 6.7165                 6.7606
 IR Inten    --    27.8800                 1.5903                14.2868
 Raman Activ --   130.9213                33.5378               111.5520

                   112                    113                    114
                     A                      A                      A
 Frequencies --  3264.3976              3273.4407              3276.9631
 Red. masses --     1.0769                 1.0702                 1.0817
 Frc consts  --     6.7611                 6.7563                 6.8435
 IR Inten    --    33.0746                52.2778                26.8620
 Raman Activ --    35.0342               180.4097                41.6838

                   115                    116                    117
                     A                      A                      A
 Frequencies --  3284.8230              3285.5296              3287.7201
 Red. masses --     1.0758                 1.0846                 1.0820
 Frc consts  --     6.8389                 6.8984                 6.8907
 IR Inten    --   368.5726               138.7594               126.8571
 Raman Activ --    70.7280                41.2225                40.5531

                   118                    119                    120
                     A                      A                      A
 Frequencies --  3294.9296              3297.1192              3310.2960
 Red. masses --     1.0831                 1.0838                 1.0865
 Frc consts  --     6.9281                 6.9418                 7.0148
 IR Inten    --   113.0231                60.2988                53.1799
 Raman Activ --   156.4779                18.8472                 8.4384

                   121                    122                    123
                     A                      A                      A
 Frequencies --  3314.9001              3318.6566              3359.2141
 Red. masses --     1.1005                 1.1004                 1.0648
 Frc consts  --     7.1250                 7.1403                 7.0794
 IR Inten    --    27.6335                27.8395                24.1602
 Raman Activ --    52.0039                56.9803               105.7181

                   124                    125                    126
                     A                      A                      A
 Frequencies --  3363.9058              3373.1383              3375.4419
 Red. masses --     1.0681                 1.0699                 1.0669
 Frc consts  --     7.1209                 7.1726                 7.1620
 IR Inten    --    55.3361                94.4186                68.0080
 Raman Activ --    71.9884               124.7269               110.0704

                   127                    128                    129
                     A                      A                      A
 Frequencies --  3380.7055              3880.7071              3889.7090
 Red. masses --     1.0683                 1.0676                 1.0674
 Frc consts  --     7.1939                 9.4732                 9.5149
 IR Inten    --    47.8755                58.6728                77.1679
 Raman Activ --    91.0160                96.8425               126.0807

 - Thermochemistry -
 -------------------
 Temperature   298.150 Kelvin.  Pressure   1.00000 Atm.
 Atom     1 has atomic number  8 and mass  15.99491

 Molecular mass:   342.11621 amu.
 Principal axes and moments of inertia in atomic units:
                           1         2         3
     Eigenvalues --  4795.61030********************
           X            0.99999  -0.00415   0.00223
           Y            0.00415   0.99999   0.00175
           Z           -0.00223  -0.00174   1.00000
 This molecule is an asymmetric top.
 Rotational symmetry number  1.
 Warning -- assumption of classical behavior for rotation
           may cause significant error
 Rotational temperatures (Kelvin)      0.01806     0.00737     0.00537
 Rotational constants (GHZ):           0.37633     0.15347     0.11191
    8 imaginary frequencies ignored.
 Zero-point vibrational energy     971953.1 (Joules/Mol)
                                  232.30238 (Kcal/Mol)
 Warning -- explicit consideration of  32 degrees of freedom as
           vibrations may cause significant error
 Vibrational temperatures:     82.71    86.80   141.79   167.84   180.40
          (Kelvin)            231.53   242.27   273.91   316.43   366.09
                              372.87   393.51   417.16   431.13   468.95
                              475.13   483.60   517.54   549.10   564.78
                              601.10   632.47   666.67   675.57   690.90
                              737.50   762.63   781.34   804.98   829.66
                              848.42   863.98   899.85   955.95   978.71
                             1000.34  1108.54  1114.10  1181.49  1192.68
                             1202.75  1232.53  1343.41  1378.36  1387.89
                             1412.78  1432.69  1436.72  1463.07  1483.82
                             1508.48  1512.00  1523.80  1541.31  1551.38
                             1567.00  1590.08  1605.68  1624.31  1635.93
                             1637.77  1644.99  1659.24  1662.80  1681.32
                             1692.82  1737.20  1740.58  1750.08  1769.82
                             1785.07  1799.52  1825.62  1845.62  1870.00
                             1876.91  1886.35  1893.77  1897.51  1918.11
                             1925.35  1929.94  1942.28  1943.73  1957.53
                             1967.43  1970.69  1986.39  1996.18  2015.36
                             2039.08  2043.16  2048.87  2072.86  2076.63
                             2091.75  2124.97  2145.70  2179.39  4669.65
                             4677.25  4683.01  4688.22  4696.73  4709.75
                             4714.81  4726.12  4727.14  4730.29  4740.66
                             4743.81  4762.77  4769.40  4774.80  4833.15
                             4839.90  4853.19  4856.50  4864.08  5583.47
                             5596.42

 Zero-point correction=                           0.370197 (Hartree/Particle)
 Thermal correction to Energy=                    0.388113
 Thermal correction to Enthalpy=                  0.389057
 Thermal correction to Gibbs Free Energy=         0.325450
 Sum of electronic and zero-point Energies=          -1297.572328
 Sum of electronic and thermal Energies=             -1297.554412
 Sum of electronic and thermal Enthalpies=           -1297.553468
 Sum of electronic and thermal Free Energies=        -1297.617075

                     E (Thermal)             CV                S
                      KCal/Mol        Cal/Mol-Kelvin    Cal/Mol-Kelvin
 Total                  243.545             74.880            133.873
 Electronic               0.000              0.000              0.000
 Translational            0.889              2.981             43.384
 Rotational               0.889              2.981             35.163
 Vibrational            241.767             68.919             55.326
 Vibration     1          0.596              1.975              4.542
 Vibration     2          0.597              1.973              4.446
 Vibration     3          0.604              1.950              3.483
 Vibration     4          0.608              1.936              3.155
 Vibration     5          0.610              1.928              3.016
 Vibration     6          0.622              1.890              2.539
 Vibration     7          0.625              1.881              2.453
 Vibration     8          0.634              1.853              2.224
 Vibration     9          0.647              1.811              1.960
 Vibration    10          0.665              1.755              1.700
 Vibration    11          0.668              1.747              1.667
 Vibration    12          0.676              1.722              1.574
 Vibration    13          0.686              1.692              1.474
 Vibration    14          0.692              1.674              1.419
 Vibration    15          0.710              1.624              1.280
 Vibration    16          0.713              1.615              1.259
 Vibration    17          0.717              1.603              1.231
 Vibration    18          0.734              1.555              1.123
 Vibration    19          0.751              1.509              1.033
 Vibration    20          0.760              1.486              0.990
 Vibration    21          0.781              1.432              0.900
 Vibration    22          0.800              1.384              0.828
 Vibration    23          0.821              1.331              0.756
 Vibration    24          0.827              1.318              0.739
 Vibration    25          0.837              1.294              0.710
 Vibration    26          0.868              1.222              0.627
 Vibration    27          0.885              1.184              0.587
 Vibration    28          0.898              1.155              0.559
 Vibration    29          0.915              1.119              0.525
 Vibration    30          0.933              1.082              0.492
 Vibration    31          0.947              1.054              0.468
 Vibration    32          0.959              1.031              0.449

 Normal termination of Gaussian 09 at Sat Apr  2 23:32:54 2016.
