 Gaussian 09, Revision B.01,
 Gaussian 09:  EM64L-G09RevB.01 12-Aug-2010

 -------------------------------
 ## freq=raman b3lyp/6-31+g(d,p)
 -------------------------------

 ------------------------------
 450K 10000ps Cellobiose Unit 1
 ------------------------------
 Symbolic Z-matrix:
 Charge =  0 Multiplicity = 1

                         Standard orientation:
 ---------------------------------------------------------------------
 Center     Atomic      Atomic             Coordinates (Angstroms)
 Number     Number       Type             X           Y           Z
 ---------------------------------------------------------------------
      1          8           0       -5.036363   -0.686537    0.808314
      2          6           0       -3.929902   -0.351958   -0.041821
      3          6           0       -3.728975    1.124067    0.256932
      4          8           0       -4.607105    1.901739   -0.569502
      5          1           0       -5.541362    1.820981   -0.223103
      6          6           0       -2.333969    1.570049   -0.150747
      7          8           0       -2.022905    2.573293    0.826055
      8          1           0       -2.512931    3.438722    0.717959
      9          6           0       -2.961336   -2.542129   -0.222422
     10          8           0       -1.966981   -3.564977   -0.376579
     11          1           0       -2.348780   -4.291079   -0.949695
     12          6           0       -2.703203   -1.159041    0.351189
     13          8           0       -1.544880   -0.717109   -0.370839
     14          6           0       -1.202625    0.589636    0.111825
     15          8           0        0.085064    0.665373   -0.517238
     16          6           0        1.374826    0.299789   -0.005501
     17          6           0        1.948104   -1.054369   -0.390174
     18          8           0        0.887394   -2.020974   -0.383683
     19          1           0        0.032514   -1.545627   -0.590059
     20          6           0        3.219569   -1.353743    0.386973
     21          8           0        3.677642   -2.689502    0.640696
     22          1           0        3.120781   -3.218928    1.281528
     23          6           0        2.039081    2.521525    0.119002
     24          8           0        2.837329    3.694060   -0.096095
     25          1           0        3.060842    3.945012   -1.038492
     26          6           0        2.464297    1.217780   -0.536158
     27          8           0        3.784829    0.937568   -0.050515
     28          6           0        4.254733   -0.410124   -0.204125
     29          8           0        5.559383   -0.428826    0.391468
     30          1           0        6.155865    0.115761   -0.127411
     31          1           0       -5.837775   -0.286615    0.462769
 ---------------------------------------------------------------------

 SCF Done:  E(RB3LYP) =  -1288.75665870     A.U. after   31 cycles

 The electronic state is 1-A.
 Alpha  occ. eigenvalues --  -19.25933 -19.23817 -19.23054 -19.22914 -19.22042
 Alpha  occ. eigenvalues --  -19.21766 -19.21653 -19.20967 -19.20073 -19.19641
 Alpha  occ. eigenvalues --  -19.18302 -10.36802 -10.33685 -10.32960 -10.32685
 Alpha  occ. eigenvalues --  -10.31643 -10.29557 -10.29373 -10.28832 -10.28733
 Alpha  occ. eigenvalues --  -10.26825 -10.26710 -10.26626  -1.13075  -1.12000
 Alpha  occ. eigenvalues --   -1.07514  -1.07020  -1.06700  -1.05860  -1.05351
 Alpha  occ. eigenvalues --   -1.05256  -1.04734  -1.04417  -1.03207  -0.83377
 Alpha  occ. eigenvalues --   -0.80863  -0.78558  -0.76773  -0.70224  -0.68994
 Alpha  occ. eigenvalues --   -0.66869  -0.64332  -0.62761  -0.61460  -0.58683
 Alpha  occ. eigenvalues --   -0.57873  -0.56510  -0.55011  -0.54515  -0.52967
 Alpha  occ. eigenvalues --   -0.51679  -0.50545  -0.49787  -0.48852  -0.48350
 Alpha  occ. eigenvalues --   -0.48046  -0.45728  -0.45288  -0.45029  -0.44104
 Alpha  occ. eigenvalues --   -0.43886  -0.42770  -0.42171  -0.41214  -0.40639
 Alpha  occ. eigenvalues --   -0.40469  -0.40176  -0.39194  -0.38005  -0.37807
 Alpha  occ. eigenvalues --   -0.37365  -0.36834  -0.36300  -0.35719  -0.32705
 Alpha  occ. eigenvalues --   -0.32397  -0.30926  -0.30042  -0.28901  -0.27024
 Alpha  occ. eigenvalues --   -0.25073  -0.22995  -0.20219  -0.17242
 Alpha virt. eigenvalues --   -0.15164  -0.13298  -0.10366  -0.09881  -0.08794
 Alpha virt. eigenvalues --   -0.07711  -0.04498  -0.02473  -0.02024  -0.01346
 Alpha virt. eigenvalues --   -0.00058   0.00075   0.01433   0.02536   0.04059

 Mulliken atomic charges:
              1
     1  O   -0.445258
     2  C    0.463831
     3  C    0.310927
     4  O   -0.496385
     5  H    0.338366
     6  C   -0.186460
     7  O   -0.466254
     8  H    0.365014
     9  C   -0.470246
    10  O   -0.465683
    11  H    0.395408
    12  C    0.225802
    13  O   -0.318049
    14  C    0.393570
    15  O   -0.288745
    16  C    0.430572
    17  C    0.196435
    18  O   -0.436952
    19  H    0.441326
    20  C   -0.136976
    21  O   -0.438312
    22  H    0.388237
    23  C   -0.300092
    24  O   -0.391481
    25  H    0.358019
    26  C    0.035134
    27  O   -0.209076
    28  C    0.442215
    29  O   -0.436905
    30  H    0.368110
    31  H    0.333907
 Sum of Mulliken atomic charges =   0.00000

 Dipole moment (field-independent basis, Debye):
    X=              1.3524    Y=              0.8112    Z=             -2.7741  Tot=              3.1910
 Quadrupole moment (field-independent basis, Debye-Ang):
   XX=            -99.1169   YY=           -123.5987   ZZ=           -132.7276
   XY=             -5.4978   XZ=             -6.1174   YZ=             -6.1193

  Exact polarizability: 705.933  81.075 366.690 -20.183  -0.457 129.885
 Approx polarizability:4581.8521481.4761475.844-301.333 -63.598 283.275

 ******    5 imaginary frequencies (negative Signs) ******

                     1                      2                      3
                     A                      A                      A
 Frequencies --  -452.0459              -397.8888              -183.9126
 Red. masses --     1.2658                 1.1007                 9.8037
 Frc consts  --     0.1524                 0.1027                 0.1954
 IR Inten    --    89.5764                77.7755               124.2829
 Raman Activ --    55.3381                17.1086               196.7897

                     4                      5                      6
                     A                      A                      A
 Frequencies --   -92.4153               -49.8993                53.1258
 Red. masses --     7.6814                 8.7639                 9.4139
 Frc consts  --     0.0387                 0.0129                 0.0157
 IR Inten    --   104.1551                26.4916                 2.4780
 Raman Activ --    88.3855               159.2032               107.3419

                     7                      8                      9
                     A                      A                      A
 Frequencies --    89.9512               100.9680               104.5912
 Red. masses --     7.2279                 9.3649                 7.4092
 Frc consts  --     0.0345                 0.0562                 0.0478
 IR Inten    --    27.4761                27.5868                 0.7931
 Raman Activ --    64.9339               106.7862                 5.6292

                    10                     11                     12
                     A                      A                      A
 Frequencies --   123.6217               141.3744               154.9630
 Red. masses --     8.5440                 8.5282                 8.9734
 Frc consts  --     0.0769                 0.1004                 0.1270
 IR Inten    --     3.3532                 7.6738                17.3799
 Raman Activ --     2.1706                93.2562               150.0018

                    13                     14                     15
                     A                      A                      A
 Frequencies --   177.2086               185.0975               199.9214
 Red. masses --     9.4210                 9.3885                 9.0948
 Frc consts  --     0.1743                 0.1895                 0.2142
 IR Inten    --     2.9744                16.3952                35.8571
 Raman Activ --    49.0908               174.7995               163.5861

                    16                     17                     18
                     A                      A                      A
 Frequencies --   208.1535               227.1106               240.8691
 Red. masses --     7.9213                10.6638                 9.4089
 Frc consts  --     0.2022                 0.3241                 0.3216
 IR Inten    --   110.5948               209.3892                11.4017
 Raman Activ --     1.2045                42.6963                16.5499

                    19                     20                     21
                     A                      A                      A
 Frequencies --   269.4619               275.1880               290.2609
 Red. masses --     6.3982                 5.0028                 8.1805
 Frc consts  --     0.2737                 0.2232                 0.4061
 IR Inten    --     2.6993               121.8178                10.7400
 Raman Activ --     5.3042                42.3319                 8.8492

                    22                     23                     24
                     A                      A                      A
 Frequencies --   299.9174               305.3516               335.2673
 Red. masses --     7.9754                 5.8539                 8.6900
 Frc consts  --     0.4227                 0.3216                 0.5755
 IR Inten    --    22.0221                 0.4363                28.7073
 Raman Activ --    74.2038               143.2301                32.5515

                    25                     26                     27
                     A                      A                      A
 Frequencies --   342.4708               358.7078               362.4797
 Red. masses --     7.8571                 9.1379                 8.9719
 Frc consts  --     0.5430                 0.6928                 0.6945
 IR Inten    --    54.0254                20.1958                12.3760
 Raman Activ --    34.6357                94.1351                75.6754

                    28                     29                     30
                     A                      A                      A
 Frequencies --   380.7075               402.0495               421.3611
 Red. masses --     7.9595                 6.8126                 7.4619
 Frc consts  --     0.6797                 0.6488                 0.7806
 IR Inten    --    15.6768                 1.8701                48.5159
 Raman Activ --    33.0990               138.9441                18.9520

                    31                     32                     33
                     A                      A                      A
 Frequencies --   448.4389               462.9658               493.2701
 Red. masses --     8.2702                 7.5832                 6.6270
 Frc consts  --     0.9799                 0.9576                 0.9500
 IR Inten    --    80.1957                 6.2074                55.6560
 Raman Activ --    99.2300                30.1615               107.9809

                    34                     35                     36
                     A                      A                      A
 Frequencies --   522.2238               547.4116               557.6902
 Red. masses --     2.6484                 8.0514                 1.9509
 Frc consts  --     0.4255                 1.4215                 0.3575
 IR Inten    --    11.0802                71.5940               151.2797
 Raman Activ --   339.2086                24.0061                77.6044

                    37                     38                     39
                     A                      A                      A
 Frequencies --   568.4499               582.9578               599.0069
 Red. masses --     1.8820                 4.0304                 6.3339
 Frc consts  --     0.3583                 0.8070                 1.3390
 IR Inten    --   211.4237                53.8498                37.3402
 Raman Activ --    36.0388               152.4514                10.3007

                    40                     41                     42
                     A                      A                      A
 Frequencies --   617.2148               630.1730               656.1504
 Red. masses --     4.4563                 2.2852                 3.4830
 Frc consts  --     1.0002                 0.5347                 0.8835
 IR Inten    --    31.8994                40.4845                91.3117
 Raman Activ --    63.6688               192.0102                99.1367

                    43                     44                     45
                     A                      A                      A
 Frequencies --   660.4627               668.9049               685.1317
 Red. masses --     2.8069                 7.0627                 3.5064
 Frc consts  --     0.7214                 1.8619                 0.9698
 IR Inten    --   138.7057                88.2895               549.0596
 Raman Activ --    23.1498                62.4285                12.3467

                    46                     47                     48
                     A                      A                      A
 Frequencies --   699.1587               723.6011               732.3429
 Red. masses --     2.0844                 5.7390                 8.7537
 Frc consts  --     0.6003                 1.7705                 2.7661
 IR Inten    --    21.4890                25.7990               583.8457
 Raman Activ --    34.8801               128.9251                47.0343

                    49                     50                     51
                     A                      A                      A
 Frequencies --   761.8435               787.9354               803.4961
 Red. masses --     4.2503                 3.6315                 3.7455
 Frc consts  --     1.4534                 1.3284                 1.4247
 IR Inten    --    29.7008               430.9308                45.0740
 Raman Activ --    28.2177                36.9306               152.6523

                    52                     53                     54
                     A                      A                      A
 Frequencies --   815.1954               839.8447               851.5134
 Red. masses --     2.5525                 6.2644                 2.0455
 Frc consts  --     0.9994                 2.6033                 0.8738
 IR Inten    --   183.0881               106.2897               107.0885
 Raman Activ --   168.6137                14.1969                94.0812

                    55                     56                     57
                     A                      A                      A
 Frequencies --   864.0348               868.5373               888.4744
 Red. masses --     3.8337                 4.7634                 3.2817
 Frc consts  --     1.6863                 2.1171                 1.5263
 IR Inten    --   675.6691               121.4344               320.1399
 Raman Activ --    58.9960                82.6801                47.8257

                    58                     59                     60
                     A                      A                      A
 Frequencies --   920.2599               944.8376               953.9232
 Red. masses --     8.5510                 4.9861                 5.0771
 Frc consts  --     4.2667                 2.6226                 2.7220
 IR Inten    --   221.1150               573.7071               350.8425
 Raman Activ --    30.9010                89.4088               146.6882

                    61                     62                     63
                     A                      A                      A
 Frequencies --   981.0893               990.1962              1007.0003
 Red. masses --     9.9164                 8.1996                 7.7719
 Frc consts  --     5.6237                 4.7368                 4.6434
 IR Inten    --   611.5524               966.8217               191.9373
 Raman Activ --    19.7159               148.6347               159.9572

                    64                     65                     66
                     A                      A                      A
 Frequencies --  1023.1760              1039.1309              1055.6747
 Red. masses --     6.8270                 5.6339                 6.6457
 Frc consts  --     4.2110                 3.5842                 4.3637
 IR Inten    --   102.4378               270.3607               125.0229
 Raman Activ --    11.3155               245.1630               354.4129

                    67                     68                     69
                     A                      A                      A
 Frequencies --  1058.2152              1072.7726              1077.7846
 Red. masses --     8.4114                 5.4169                 5.0427
 Frc consts  --     5.5497                 3.6730                 3.4512
 IR Inten    --    16.4667                90.9634               204.3124
 Raman Activ --   118.9635                29.2510                50.4763

                    70                     71                     72
                     A                      A                      A
 Frequencies --  1099.0469              1109.7349              1143.4210
 Red. masses --     4.1613                 4.1108                 1.5770
 Frc consts  --     2.9615                 2.9828                 1.2147
 IR Inten    --    89.1088                62.2244                13.8145
 Raman Activ --    68.9677                24.5716                55.5827

                    73                     74                     75
                     A                      A                      A
 Frequencies --  1224.5880              1233.3172              1287.6136
 Red. masses --     1.5479                 1.6662                 1.4682
 Frc consts  --     1.3676                 1.4932                 1.4341
 IR Inten    --    42.8858                23.6562                34.0644
 Raman Activ --    26.0425               125.2872                30.3100

                    76                     77                     78
                     A                      A                      A
 Frequencies --  1297.6907              1314.5559              1355.0718
 Red. masses --     1.1946                 1.2561                 1.2433
 Frc consts  --     1.1853                 1.2788                 1.3451
 IR Inten    --   190.4110                77.2482               236.0945
 Raman Activ --   100.7146                25.1057                 9.8917

                    79                     80                     81
                     A                      A                      A
 Frequencies --  1422.1373              3273.9179              3354.8992
 Red. masses --     1.2274                 1.0703                 1.0665
 Frc consts  --     1.4626                 6.7593                 7.0725
 IR Inten    --     6.5193               111.5823               130.7575
 Raman Activ --    41.8336                89.3483              1897.7816

                    82                     83                     84
                     A                      A                      A
 Frequencies --  3374.1615              3382.0386              3389.9911
 Red. masses --     1.0659                 1.0664                 1.0678
 Frc consts  --     7.1500                 7.1867                 7.2300
 IR Inten    --    74.6770               127.8157               474.3154
 Raman Activ --   542.3152               307.0169               298.4761

                    85                     86                     87
                     A                      A                      A
 Frequencies --  3405.9086              3905.8132              3927.5351
 Red. masses --     1.0677                 1.0663                 1.0668
 Frc consts  --     7.2972                 9.5842                 9.6957
 IR Inten    --   186.2679                96.0257               331.1361
 Raman Activ --   213.5053               502.3725               485.0775

 - Thermochemistry -
 -------------------
 Temperature   298.150 Kelvin.  Pressure   1.00000 Atm.
 Atom     1 has atomic number  8 and mass  15.99491

 Molecular mass:   328.00666 amu.
 Principal axes and moments of inertia in atomic units:
                           1         2         3
     Eigenvalues --  4313.60742********************
           X            1.00000  -0.00199  -0.00031
           Y            0.00199   1.00000  -0.00121
           Z            0.00031   0.00121   1.00000
 This molecule is an asymmetric top.
 Rotational symmetry number  1.
 Warning -- assumption of classical behavior for rotation
           may cause significant error
 Rotational temperatures (Kelvin)      0.02008     0.00724     0.00547
 Rotational constants (GHZ):           0.41838     0.15087     0.11402
    5 imaginary frequencies ignored.
 Zero-point vibrational energy     460634.7 (Joules/Mol)
                                  110.09434 (Kcal/Mol)
 Warning -- explicit consideration of  35 degrees of freedom as
           vibrations may cause significant error
 Vibrational temperatures:     76.44   129.42   145.27   150.48   177.86
          (Kelvin)            203.41   222.96   254.96   266.31   287.64
                              299.49   326.76   346.56   387.70   395.93
                              417.62   431.51   439.33   482.37   492.74
                              516.10   521.53   547.75   578.46   606.24
                              645.20   666.10   709.70   751.36   787.60
                              802.39   817.87   838.75   861.84   888.03
                              906.68   944.05   950.26   962.40   985.75
                             1005.93  1041.10  1053.68  1096.12  1133.66
                             1156.05  1172.88  1208.35  1225.14  1243.15
                             1249.63  1278.31  1324.05  1359.41  1372.48
                             1411.57  1424.67  1448.85  1472.12  1495.08
                             1518.88  1522.53  1543.48  1550.69  1581.28
                             1596.66  1645.13  1761.91  1774.47  1852.59
                             1867.09  1891.35  1949.64  2046.14  4710.43
                             4826.95  4854.66  4865.99  4877.43  4900.34
                             5619.59  5650.84

 Zero-point correction=                           0.175447 (Hartree/Particle)
 Thermal correction to Energy=                    0.195338
 Thermal correction to Enthalpy=                  0.196282
 Thermal correction to Gibbs Free Energy=         0.129292
 Sum of electronic and zero-point Energies=          -1288.581212
 Sum of electronic and thermal Energies=             -1288.561321
 Sum of electronic and thermal Enthalpies=           -1288.560377
 Sum of electronic and thermal Free Energies=        -1288.627366

                     E (Thermal)             CV                S
                      KCal/Mol        Cal/Mol-Kelvin    Cal/Mol-Kelvin
 Total                  122.576             79.929            140.992
 Electronic               0.000              0.000              0.000
 Translational            0.889              2.981             43.259
 Rotational               0.889              2.981             35.056
 Vibrational            120.799             73.967             62.677
 Vibration     1          0.596              1.976              4.698
 Vibration     2          0.602              1.956              3.661
 Vibration     3          0.604              1.948              3.436
 Vibration     4          0.605              1.946              3.367
 Vibration     5          0.610              1.929              3.043
 Vibration     6          0.615              1.912              2.785
 Vibration     7          0.620              1.897              2.610
 Vibration     8          0.628              1.870              2.358
 Vibration     9          0.631              1.860              2.276
 Vibration    10          0.638              1.840              2.134
 Vibration    11          0.641              1.828              2.060
 Vibration    12          0.651              1.800              1.902
 Vibration    13          0.658              1.778              1.796
 Vibration    14          0.674              1.729              1.600
 Vibration    15          0.677              1.719              1.563
 Vibration    16          0.686              1.692              1.472
 Vibration    17          0.692              1.674              1.417
 Vibration    18          0.696              1.664              1.387
 Vibration    19          0.716              1.605              1.235
 Vibration    20          0.722              1.591              1.201
 Vibration    21          0.734              1.557              1.128
 Vibration    22          0.736              1.550              1.111
 Vibration    23          0.750              1.511              1.036
 Vibration    24          0.768              1.466              0.955
 Vibration    25          0.784              1.424              0.887
 Vibration    26          0.807              1.364              0.801
 Vibration    27          0.821              1.332              0.758
 Vibration    28          0.849              1.265              0.675
 Vibration    29          0.877              1.201              0.605
 Vibration    30          0.903              1.145              0.550
 Vibration    31          0.913              1.123              0.528
 Vibration    32          0.924              1.100              0.507
 Vibration    33          0.940              1.068              0.480
 Vibration    34          0.957              1.034              0.451
 Vibration    35          0.977              0.996              0.421

 Normal termination of Gaussian 09 at Mon Oct 19 00:30:54 2015.
