 Gaussian 09, Revision B.01,
 Gaussian 09:  EM64L-G09RevB.01 12-Aug-2010

 ------------------------------------------------
 # freq=raman b3lyp/6-31+g(d,p) geom=connectivity
 ------------------------------------------------

 -------------
 310 10000.com
 -------------
 Symbolic Z-matrix:
 Charge =  0 Multiplicity = 1

                         Standard orientation:
 ---------------------------------------------------------------------
 Center     Atomic      Atomic             Coordinates (Angstroms)
 Number     Number       Type             X           Y           Z
 ---------------------------------------------------------------------
      1          8           0        5.035200   -0.119344   -0.311621
      2          6           0        3.698063   -0.080482    0.208259
      3          6           0        3.123301    1.274453   -0.171970
      4          8           0        3.985801    2.353458    0.218056
      5          1           0        4.961727    2.140068    0.187812
      6          6           0        1.698477    1.527595    0.291360
      7          8           0        1.182601    2.676485   -0.396455
      8          1           0        0.316936    3.035927   -0.048211
      9          6           0        3.199259   -2.593520    0.082058
     10          8           0        4.525903   -2.988598   -0.298032
     11          1           0        4.598423   -3.977391   -0.173701
     12          6           0        2.775433   -1.181395   -0.290130
     13          8           0        1.490828   -0.870108    0.266782
     14          6           0        0.845756    0.345710   -0.139863
     15          8           0       -0.345179    0.469166    0.651103
     16          6           0       -1.534237    0.229621   -0.115972
     17          6           0       -1.880396   -1.178096    0.339423
     18          8           0       -0.887924   -2.139879   -0.048030
     19          1           0        0.036651   -1.861505    0.213774
     20          6           0       -3.259280   -1.543479   -0.187218
     21          8           0       -3.862292   -2.687512    0.433591
     22          1           0       -4.747164   -2.895613    0.017491
     23          6           0       -2.447450    2.613705   -0.214531
     24          8           0       -1.266240    3.279625    0.256296
     25          1           0       -1.430478    4.260609    0.148023
     26          6           0       -2.688719    1.169238    0.192619
     27          8           0       -3.944656    0.839958   -0.417572
     28          6           0       -4.281170   -0.455700    0.100077
     29          8           0       -5.510620   -0.855738   -0.521460
     30          1           0       -6.163739   -1.047694    0.155436
     31          1           0        5.661114   -0.135891    0.416087
     32          1           0        2.509698   -3.274996   -0.370708
     33          1           0        3.116901   -2.693478    1.144191
     34          1           0        2.710919   -1.115639   -1.356157
     35          1           0        3.748615   -0.140176    1.275395
     36          1           0        3.092481    1.290739   -1.241402
     37          1           0        1.657273    1.664080    1.351819
     38          1           0        0.635201    0.361423   -1.188824
     39          1           0       -3.290285    3.184725    0.114807
     40          1           0       -2.429456    2.646698   -1.283871
     41          1           0       -2.833864    1.154323    1.252624
     42          1           0       -1.312092    0.238597   -1.162619
     43          1           0       -1.929351   -1.173020    1.408290
     44          1           0       -3.202072   -1.704213   -1.243528
     45          1           0       -4.429057   -0.383578    1.157351
 ---------------------------------------------------------------------

 SCF Done:  E(RB3LYP) =  -1297.94120005     A.U. after   14 cycles

 The electronic state is 1-A.
 Alpha  occ. eigenvalues --  -19.20242 -19.19574 -19.19553 -19.19083 -19.18977
 Alpha  occ. eigenvalues --  -19.17313 -19.17173 -19.16353 -19.14993 -19.14239
 Alpha  occ. eigenvalues --  -19.13005 -10.30900 -10.30806 -10.26881 -10.26516
 Alpha  occ. eigenvalues --  -10.25949 -10.25936 -10.25157 -10.24896 -10.24829
 Alpha  occ. eigenvalues --  -10.24507 -10.23927 -10.23681  -1.10306  -1.09610
 Alpha  occ. eigenvalues --   -1.06264  -1.05297  -1.04400  -1.04163  -1.02949
 Alpha  occ. eigenvalues --   -1.02126  -1.00884  -1.00088  -0.98912  -0.82523
 Alpha  occ. eigenvalues --   -0.80057  -0.79316  -0.78318  -0.72096  -0.69916
 Alpha  occ. eigenvalues --   -0.67049  -0.65383  -0.63597  -0.62898  -0.61487
 Alpha  occ. eigenvalues --   -0.60154  -0.56593  -0.55898  -0.55417  -0.54691
 Alpha  occ. eigenvalues --   -0.53917  -0.53455  -0.53051  -0.52246  -0.51552
 Alpha  occ. eigenvalues --   -0.51080  -0.49844  -0.49492  -0.48916  -0.46778
 Alpha  occ. eigenvalues --   -0.45664  -0.45415  -0.44695  -0.43970  -0.43367
 Alpha  occ. eigenvalues --   -0.42529  -0.41542  -0.41074  -0.40561  -0.40185
 Alpha  occ. eigenvalues --   -0.38368  -0.37919  -0.37577  -0.36590  -0.36007
 Alpha  occ. eigenvalues --   -0.34965  -0.34597  -0.33518  -0.33290  -0.32991
 Alpha  occ. eigenvalues --   -0.32762  -0.31482  -0.30646  -0.30423  -0.29734
 Alpha  occ. eigenvalues --   -0.29209  -0.28585  -0.28278  -0.27130  -0.26670
 Alpha  occ. eigenvalues --   -0.25698
 Alpha virt. eigenvalues --   -0.02321  -0.01925  -0.01881  -0.00388   0.00474
 Alpha virt. eigenvalues --    0.01230   0.01894   0.02494   0.03388   0.03608
 Alpha virt. eigenvalues --    0.03902   0.04459   0.04901   0.05358   0.05593

 Mulliken atomic charges:
              1
     1  O   -0.534259
     2  C   -0.232013
     3  C    0.101926
     4  O   -0.536183
     5  H    0.353882
     6  C    0.125614
     7  O   -0.587451
     8  H    0.457879
     9  C    0.065974
    10  O   -0.530349
    11  H    0.362344
    12  C    0.141707
    13  O   -0.420019
    14  C    0.027030
    15  O   -0.306594
    16  C   -0.101147
    17  C   -0.023695
    18  O   -0.567101
    19  H    0.427318
    20  C    0.244652
    21  O   -0.526295
    22  H    0.358441
    23  C   -0.044805
    24  O   -0.626404
    25  H    0.389816
    26  C    0.097086
    27  O   -0.302696
    28  C    0.112585
    29  O   -0.600950
    30  H    0.372891
    31  H    0.366252
    32  H    0.139846
    33  H    0.136811
    34  H    0.134143
    35  H    0.132258
    36  H    0.131937
    37  H    0.143712
    38  H    0.130916
    39  H    0.141268
    40  H    0.152812
    41  H    0.134584
    42  H    0.129780
    43  H    0.143898
    44  H    0.150821
    45  H    0.131777
 Sum of Mulliken atomic charges =   0.00000

 Dipole moment (field-independent basis, Debye):
    X=             -2.1342    Y=              0.0592    Z=              2.3059  Tot=              3.1425
 Quadrupole moment (field-independent basis, Debye-Ang):
   XX=           -120.0652   YY=           -132.9489   ZZ=           -139.6808
   XY=            -18.3561   XZ=              2.2512   YZ=              1.1246

  Exact polarizability: 230.057   0.475 190.941   0.812  -0.574 140.211
 Approx polarizability: 267.341  -0.614 245.125   1.350  -1.199 230.424

 ******    7 imaginary frequencies (negative Signs) ******

                     1                      2                      3
                     A                      A                      A
 Frequencies --  -312.6200              -266.7529              -262.5946
 Red. masses --     1.2123                 1.7178                 1.8032
 Frc consts  --     0.0698                 0.0720                 0.0733
 IR Inten    --   114.0871                11.5547                 2.6147
 Raman Activ --     1.0066                 0.2237                 0.0547

                     4                      5                      6
                     A                      A                      A
 Frequencies --  -230.9350               -79.0057               -63.2061
 Red. masses --     1.2035                 7.1171                 6.3798
 Frc consts  --     0.0378                 0.0262                 0.0150
 IR Inten    --   146.0693                 3.5173                 1.7863
 Raman Activ --     1.2250                 0.0637                 0.0210

                     7                      8                      9
                     A                      A                      A
 Frequencies --   -61.3527                42.7361                55.8127
 Red. masses --     5.8829                 6.3599                 7.1141
 Frc consts  --     0.0130                 0.0068                 0.0131
 IR Inten    --     0.8687                 0.5096                 2.4347
 Raman Activ --     0.0358                 0.0359                 0.0272

                    10                     11                     12
                     A                      A                      A
 Frequencies --    82.6690                86.0816               138.1157
 Red. masses --     7.1910                 6.4240                 5.3707
 Frc consts  --     0.0290                 0.0280                 0.0604
 IR Inten    --     2.6653                 0.2826                 2.0910
 Raman Activ --     0.0337                 0.3199                 0.0338

                    13                     14                     15
                     A                      A                      A
 Frequencies --   167.7432               179.8915               205.4707
 Red. masses --     6.0429                 7.5735                 5.8019
 Frc consts  --     0.1002                 0.1444                 0.1443
 IR Inten    --     2.7185                 0.6114                 3.1781
 Raman Activ --     0.2926                 0.8273                 1.5292

                    16                     17                     18
                     A                      A                      A
 Frequencies --   215.4104               239.7571               259.5255
 Red. masses --     6.9495                 5.8873                 4.5874
 Frc consts  --     0.1900                 0.1994                 0.1820
 IR Inten    --     2.5199                 2.7946                26.5950
 Raman Activ --     1.5730                 0.2893                 0.2132

                    19                     20                     21
                     A                      A                      A
 Frequencies --   294.8190               312.9940               321.6825
 Red. masses --     5.8122                 4.4028                 5.8242
 Frc consts  --     0.2976                 0.2541                 0.3551
 IR Inten    --     1.8997                 2.9837                 2.2687
 Raman Activ --     0.8170                 0.6702                 1.7972

                    22                     23                     24
                     A                      A                      A
 Frequencies --   322.0447               331.3108               342.6355
 Red. masses --     5.1909                 5.0180                 5.9466
 Frc consts  --     0.3172                 0.3245                 0.4113
 IR Inten    --     5.4071                 1.4960                 0.9679
 Raman Activ --     1.6737                 1.7627                 2.3487

                    25                     26                     27
                     A                      A                      A
 Frequencies --   362.1765               368.5608               386.8483
 Red. masses --     6.5391                 4.4657                 7.4613
 Frc consts  --     0.5054                 0.3574                 0.6579
 IR Inten    --    20.1497                 3.1546                 1.9345
 Raman Activ --     0.3966                 0.0520                 1.7542

                    28                     29                     30
                     A                      A                      A
 Frequencies --   415.7790               425.6913               428.8808
 Red. masses --     4.8856                 4.6517                 4.6576
 Frc consts  --     0.4976                 0.4966                 0.5048
 IR Inten    --    21.3805                 1.0621                11.7575
 Raman Activ --     2.0249                 5.9125                 2.2448

                    31                     32                     33
                     A                      A                      A
 Frequencies --   443.7615               471.2924               495.9086
 Red. masses --     5.9629                 4.2827                 5.0911
 Frc consts  --     0.6918                 0.5605                 0.7377
 IR Inten    --     0.9047                13.5982                 5.1484
 Raman Activ --     0.9092                 4.9752                 1.0489

                    34                     35                     36
                     A                      A                      A
 Frequencies --   505.3726               540.2752               576.8322
 Red. masses --     3.3481                 3.1908                 3.7679
 Frc consts  --     0.5038                 0.5488                 0.7387
 IR Inten    --    17.7647                14.9008                 3.5699
 Raman Activ --     4.7729                 2.2299                 1.0238

                    37                     38                     39
                     A                      A                      A
 Frequencies --   592.6285               605.5200               613.8513
 Red. masses --     3.2392                 5.3946                 6.3545
 Frc consts  --     0.6703                 1.1654                 1.4108
 IR Inten    --    25.6036                16.7172                24.7446
 Raman Activ --     0.6287                 0.6187                 1.2439

                    40                     41                     42
                     A                      A                      A
 Frequencies --   637.2655               674.6954               677.8510
 Red. masses --     3.5429                 2.2937                 1.4246
 Frc consts  --     0.8477                 0.6152                 0.3857
 IR Inten    --    21.7410                38.2621                27.7624
 Raman Activ --     0.9283                 1.4491                 0.9989

                    43                     44                     45
                     A                      A                      A
 Frequencies --   683.5828               718.4127               758.2318
 Red. masses --     1.1148                 1.0963                 1.0615
 Frc consts  --     0.3069                 0.3334                 0.3596
 IR Inten    --   148.1233               118.1559               102.8537
 Raman Activ --     2.5657                 1.8910                 1.5626

                    46                     47                     48
                     A                      A                      A
 Frequencies --   777.4478               809.6823               854.2761
 Red. masses --     1.0750                 1.0735                 1.7608
 Frc consts  --     0.3828                 0.4146                 0.7571
 IR Inten    --   121.2747               122.0765                 4.7939
 Raman Activ --     1.3196                 2.2443                 1.4592

                    49                     50                     51
                     A                      A                      A
 Frequencies --   872.4358               941.0647               976.8825
 Red. masses --     1.6574                 6.1152                 3.5346
 Frc consts  --     0.7433                 3.1908                 1.9873
 IR Inten    --     1.8182                95.1587                47.5276
 Raman Activ --     0.4787                 3.2899                 1.8245

                    52                     53                     54
                     A                      A                      A
 Frequencies --   977.5991               995.3376              1003.8927
 Red. masses --     5.8467                 3.8125                 7.0567
 Frc consts  --     3.2922                 2.2253                 4.1901
 IR Inten    --    69.5410                42.6896                60.6885
 Raman Activ --     1.0307                 1.6950                 1.1397

                    55                     56                     57
                     A                      A                      A
 Frequencies --  1016.8952              1028.3893              1034.1984
 Red. masses --     6.7915                 5.5713                 4.4868
 Frc consts  --     4.1378                 3.4716                 2.8275
 IR Inten    --    53.3185               421.6374               192.5315
 Raman Activ --     2.4434                 4.1909                 2.5849

                    58                     59                     60
                     A                      A                      A
 Frequencies --  1050.4809              1059.9446              1066.0875
 Red. masses --     5.1809                 2.4814                 5.3715
 Frc consts  --     3.3685                 1.6425                 3.5969
 IR Inten    --   373.7289                52.6042                40.2817
 Raman Activ --     0.6193                 8.3093                 3.2610

                    61                     62                     63
                     A                      A                      A
 Frequencies --  1074.5613              1082.5685              1091.5310
 Red. masses --     5.1465                 5.4034                 3.6166
 Frc consts  --     3.5012                 3.7310                 2.5388
 IR Inten    --   143.6923                64.3665                22.6291
 Raman Activ --     0.4539                 0.3104                15.6318

                    64                     65                     66
                     A                      A                      A
 Frequencies --  1097.9536              1107.1987              1109.8333
 Red. masses --     2.9989                 2.2485                 2.2939
 Frc consts  --     2.1300                 1.6240                 1.6647
 IR Inten    --     9.9388                 1.0160                61.3988
 Raman Activ --    15.0551                 3.8216                 6.0671

                    67                     68                     69
                     A                      A                      A
 Frequencies --  1118.7491              1121.3986              1132.0138
 Red. masses --     2.4418                 2.5384                 2.4451
 Frc consts  --     1.8006                 1.8807                 1.8461
 IR Inten    --     3.2022               114.8735                19.2197
 Raman Activ --    10.4208                 3.4450                 9.3553

                    70                     71                     72
                     A                      A                      A
 Frequencies --  1136.5122              1150.2354              1155.0224
 Red. masses --     2.3840                 1.9785                 1.8541
 Frc consts  --     1.8143                 1.5423                 1.4574
 IR Inten    --    20.5650                 8.2862                14.2760
 Raman Activ --     3.0208                 2.8383                 2.7502

                    73                     74                     75
                     A                      A                      A
 Frequencies --  1165.9242              1171.8806              1187.0155
 Red. masses --     2.2011                 1.7480                 1.9519
 Frc consts  --     1.7629                 1.4144                 1.6204
 IR Inten    --    11.2981                 5.1204                12.1326
 Raman Activ --     3.7956                 3.8245                 2.1959

                    76                     77                     78
                     A                      A                      A
 Frequencies --  1200.1517              1208.4595              1212.7955
 Red. masses --     1.2701                 1.4386                 1.4003
 Frc consts  --     1.0779                 1.2378                 1.2135
 IR Inten    --    10.9342                 5.6317                 2.4940
 Raman Activ --     3.4027                 3.1111                 0.6265

                    79                     80                     81
                     A                      A                      A
 Frequencies --  1244.6648              1250.9001              1258.5685
 Red. masses --     1.3229                 1.2460                 1.2275
 Frc consts  --     1.2075                 1.1487                 1.1456
 IR Inten    --     5.2208                23.8752                29.0224
 Raman Activ --     0.5446                 0.8704                 2.0936

                    82                     83                     84
                     A                      A                      A
 Frequencies --  1260.5716              1277.7794              1280.0878
 Red. masses --     1.2197                 1.1753                 1.3606
 Frc consts  --     1.1419                 1.1306                 1.3136
 IR Inten    --    10.2102                87.4588                17.9458
 Raman Activ --     1.1288                 4.9363                 2.7446

                    85                     86                     87
                     A                      A                      A
 Frequencies --  1287.5539              1293.4215              1301.8817
 Red. masses --     1.2998                 1.3157                 1.1984
 Frc consts  --     1.2696                 1.2969                 1.1967
 IR Inten    --    13.6042                26.7575                12.8568
 Raman Activ --     4.1837                 2.5824                 5.6235

                    88                     89                     90
                     A                      A                      A
 Frequencies --  1312.2005              1315.9488              1330.0171
 Red. masses --     1.3736                 1.2483                 1.3295
 Frc consts  --     1.3935                 1.2736                 1.3856
 IR Inten    --    16.4409                 9.1145                13.3994
 Raman Activ --     2.8514                13.4000                 5.3911

                    91                     92                     93
                     A                      A                      A
 Frequencies --  1332.9054              1336.8758              1349.3194
 Red. masses --     1.2719                 1.2166                 1.2284
 Frc consts  --     1.3314                 1.2810                 1.3177
 IR Inten    --    51.0831                24.7682                 5.2118
 Raman Activ --     2.9240                 1.1888                 1.5142

                    94                     95                     96
                     A                      A                      A
 Frequencies --  1354.6969              1360.7636              1368.3738
 Red. masses --     1.3319                 1.4267                 1.4166
 Frc consts  --     1.4401                 1.5565                 1.5628
 IR Inten    --    49.3823                 8.4150                22.0962
 Raman Activ --     1.0645                17.2648                 5.0998

                    97                     98                     99
                     A                      A                      A
 Frequencies --  1378.7364              1381.5312              1399.5835
 Red. masses --     1.3747                 1.6190                 1.6167
 Frc consts  --     1.5396                 1.8206                 1.8658
 IR Inten    --    15.5067                 6.7274                 4.7814
 Raman Activ --     3.6365                 1.9784                 5.9746

                   100                    101                    102
                     A                      A                      A
 Frequencies --  1406.3297              1412.0258              1428.9346
 Red. masses --     1.4633                 1.5433                 1.4843
 Frc consts  --     1.7051                 1.8130                 1.7857
 IR Inten    --    12.0894                17.9301                24.1157
 Raman Activ --     3.3838                 4.7749                 1.9693

                   103                    104                    105
                     A                      A                      A
 Frequencies --  1458.2762              1468.9399              1483.5565
 Red. masses --     1.4381                 1.3546                 1.0742
 Frc consts  --     1.8019                 1.7221                 1.3929
 IR Inten    --    14.1254                33.6546                 3.0116
 Raman Activ --     1.8380                 2.6305                 5.9820

                   106                    107                    108
                     A                      A                      A
 Frequencies --  1484.1792              1496.8913              3267.3786
 Red. masses --     1.0926                 1.3111                 1.0573
 Frc consts  --     1.4180                 1.7309                 6.6502
 IR Inten    --     2.4798                31.5157                29.5616
 Raman Activ --     4.6302                 0.7102                84.4993

                   109                    110                    111
                     A                      A                      A
 Frequencies --  3269.3062              3279.7883              3280.3529
 Red. masses --     1.0624                 1.0746                 1.0828
 Frc consts  --     6.6906                 6.8107                 6.8648
 IR Inten    --   272.6987               104.6942                37.3844
 Raman Activ --    33.3774               321.2459                38.1872

                   112                    113                    114
                     A                      A                      A
 Frequencies --  3281.7171              3288.5985              3290.1677
 Red. masses --     1.0770                 1.0785                 1.0795
 Frc consts  --     6.8340                 6.8723                 6.8849
 IR Inten    --    43.3929               295.1537               349.1198
 Raman Activ --    94.2588               177.3883                57.4591

                   115                    116                    117
                     A                      A                      A
 Frequencies --  3295.0456              3298.5187              3302.9099
 Red. masses --     1.0835                 1.0789                 1.0867
 Frc consts  --     6.9310                 6.9165                 6.9851
 IR Inten    --   150.0924               450.5055               103.7241
 Raman Activ --    97.4218               105.9070                 3.8131

                   118                    119                    120
                     A                      A                      A
 Frequencies --  3304.9428              3314.1084              3317.6015
 Red. masses --     1.0862                 1.0865                 1.0866
 Frc consts  --     6.9901                 7.0311                 7.0461
 IR Inten    --    15.0751                77.6926                47.4353
 Raman Activ --    10.3533                34.3234                41.6770

                   121                    122                    123
                     A                      A                      A
 Frequencies --  3323.2063              3325.3476              3330.7623
 Red. masses --     1.0940                 1.0983                 1.1063
 Frc consts  --     7.1185                 7.1557                 7.2311
 IR Inten    --     6.9499               104.1533                58.5449
 Raman Activ --    24.6767                40.4986                44.3617

                   124                    125                    126
                     A                      A                      A
 Frequencies --  3388.3317              3391.5370              3394.9408
 Red. masses --     1.0665                 1.0657                 1.0661
 Frc consts  --     7.2142                 7.2226                 7.2399
 IR Inten    --    60.9197                43.3467                31.6231
 Raman Activ --   132.0933               134.6455               135.4216

                   127                    128                    129
                     A                      A                      A
 Frequencies --  3399.4145              3916.0737              3918.5447
 Red. masses --     1.0673                 1.0679                 1.0676
 Frc consts  --     7.2667                 9.6486                 9.6588
 IR Inten    --    43.5377                68.2218                73.7906
 Raman Activ --   180.6199                89.0526               105.0519

 - Thermochemistry -
 -------------------
 Temperature   298.150 Kelvin.  Pressure   1.00000 Atm.
 Atom     1 has atomic number  8 and mass  15.99491

 Molecular mass:   342.11621 amu.
 Principal axes and moments of inertia in atomic units:
                           1         2         3
     Eigenvalues --  4279.80558********************
           X            0.99997  -0.00769  -0.00015
           Y            0.00769   0.99997  -0.00113
           Z            0.00016   0.00113   1.00000
 This molecule is an asymmetric top.
 Rotational symmetry number  1.
 Warning -- assumption of classical behavior for rotation
           may cause significant error
 Rotational temperatures (Kelvin)      0.02024     0.00697     0.00530
 Rotational constants (GHZ):           0.42169     0.14527     0.11047
    7 imaginary frequencies ignored.
 Zero-point vibrational energy     977735.7 (Joules/Mol)
                                  233.68444 (Kcal/Mol)
 Warning -- explicit consideration of  32 degrees of freedom as
           vibrations may cause significant error
 Vibrational temperatures:     61.49    80.30   118.94   123.85   198.72
          (Kelvin)            241.34   258.82   295.63   309.93   344.96
                              373.40   424.18   450.33   462.83   463.35
                              476.68   492.98   521.09   530.28   556.59
                              598.21   612.47   617.06   638.47   678.08
                              713.50   727.12   777.33   829.93   852.66
                              871.21   883.19   916.88   970.73   975.28
                              983.52  1033.63  1090.93  1118.57  1164.95
                             1229.11  1255.24  1353.98  1405.51  1406.55
                             1432.07  1444.38  1463.08  1479.62  1487.98
                             1511.41  1525.02  1533.86  1546.05  1557.57
                             1570.47  1579.71  1593.01  1596.80  1609.63
                             1613.44  1628.71  1635.19  1654.93  1661.82
                             1677.50  1686.07  1707.85  1726.75  1738.70
                             1744.94  1790.79  1799.76  1810.80  1813.68
                             1838.44  1841.76  1852.50  1860.94  1873.11
                             1887.96  1893.35  1913.60  1917.75  1923.46
                             1941.37  1949.10  1957.83  1968.78  1983.69
                             1987.71  2013.69  2023.39  2031.59  2055.92
                             2098.13  2113.47  2134.50  2135.40  2153.69
                             4701.02  4703.80  4718.88  4719.69  4721.65
                             4731.55  4733.81  4740.83  4745.83  4752.14
                             4755.07  4768.26  4773.28  4781.35  4784.43
                             4792.22  4875.05  4879.66  4884.56  4890.99
                             5634.35  5637.90

 Zero-point correction=                           0.372400 (Hartree/Particle)
 Thermal correction to Energy=                    0.390451
 Thermal correction to Enthalpy=                  0.391395
 Thermal correction to Gibbs Free Energy=         0.327160
 Sum of electronic and zero-point Energies=          -1297.568800
 Sum of electronic and thermal Energies=             -1297.550750
 Sum of electronic and thermal Enthalpies=           -1297.549805
 Sum of electronic and thermal Free Energies=        -1297.614040

                     E (Thermal)             CV                S
                      KCal/Mol        Cal/Mol-Kelvin    Cal/Mol-Kelvin
 Total                  245.011             75.484            135.193
 Electronic               0.000              0.000              0.000
 Translational            0.889              2.981             43.384
 Rotational               0.889              2.981             35.117
 Vibrational            243.234             69.523             56.692
 Vibration     1          0.595              1.980              5.128
 Vibration     2          0.596              1.975              4.600
 Vibration     3          0.600              1.961              3.826
 Vibration     4          0.601              1.959              3.747
 Vibration     5          0.614              1.915              2.830
 Vibration     6          0.624              1.882              2.461
 Vibration     7          0.629              1.867              2.330
 Vibration     8          0.640              1.832              2.084
 Vibration     9          0.645              1.818              1.997
 Vibration    10          0.657              1.780              1.805
 Vibration    11          0.668              1.747              1.665
 Vibration    12          0.689              1.683              1.446
 Vibration    13          0.701              1.649              1.346
 Vibration    14          0.707              1.632              1.302
 Vibration    15          0.707              1.631              1.300
 Vibration    16          0.714              1.613              1.254
 Vibration    17          0.722              1.590              1.200
 Vibration    18          0.736              1.550              1.113
 Vibration    19          0.741              1.537              1.086
 Vibration    20          0.755              1.498              1.012
 Vibration    21          0.779              1.436              0.906
 Vibration    22          0.788              1.414              0.873
 Vibration    23          0.790              1.407              0.862
 Vibration    24          0.803              1.375              0.815
 Vibration    25          0.828              1.314              0.734
 Vibration    26          0.851              1.259              0.668
 Vibration    27          0.861              1.238              0.645
 Vibration    28          0.895              1.161              0.565
 Vibration    29          0.933              1.081              0.491
 Vibration    30          0.950              1.047              0.463
 Vibration    31          0.964              1.020              0.440
 Vibration    32          0.973              1.003              0.426

 Normal termination of Gaussian 09 at Thu Jan 21 04:59:22 2016.
