 Gaussian 09, Revision B.01,
 Gaussian 09:  EM64L-G09RevB.01 12-Aug-2010

 -------------------------------------------------
 # freq=raman b3lyp/6-31+g(2d,p) geom=connectivity
 -------------------------------------------------

 -----------------
 493 7352/7352.com
 -----------------
 Symbolic Z-matrix:
 Charge =  0 Multiplicity = 1

                         Standard orientation:
 ---------------------------------------------------------------------
 Center     Atomic      Atomic             Coordinates (Angstroms)
 Number     Number       Type             X           Y           Z
 ---------------------------------------------------------------------
      1          8           0       -5.048488   -0.362060    0.181485
      2          6           0       -3.678002   -0.076662   -0.134090
      3          6           0       -3.246121    1.276700    0.407115
      4          8           0       -4.245675    2.277596    0.163238
      5          1           0       -5.107191    1.775350    0.244899
      6          6           0       -1.896508    1.531454   -0.243290
      7          8           0       -1.368654    2.852436   -0.053890
      8          1           0       -0.422200    2.862334   -0.377693
      9          6           0       -3.038944   -2.529736   -0.136824
     10          8           0       -4.226693   -3.252476    0.216659
     11          1           0       -3.934788   -4.209223    0.247376
     12          6           0       -2.666841   -1.123336    0.305470
     13          8           0       -1.396189   -0.774597   -0.264076
     14          6           0       -0.891870    0.482728    0.207189
     15          8           0        0.314069    0.575893   -0.565575
     16          6           0        1.486741    0.142407    0.138548
     17          6           0        1.938330   -1.209658   -0.390221
     18          8           0        0.988378   -2.212768   -0.003361
     19          1           0        0.167722   -1.820326   -0.419367
     20          6           0        3.297111   -1.575547    0.184210
     21          8           0        3.859262   -2.674347   -0.547748
     22          1           0        4.710389   -3.053117   -0.181668
     23          6           0        2.422773    2.595719    0.134070
     24          8           0        1.316588    3.351970   -0.379880
     25          1           0        1.532954    4.325670   -0.442430
     26          6           0        2.601855    1.121368   -0.189260
     27          8           0        3.867264    0.840748    0.425926
     28          6           0        4.298532   -0.450970   -0.025972
     29          8           0        5.482598   -0.568504    0.775151
     30          1           0        6.240636   -0.719012    0.205655
     31          1           0        4.568294   -0.398163   -1.060061
     32          1           0        3.215566   -1.817927    1.223201
     33          1           0        2.001417   -1.171647   -1.457683
     34          1           0        1.309375    0.102705    1.192998
     35          1           0        2.752590    1.057311   -1.246651
     36          1           0        3.313522    3.093150   -0.188465
     37          1           0        2.382751    2.675524    1.200339
     38          1           0       -5.532541   -0.541568   -0.627878
     39          1           0       -3.023652   -2.507915   -1.206492
     40          1           0       -2.223088   -3.151724    0.167166
     41          1           0       -2.587460   -1.103876    1.372344
     42          1           0       -3.615691   -0.018008   -1.200663
     43          1           0       -3.103300    1.191272    1.464094
     44          1           0       -2.031670    1.401134   -1.296688
     45          1           0       -0.715646    0.490127    1.262552
 ---------------------------------------------------------------------

 SCF Done:  E(RB3LYP) =  -1297.98000847     A.U. after   13 cycles

 The electronic state is 1-A.
 Alpha  occ. eigenvalues --  -19.18818 -19.18766 -19.17793 -19.17665 -19.17464
 Alpha  occ. eigenvalues --  -19.17422 -19.16702 -19.16548 -19.14891 -19.14690
 Alpha  occ. eigenvalues --  -19.13137 -10.31026 -10.30165 -10.25994 -10.25902
 Alpha  occ. eigenvalues --  -10.25581 -10.25490 -10.25053 -10.24813 -10.24741
 Alpha  occ. eigenvalues --  -10.24358 -10.24225 -10.24063  -1.10911  -1.09296
 Alpha  occ. eigenvalues --   -1.05726  -1.04684  -1.04194  -1.03607  -1.03131
 Alpha  occ. eigenvalues --   -1.02506  -1.01659  -1.01489  -0.99793  -0.82457
 Alpha  occ. eigenvalues --   -0.80947  -0.79259  -0.78563  -0.71972  -0.69780
 Alpha  occ. eigenvalues --   -0.67105  -0.65015  -0.63216  -0.62439  -0.61974
 Alpha  occ. eigenvalues --   -0.60805  -0.56558  -0.55872  -0.54958  -0.54724
 Alpha  occ. eigenvalues --   -0.54139  -0.53171  -0.52974  -0.52505  -0.51909
 Alpha  occ. eigenvalues --   -0.50407  -0.49627  -0.49441  -0.48561  -0.46565
 Alpha  occ. eigenvalues --   -0.45993  -0.45015  -0.44587  -0.43749  -0.43527
 Alpha  occ. eigenvalues --   -0.42743  -0.42050  -0.41399  -0.40421  -0.39474
 Alpha  occ. eigenvalues --   -0.39048  -0.37782  -0.37379  -0.36620  -0.36231
 Alpha  occ. eigenvalues --   -0.35470  -0.35342  -0.34830  -0.34281  -0.33894
 Alpha  occ. eigenvalues --   -0.32690  -0.31548  -0.30835  -0.30382  -0.30033
 Alpha  occ. eigenvalues --   -0.29591  -0.28908  -0.28751  -0.27268  -0.26835
 Alpha  occ. eigenvalues --   -0.26557
 Alpha virt. eigenvalues --   -0.02158  -0.01937  -0.01617  -0.00465   0.00171
 Alpha virt. eigenvalues --    0.00704   0.01832   0.02259   0.02851   0.03215
 Alpha virt. eigenvalues --    0.03938   0.04368   0.04712   0.05200   0.05457

 Mulliken atomic charges:
              1
     1  O   -0.569324
     2  C   -0.155691
     3  C    0.164722
     4  O   -0.545848
     5  H    0.352623
     6  C    0.011668
     7  O   -0.576122
     8  H    0.403528
     9  C   -0.363409
    10  O   -0.509198
    11  H    0.337303
    12  C    0.345847
    13  O   -0.235321
    14  C    0.185603
    15  O   -0.207671
    16  C    0.412391
    17  C   -0.056773
    18  O   -0.530499
    19  H    0.367422
    20  C    0.190731
    21  O   -0.549582
    22  H    0.339669
    23  C   -0.284948
    24  O   -0.570223
    25  H    0.358897
    26  C   -0.064894
    27  O   -0.231798
    28  C    0.026031
    29  O   -0.527889
    30  H    0.329497
    31  H    0.130988
    32  H    0.139294
    33  H    0.136454
    34  H    0.114691
    35  H    0.115126
    36  H    0.146132
    37  H    0.154068
    38  H    0.349179
    39  H    0.140585
    40  H    0.143679
    41  H    0.110316
    42  H    0.113243
    43  H    0.110871
    44  H    0.118181
    45  H    0.130450
 Sum of Mulliken atomic charges =   0.00000

 Dipole moment (field-independent basis, Debye):
    X=              3.4043    Y=             -1.5507    Z=             -1.7397  Tot=              4.1256
 Quadrupole moment (field-independent basis, Debye-Ang):
   XX=           -125.5141   YY=           -138.0070   ZZ=           -137.9164
   XY=             13.8287   XZ=             -0.1234   YZ=             -2.1377

  Exact polarizability: 232.390  -1.371 197.687   0.999   0.547 142.923
 Approx polarizability: 273.625  -0.726 257.572   1.580   0.203 238.989

 ******    6 imaginary frequencies (negative Signs) ******

                     1                      2                      3
                     A                      A                      A
 Frequencies --  -337.5714              -280.2649              -239.9585
 Red. masses --     1.6271                 1.7645                 1.1829
 Frc consts  --     0.1092                 0.0817                 0.0401
 IR Inten    --     2.2013                 2.5208               104.0334
 Raman Activ --     0.0611                 0.0737                 0.8658

                     4                      5                      6
                     A                      A                      A
 Frequencies --  -132.1313               -64.2587               -47.2368
 Red. masses --     1.4447                 7.0017                 6.2117
 Frc consts  --     0.0149                 0.0170                 0.0082
 IR Inten    --    78.0294                 0.6479                 0.3555
 Raman Activ --     0.3903                 0.0333                 0.0338

                     7                      8                      9
                     A                      A                      A
 Frequencies --    35.0338                51.8135                69.0639
 Red. masses --     5.9070                 5.4965                 6.1663
 Frc consts  --     0.0043                 0.0087                 0.0173
 IR Inten    --     3.2115                 5.1319                 2.1015
 Raman Activ --     0.0487                 0.0450                 0.2243

                    10                     11                     12
                     A                      A                      A
 Frequencies --    80.9359               104.9371               141.9080
 Red. masses --     6.4586                 5.7541                 4.2142
 Frc consts  --     0.0249                 0.0373                 0.0500
 IR Inten    --     0.7822                 0.9060                20.1433
 Raman Activ --     0.1033                 0.1013                 0.1410

                    13                     14                     15
                     A                      A                      A
 Frequencies --   149.8360               174.7126               184.8112
 Red. masses --     6.3729                 6.8639                 6.4984
 Frc consts  --     0.0843                 0.1234                 0.1308
 IR Inten    --     2.8533                 1.0718                 1.5321
 Raman Activ --     0.2727                 0.2886                 0.7625

                    16                     17                     18
                     A                      A                      A
 Frequencies --   203.1145               234.8177               272.4621
 Red. masses --     6.8878                 6.1246                 4.3169
 Frc consts  --     0.1674                 0.1990                 0.1888
 IR Inten    --     0.3019                 2.1245                17.9972
 Raman Activ --     2.0826                 0.8165                 0.6894

                    19                     20                     21
                     A                      A                      A
 Frequencies --   280.8046               294.9758               302.4064
 Red. masses --     5.4161                 4.7067                 5.5014
 Frc consts  --     0.2516                 0.2413                 0.2964
 IR Inten    --     5.0636                 0.6972                 1.0209
 Raman Activ --     0.2735                 0.3937                 0.9681

                    22                     23                     24
                     A                      A                      A
 Frequencies --   308.4199               316.8130               321.6995
 Red. masses --     5.9603                 5.3318                 5.3375
 Frc consts  --     0.3340                 0.3153                 0.3255
 IR Inten    --     1.6013                 1.3337                 1.8668
 Raman Activ --     1.1018                 2.8783                 0.9099

                    25                     26                     27
                     A                      A                      A
 Frequencies --   341.4468               357.9357               393.0651
 Red. masses --     6.8273                 4.5440                 6.6626
 Frc consts  --     0.4690                 0.3430                 0.6065
 IR Inten    --    10.1106                 6.5067                 3.1290
 Raman Activ --     3.7690                 0.1872                 2.4699

                    28                     29                     30
                     A                      A                      A
 Frequencies --   413.0178               427.1322               429.9230
 Red. masses --     4.5665                 5.2801                 5.8531
 Frc consts  --     0.4590                 0.5676                 0.6374
 IR Inten    --    16.3199                 8.2868                 2.0162
 Raman Activ --     1.2532                 6.5776                 4.6780

                    31                     32                     33
                     A                      A                      A
 Frequencies --   441.2204               480.8876               488.5167
 Red. masses --     4.6930                 5.1226                 4.3643
 Frc consts  --     0.5383                 0.6980                 0.6137
 IR Inten    --     3.0296                 4.0526                14.3912
 Raman Activ --     1.8370                 3.7476                 0.7475

                    34                     35                     36
                     A                      A                      A
 Frequencies --   518.9168               537.3915               576.4851
 Red. masses --     3.8668                 2.9982                 3.6690
 Frc consts  --     0.6135                 0.5101                 0.7184
 IR Inten    --    15.4313                 3.4856                 5.8392
 Raman Activ --     1.1133                 3.6869                 2.0891

                    37                     38                     39
                     A                      A                      A
 Frequencies --   592.2791               606.4320               633.8478
 Red. masses --     3.0309                 6.2487                 3.7776
 Frc consts  --     0.6264                 1.3539                 0.8942
 IR Inten    --    59.6556                 5.9647                 9.7083
 Raman Activ --     0.4706                 0.4760                 0.5995

                    40                     41                     42
                     A                      A                      A
 Frequencies --   641.4202               656.7464               690.9838
 Red. masses --     4.2807                 1.1706                 1.2076
 Frc consts  --     1.0377                 0.2975                 0.3397
 IR Inten    --    35.8174               104.8145                80.8531
 Raman Activ --     1.7232                 1.6934                 1.3963

                    43                     44                     45
                     A                      A                      A
 Frequencies --   697.2045               704.0614               783.7005
 Red. masses --     3.0151                 1.1103                 1.0654
 Frc consts  --     0.8635                 0.3243                 0.3855
 IR Inten    --    29.0503                93.1027                83.0028
 Raman Activ --     1.4724                 1.7231                 1.1509

                    46                     47                     48
                     A                      A                      A
 Frequencies --   817.4747               821.6297               836.0508
 Red. masses --     1.0814                 1.1252                 1.8878
 Frc consts  --     0.4258                 0.4475                 0.7774
 IR Inten    --    93.1751               127.6038                 1.5981
 Raman Activ --     1.0056                 4.5215                 0.3715

                    49                     50                     51
                     A                      A                      A
 Frequencies --   858.1086               919.5329               961.8533
 Red. masses --     1.7016                 5.8976                 5.6157
 Frc consts  --     0.7382                 2.9381                 3.0610
 IR Inten    --     3.5596               110.8617                76.7402
 Raman Activ --     0.6715                 2.4672                 1.2355

                    52                     53                     54
                     A                      A                      A
 Frequencies --   973.3572               977.5116               978.7541
 Red. masses --     5.1656                 4.8175                 4.7633
 Frc consts  --     2.8835                 2.7122                 2.6885
 IR Inten    --   124.2367                60.5474                23.0947
 Raman Activ --     1.2736                 2.7011                 1.2396

                    55                     56                     57
                     A                      A                      A
 Frequencies --   993.9622              1009.7659              1020.6239
 Red. masses --     6.6906                 6.2676                 5.3482
 Frc consts  --     3.8945                 3.7653                 3.2824
 IR Inten    --   405.2842                49.5555               149.7808
 Raman Activ --     2.6393                 2.5316                 2.3743

                    58                     59                     60
                     A                      A                      A
 Frequencies --  1036.7219              1056.6418              1072.3447
 Red. masses --     6.7916                 5.6958                 3.4912
 Frc consts  --     4.3008                 3.7468                 2.3654
 IR Inten    --   212.6977               101.2006                 2.4379
 Raman Activ --     3.6437                 1.4090                 7.9166

                    61                     62                     63
                     A                      A                      A
 Frequencies --  1074.5339              1080.3587              1083.3790
 Red. masses --     5.0883                 2.7567                 3.8784
 Frc consts  --     3.4615                 1.8957                 2.6820
 IR Inten    --    50.6015                 2.0938                 8.0655
 Raman Activ --     3.6765                17.9193                12.5060

                    64                     65                     66
                     A                      A                      A
 Frequencies --  1091.3691              1100.4660              1107.2758
 Red. masses --     2.7678                 3.3324                 2.5485
 Frc consts  --     1.9424                 2.3777                 1.8410
 IR Inten    --    74.1512                78.1326                46.9362
 Raman Activ --     2.9487                 7.7147                 4.4614

                    67                     68                     69
                     A                      A                      A
 Frequencies --  1117.5712              1123.8234              1133.2609
 Red. masses --     2.6264                 3.2570                 2.6831
 Frc consts  --     1.9327                 2.4236                 2.0302
 IR Inten    --    51.8499               108.5914                20.6808
 Raman Activ --     3.1821                14.3212                 7.6788

                    70                     71                     72
                     A                      A                      A
 Frequencies --  1149.6774              1156.8940              1160.8050
 Red. masses --     2.5104                 1.8561                 2.5841
 Frc consts  --     1.9550                 1.4637                 2.0515
 IR Inten    --    18.7301                21.7901                20.7336
 Raman Activ --     4.4578                 4.5725                 1.7416

                    73                     74                     75
                     A                      A                      A
 Frequencies --  1173.8677              1175.8137              1188.1732
 Red. masses --     2.0626                 1.7865                 1.6534
 Frc consts  --     1.6746                 1.4552                 1.3753
 IR Inten    --     5.8596                 1.9013                27.3012
 Raman Activ --     1.6756                 2.3349                 1.5686

                    76                     77                     78
                     A                      A                      A
 Frequencies --  1209.9491              1223.4549              1228.0435
 Red. masses --     1.4021                 1.2704                 1.3874
 Frc consts  --     1.2094                 1.1204                 1.2328
 IR Inten    --     9.2431                10.4510                 7.6328
 Raman Activ --     2.9734                 3.4394                 1.0629

                    79                     80                     81
                     A                      A                      A
 Frequencies --  1235.8678              1240.3210              1247.9109
 Red. masses --     1.4076                 1.2086                 1.2544
 Frc consts  --     1.2667                 1.0954                 1.1509
 IR Inten    --    15.2522                 9.0807                 8.8408
 Raman Activ --     1.4387                 0.5702                 1.3358

                    82                     83                     84
                     A                      A                      A
 Frequencies --  1275.9080              1292.8295              1295.2833
 Red. masses --     1.4147                 1.2245                 1.2944
 Frc consts  --     1.3569                 1.2059                 1.2795
 IR Inten    --    40.7982                13.0976                10.9730
 Raman Activ --     3.3355                 4.1602                 3.0538

                    85                     86                     87
                     A                      A                      A
 Frequencies --  1297.5014              1307.8374              1310.7860
 Red. masses --     1.3178                 1.3344                 1.3568
 Frc consts  --     1.3071                 1.3448                 1.3735
 IR Inten    --    25.6995                14.8654                36.2440
 Raman Activ --     2.0527                 6.9220                 1.9167

                    88                     89                     90
                     A                      A                      A
 Frequencies --  1318.8570              1327.1440              1332.8253
 Red. masses --     1.3003                 1.3722                 1.2231
 Frc consts  --     1.3326                 1.4240                 1.2802
 IR Inten    --    18.2789                12.9467                 8.4025
 Raman Activ --     4.5574                 2.4331                 4.5852

                    91                     92                     93
                     A                      A                      A
 Frequencies --  1343.0032              1349.6838              1359.6711
 Red. masses --     1.3272                 1.1494                 1.1240
 Frc consts  --     1.4104                 1.2336                 1.2243
 IR Inten    --    14.0468                26.4039                47.4419
 Raman Activ --     5.4778                 3.0680                 8.1309

                    94                     95                     96
                     A                      A                      A
 Frequencies --  1367.8193              1374.3199              1377.0050
 Red. masses --     1.3942                 1.2532                 1.3351
 Frc consts  --     1.5369                 1.3945                 1.4915
 IR Inten    --     4.2117                12.6847                 3.2697
 Raman Activ --    11.7498                 4.0558                 4.1615

                    97                     98                     99
                     A                      A                      A
 Frequencies --  1393.3148              1400.1159              1405.1467
 Red. masses --     1.5816                 1.2496                 1.4991
 Frc consts  --     1.8090                 1.4432                 1.7439
 IR Inten    --    30.8013                27.1537                 4.7809
 Raman Activ --     1.3884                 2.2236                 5.6640

                   100                    101                    102
                     A                      A                      A
 Frequencies --  1420.7205              1457.8747              1461.3052
 Red. masses --     1.2709                 1.3717                 1.2697
 Frc consts  --     1.5114                 1.7177                 1.5974
 IR Inten    --     4.1301                16.1110                50.9170
 Raman Activ --     2.2252                 1.1524                 0.2906

                   103                    104                    105
                     A                      A                      A
 Frequencies --  1465.5071              1472.3162              1485.5203
 Red. masses --     1.0862                 1.1084                 1.3545
 Frc consts  --     1.3745                 1.4156                 1.7611
 IR Inten    --     2.0948                 1.6835                76.1589
 Raman Activ --     4.7652                 3.9373                 1.7267

                   106                    107                    108
                     A                      A                      A
 Frequencies --  1492.4857              1551.2721              3251.3083
 Red. masses --     1.3036                 1.2281                 1.0589
 Frc consts  --     1.7109                 1.7413                 6.5948
 IR Inten    --    26.9077                41.6005                27.1791
 Raman Activ --     1.3978                 1.0528                72.3386

                   109                    110                    111
                     A                      A                      A
 Frequencies --  3258.5018              3263.4328              3264.1519
 Red. masses --     1.0677                 1.0802                 1.0746
 Frc consts  --     6.6792                 6.7777                 6.7459
 IR Inten    --    41.9780                43.1460                27.0242
 Raman Activ --    79.0301                21.7216                24.7170

                   112                    113                    114
                     A                      A                      A
 Frequencies --  3266.6497              3273.6167              3283.0788
 Red. masses --     1.0817                 1.0832                 1.0851
 Frc consts  --     6.8011                 6.8394                 6.8911
 IR Inten    --    12.2140                47.2434                 9.4537
 Raman Activ --    97.0263               132.5158                 4.3273

                   115                    116                    117
                     A                      A                      A
 Frequencies --  3285.4682              3286.9605              3291.7509
 Red. masses --     1.0860                 1.0835                 1.0728
 Frc consts  --     6.9065                 6.8970                 6.8489
 IR Inten    --    39.9260                40.6037               342.2942
 Raman Activ --    32.5208               228.8554               129.4758

                   118                    119                    120
                     A                      A                      A
 Frequencies --  3295.0386              3300.9105              3303.2780
 Red. masses --     1.0873                 1.0937                 1.0906
 Frc consts  --     6.9552                 7.0210                 7.0111
 IR Inten    --    10.8233                20.2703               100.9700
 Raman Activ --    23.3061                31.8287                 8.3633

                   121                    122                    123
                     A                      A                      A
 Frequencies --  3308.3758              3314.8535              3316.3733
 Red. masses --     1.0867                 1.1004                 1.0726
 Frc consts  --     7.0081                 7.1238                 6.9503
 IR Inten    --    70.0319               156.8877               416.7930
 Raman Activ --    13.9142                58.0258               106.2097

                   124                    125                    126
                     A                      A                      A
 Frequencies --  3346.2936              3358.2496              3361.7024
 Red. masses --     1.0648                 1.0673                 1.0685
 Frc consts  --     7.0247                 7.0916                 7.1147
 IR Inten    --    56.9691                45.0754                47.2903
 Raman Activ --    79.2955               179.6545               129.7422

                   127                    128                    129
                     A                      A                      A
 Frequencies --  3380.0479              3888.9719              3890.1581
 Red. masses --     1.0680                 1.0677                 1.0674
 Frc consts  --     7.1888                 9.5139                 9.5176
 IR Inten    --    67.8573                87.3121                60.5904
 Raman Activ --   166.4344                72.4613               122.3031

 - Thermochemistry -
 -------------------
 Temperature   298.150 Kelvin.  Pressure   1.00000 Atm.
 Atom     1 has atomic number  8 and mass  15.99491

 Molecular mass:   342.11621 amu.
 Principal axes and moments of inertia in atomic units:
                           1         2         3
     Eigenvalues --  4422.92511********************
           X            0.99997   0.00758  -0.00033
           Y           -0.00758   0.99997   0.00070
           Z            0.00033  -0.00070   1.00000
 This molecule is an asymmetric top.
 Rotational symmetry number  1.
 Warning -- assumption of classical behavior for rotation
           may cause significant error
 Rotational temperatures (Kelvin)      0.01958     0.00700     0.00529
 Rotational constants (GHZ):           0.40804     0.14596     0.11014
    6 imaginary frequencies ignored.
 Zero-point vibrational energy     976772.2 (Joules/Mol)
                                  233.45415 (Kcal/Mol)
 Warning -- explicit consideration of  32 degrees of freedom as
           vibrations may cause significant error
 Vibrational temperatures:     50.41    74.55    99.37   116.45   150.98
          (Kelvin)            204.17   215.58   251.37   265.90   292.24
                              337.85   392.01   404.01   424.40   435.09
                              443.75   455.82   462.85   491.27   514.99
                              565.53   594.24   614.55   618.56   634.82
                              691.89   702.87   746.60   773.19   829.43
                              852.16   872.52   911.96   922.86   944.91
                              994.17  1003.12  1012.99  1127.57  1176.16
                             1182.14  1202.89  1234.63  1323.00  1383.89
                             1400.44  1406.42  1408.21  1430.09  1452.83
                             1468.45  1491.61  1520.27  1542.86  1546.01
                             1554.39  1558.74  1570.23  1583.32  1593.12
                             1607.93  1616.93  1630.51  1654.13  1664.51
                             1670.14  1688.93  1691.73  1709.51  1740.84
                             1760.28  1766.88  1778.14  1784.54  1795.46
                             1835.74  1860.09  1863.62  1866.81  1881.68
                             1885.93  1897.54  1909.46  1917.64  1932.28
                             1941.89  1956.26  1967.98  1977.34  1981.20
                             2004.67  2014.45  2021.69  2044.10  2097.55
                             2102.49  2108.54  2118.33  2137.33  2147.35
                             2231.93  4677.90  4688.25  4695.35  4696.38
                             4699.97  4710.00  4723.61  4727.05  4729.20
                             4736.09  4740.82  4749.27  4752.67  4760.01
                             4769.33  4771.52  4814.56  4831.77  4836.73
                             4863.13  5595.36  5597.06

 Zero-point correction=                           0.372033 (Hartree/Particle)
 Thermal correction to Energy=                    0.391070
 Thermal correction to Enthalpy=                  0.392014
 Thermal correction to Gibbs Free Energy=         0.325191
 Sum of electronic and zero-point Energies=          -1297.607976
 Sum of electronic and thermal Energies=             -1297.588939
 Sum of electronic and thermal Enthalpies=           -1297.587994
 Sum of electronic and thermal Free Energies=        -1297.654817

                     E (Thermal)             CV                S
                      KCal/Mol        Cal/Mol-Kelvin    Cal/Mol-Kelvin
 Total                  245.400             77.613            140.641
 Electronic               0.000              0.000              0.000
 Translational            0.889              2.981             43.384
 Rotational               0.889              2.981             35.148
 Vibrational            243.623             71.651             62.109
 Vibration     1          0.594              1.982              5.522
 Vibration     2          0.596              1.977              4.747
 Vibration     3          0.598              1.969              4.180
 Vibration     4          0.600              1.962              3.868
 Vibration     5          0.605              1.945              3.360
 Vibration     6          0.615              1.911              2.778
 Vibration     7          0.618              1.903              2.674
 Vibration     8          0.627              1.874              2.384
 Vibration     9          0.631              1.861              2.279
 Vibration    10          0.639              1.835              2.105
 Vibration    11          0.655              1.788              1.842
 Vibration    12          0.675              1.724              1.581
 Vibration    13          0.680              1.709              1.529
 Vibration    14          0.689              1.683              1.445
 Vibration    15          0.694              1.669              1.404
 Vibration    16          0.698              1.658              1.371
 Vibration    17          0.704              1.642              1.327
 Vibration    18          0.707              1.632              1.301
 Vibration    19          0.721              1.593              1.205
 Vibration    20          0.733              1.559              1.131
 Vibration    21          0.760              1.485              0.988
 Vibration    22          0.777              1.442              0.916
 Vibration    23          0.789              1.411              0.868
 Vibration    24          0.791              1.405              0.859
 Vibration    25          0.801              1.380              0.823
 Vibration    26          0.837              1.292              0.708
 Vibration    27          0.844              1.276              0.687
 Vibration    28          0.874              1.208              0.612
 Vibration    29          0.892              1.167              0.571
 Vibration    30          0.933              1.082              0.492
 Vibration    31          0.950              1.048              0.463
 Vibration    32          0.965              1.018              0.439

 Normal termination of Gaussian 09 at Fri Apr  1 09:37:23 2016.
