 Gaussian 09, Revision B.01,
 Gaussian 09:  EM64L-G09RevB.01 12-Aug-2010

 -------------------------------------------------
 # freq=raman b3lyp/6-31+g(2d,p) geom=connectivity
 -------------------------------------------------

 -----------------
 320 5610/5610.com
 -----------------
 Symbolic Z-matrix:
 Charge =  0 Multiplicity = 1

                         Standard orientation:
 ---------------------------------------------------------------------
 Center     Atomic      Atomic             Coordinates (Angstroms)
 Number     Number       Type             X           Y           Z
 ---------------------------------------------------------------------
      1          8           0        5.042265   -0.382004   -0.215934
      2          6           0        3.702065   -0.081502    0.199610
      3          6           0        3.201700    1.184942   -0.474160
      4          8           0        4.179000    2.235592   -0.451563
      5          1           0        5.045503    1.756676   -0.586880
      6          6           0        1.867074    1.634810    0.098915
      7          8           0        1.234147    2.784625   -0.479767
      8          1           0        0.378549    2.921639    0.020134
      9          6           0        3.054151   -2.563183    0.269240
     10          8           0        4.250759   -3.127246   -0.287951
     11          1           0        4.284178   -4.124510   -0.355132
     12          6           0        2.655307   -1.143024   -0.097423
     13          8           0        1.463041   -0.698402    0.566954
     14          6           0        0.883827    0.481607   -0.008237
     15          8           0       -0.328659    0.613063    0.748866
     16          6           0       -1.533167    0.245600    0.060850
     17          6           0       -2.010915   -1.159094    0.389208
     18          8           0       -0.979151   -2.152323    0.289114
     19          1           0       -0.114663   -1.758401    0.602332
     20          6           0       -3.255344   -1.595430   -0.367350
     21          8           0       -3.692803   -2.899736    0.039481
     22          1           0       -4.548130   -3.086725   -0.443379
     23          6           0       -2.444712    2.669979    0.039582
     24          8           0       -1.312876    3.394041    0.544403
     25          1           0       -1.336760    4.378751    0.372575
     26          6           0       -2.665213    1.206261    0.384390
     27          8           0       -3.844177    0.837450   -0.347016
     28          6           0       -4.270767   -0.503881   -0.069374
     29          8           0       -5.471388   -0.747341   -0.816938
     30          1           0       -6.189451   -0.948731   -0.212431
     31          1           0       -3.318714    3.198957    0.357705
     32          1           0       -2.403868    2.734787   -1.027672
     33          1           0       -2.878641    1.134472    1.430427
     34          1           0       -1.343349    0.295544   -0.990993
     35          1           0       -2.292204   -1.134251    1.421273
     36          1           0       -3.045351   -1.605263   -1.416495
     37          1           0       -4.514108   -0.560321    0.971058
     38          1           0        5.582649   -0.567013    0.555659
     39          1           0        2.242195   -3.203126   -0.006622
     40          1           0        3.149914   -2.602008    1.334239
     41          1           0        2.465863   -1.124931   -1.150364
     42          1           0        3.713887    0.085684    1.256402
     43          1           0        3.031589    0.942405   -1.502332
     44          1           0        2.016842    1.839512    1.138418
     45          1           0        0.648774    0.302581   -1.036634
 ---------------------------------------------------------------------

 SCF Done:  E(RB3LYP) =  -1297.98952293     A.U. after   13 cycles

 The electronic state is 1-A.
 Alpha  occ. eigenvalues --  -19.18549 -19.18509 -19.18478 -19.18389 -19.18143
 Alpha  occ. eigenvalues --  -19.17165 -19.16753 -19.16144 -19.14733 -19.13998
 Alpha  occ. eigenvalues --  -19.13932 -10.30709 -10.30605 -10.26603 -10.25907
 Alpha  occ. eigenvalues --  -10.25717 -10.25374 -10.25119 -10.25108 -10.24574
 Alpha  occ. eigenvalues --  -10.24487 -10.24330 -10.24320  -1.10300  -1.09243
 Alpha  occ. eigenvalues --   -1.05493  -1.04910  -1.04087  -1.03915  -1.02995
 Alpha  occ. eigenvalues --   -1.02355  -1.01845  -1.00626  -1.00317  -0.82363
 Alpha  occ. eigenvalues --   -0.80666  -0.79978  -0.78638  -0.72289  -0.70478
 Alpha  occ. eigenvalues --   -0.67135  -0.64673  -0.63394  -0.62588  -0.61752
 Alpha  occ. eigenvalues --   -0.60702  -0.56363  -0.55762  -0.55380  -0.54718
 Alpha  occ. eigenvalues --   -0.54180  -0.53535  -0.53027  -0.51862  -0.51555
 Alpha  occ. eigenvalues --   -0.50757  -0.49902  -0.49560  -0.48948  -0.46526
 Alpha  occ. eigenvalues --   -0.46258  -0.45610  -0.44679  -0.43816  -0.43457
 Alpha  occ. eigenvalues --   -0.42748  -0.42023  -0.41627  -0.40340  -0.39541
 Alpha  occ. eigenvalues --   -0.38784  -0.37944  -0.36938  -0.35986  -0.35623
 Alpha  occ. eigenvalues --   -0.35507  -0.35259  -0.34246  -0.34106  -0.33864
 Alpha  occ. eigenvalues --   -0.33028  -0.31362  -0.31080  -0.30803  -0.30181
 Alpha  occ. eigenvalues --   -0.29089  -0.28745  -0.28513  -0.27405  -0.26782
 Alpha  occ. eigenvalues --   -0.26655
 Alpha virt. eigenvalues --   -0.02034  -0.01940  -0.01817  -0.00167   0.00303
 Alpha virt. eigenvalues --    0.01069   0.01792   0.02296   0.03202   0.03432
 Alpha virt. eigenvalues --    0.03961   0.04291   0.04777   0.05361   0.05398

 Mulliken atomic charges:
              1
     1  O   -0.558545
     2  C   -0.043383
     3  C    0.255454
     4  O   -0.561409
     5  H    0.352344
     6  C   -0.221834
     7  O   -0.562840
     8  H    0.408138
     9  C   -0.265026
    10  O   -0.532178
    11  H    0.353604
    12  C    0.246652
    13  O   -0.275285
    14  C    0.299680
    15  O   -0.233776
    16  C    0.296343
    17  C    0.156379
    18  O   -0.575502
    19  H    0.380580
    20  C    0.007302
    21  O   -0.525438
    22  H    0.338141
    23  C   -0.280537
    24  O   -0.574373
    25  H    0.363326
    26  C   -0.083155
    27  O   -0.246831
    28  C    0.191492
    29  O   -0.556345
    30  H    0.337621
    31  H    0.149487
    32  H    0.157150
    33  H    0.122048
    34  H    0.107649
    35  H    0.109197
    36  H    0.127790
    37  H    0.119922
    38  H    0.344316
    39  H    0.150523
    40  H    0.141553
    41  H    0.108744
    42  H    0.115498
    43  H    0.108559
    44  H    0.123940
    45  H    0.123026
 Sum of Mulliken atomic charges =   0.00000

 Dipole moment (field-independent basis, Debye):
    X=             -2.4416    Y=             -0.8134    Z=              1.9928  Tot=              3.2549
 Quadrupole moment (field-independent basis, Debye-Ang):
   XX=           -119.4457   YY=           -135.1499   ZZ=           -139.9334
   XY=            -16.9210   XZ=              2.4490   YZ=              4.2380

  Exact polarizability: 232.300   0.733 199.242   1.044   0.141 143.826
 Approx polarizability: 273.627   0.127 259.232   1.491   0.665 239.683

 ******    6 imaginary frequencies (negative Signs) ******

                     1                      2                      3
                     A                      A                      A
 Frequencies --  -298.3492              -286.8259              -204.2743
 Red. masses --     1.7367                 1.7756                 1.1812
 Frc consts  --     0.0911                 0.0861                 0.0290
 IR Inten    --    10.2138                 6.1872                73.8231
 Raman Activ --     0.1018                 0.0514                 0.6919

                     4                      5                      6
                     A                      A                      A
 Frequencies --  -198.9237               -58.2890               -54.2891
 Red. masses --     1.2168                 7.0489                 6.2469
 Frc consts  --     0.0284                 0.0141                 0.0108
 IR Inten    --   119.9309                 0.7104                 0.1383
 Raman Activ --     0.7644                 0.0544                 0.0343

                     7                      8                      9
                     A                      A                      A
 Frequencies --    55.0200                58.8142                91.8679
 Red. masses --     6.7864                 6.8909                 6.5237
 Frc consts  --     0.0121                 0.0140                 0.0324
 IR Inten    --     1.5073                 0.7137                 4.1866
 Raman Activ --     0.0761                 0.0770                 0.1220

                    10                     11                     12
                     A                      A                      A
 Frequencies --    96.5085               116.8385               135.3500
 Red. masses --     6.4571                 5.8812                 5.7402
 Frc consts  --     0.0354                 0.0473                 0.0620
 IR Inten    --     1.1180                 5.2646                 2.5157
 Raman Activ --     0.1936                 0.0670                 0.0486

                    13                     14                     15
                     A                      A                      A
 Frequencies --   152.4257               170.7191               188.1897
 Red. masses --     6.5360                 6.0976                 7.1616
 Frc consts  --     0.0895                 0.1047                 0.1494
 IR Inten    --     5.1246                 2.9804                 0.0639
 Raman Activ --     0.5514                 0.8008                 0.2572

                    16                     17                     18
                     A                      A                      A
 Frequencies --   203.1261               231.6543               274.3312
 Red. masses --     6.0324                 6.2049                 4.4866
 Frc consts  --     0.1466                 0.1962                 0.1989
 IR Inten    --     1.1217                 1.7211                11.4907
 Raman Activ --     1.1873                 1.1862                 0.5557

                    19                     20                     21
                     A                      A                      A
 Frequencies --   282.3452               294.8215               301.0866
 Red. masses --     4.4234                 5.1188                 5.7762
 Frc consts  --     0.2078                 0.2621                 0.3085
 IR Inten    --     5.3810                 2.1000                 6.4204
 Raman Activ --     0.1660                 0.1239                 0.4433

                    22                     23                     24
                     A                      A                      A
 Frequencies --   309.5669               311.1829               314.5237
 Red. masses --     5.5557                 5.3871                 5.3503
 Frc consts  --     0.3137                 0.3074                 0.3118
 IR Inten    --     4.8134                 1.8572                 9.4759
 Raman Activ --     2.0352                 1.8835                 1.3695

                    25                     26                     27
                     A                      A                      A
 Frequencies --   329.8100               351.2394               377.5570
 Red. masses --     6.7370                 4.4870                 8.6883
 Frc consts  --     0.4318                 0.3261                 0.7297
 IR Inten    --     7.5999                 4.3517                 2.5062
 Raman Activ --     5.8636                 0.2772                 3.2231

                    28                     29                     30
                     A                      A                      A
 Frequencies --   402.2723               414.9583               424.6335
 Red. masses --     5.7825                 5.4639                 4.2497
 Frc consts  --     0.5513                 0.5543                 0.4515
 IR Inten    --    11.2424                 7.4251                 9.7587
 Raman Activ --     2.3249                 0.2317                 5.7271

                    31                     32                     33
                     A                      A                      A
 Frequencies --   433.5097               477.0632               485.7989
 Red. masses --     5.3749                 4.3349                 4.0969
 Frc consts  --     0.5951                 0.5813                 0.5697
 IR Inten    --     6.5064                 6.7057                10.2662
 Raman Activ --     3.3041                 3.3235                 0.7453

                    34                     35                     36
                     A                      A                      A
 Frequencies --   501.3385               527.9748               561.3909
 Red. masses --     4.4746                 3.2733                 3.9389
 Frc consts  --     0.6626                 0.5376                 0.7314
 IR Inten    --     7.4444                 8.3692                23.9223
 Raman Activ --     2.6815                 4.4326                 0.9735

                    37                     38                     39
                     A                      A                      A
 Frequencies --   582.2437               584.3290               602.7253
 Red. masses --     2.7189                 5.5622                 3.2751
 Frc consts  --     0.5431                 1.1189                 0.7010
 IR Inten    --    33.8414                 4.0706                24.1684
 Raman Activ --     0.4500                 0.8490                 1.1603

                    40                     41                     42
                     A                      A                      A
 Frequencies --   611.7843               626.9100               679.7477
 Red. masses --     2.3614                 1.6665                 1.2616
 Frc consts  --     0.5207                 0.3859                 0.3435
 IR Inten    --    31.4995                95.8653                80.2997
 Raman Activ --     0.5573                 2.4097                 1.9458

                    43                     44                     45
                     A                      A                      A
 Frequencies --   680.4174               745.5273               767.5346
 Red. masses --     3.1541                 1.0756                 1.0757
 Frc consts  --     0.8604                 0.3522                 0.3734
 IR Inten    --    52.2440                96.3480                91.0574
 Raman Activ --     0.5500                 1.7347                 1.3608

                    46                     47                     48
                     A                      A                      A
 Frequencies --   794.5266               846.3549               853.4016
 Red. masses --     1.0740                 1.3093                 1.7329
 Frc consts  --     0.3995                 0.5526                 0.7436
 IR Inten    --   110.4489                42.6913                11.4662
 Raman Activ --     2.0128                 1.1670                 0.4144

                    49                     50                     51
                     A                      A                      A
 Frequencies --   873.9080               925.4728               955.2180
 Red. masses --     1.4533                 5.8149                 5.4589
 Frc consts  --     0.6540                 2.9344                 2.9347
 IR Inten    --    18.4377               141.9692                69.1047
 Raman Activ --     0.5607                 2.2557                 0.4682

                    52                     53                     54
                     A                      A                      A
 Frequencies --   969.4724               974.7396               985.3957
 Red. masses --     6.0999                 4.3880                 5.5701
 Frc consts  --     3.3779                 2.4564                 3.1867
 IR Inten    --    18.5522               132.2067                42.6995
 Raman Activ --     2.0441                 0.6315                 0.7929

                    55                     56                     57
                     A                      A                      A
 Frequencies --   988.2188              1010.4993              1019.4456
 Red. masses --     6.1451                 5.7818                 5.4688
 Frc consts  --     3.5358                 3.4784                 3.3486
 IR Inten    --   418.8198                55.7207               183.7305
 Raman Activ --     0.6173                 2.3867                 2.5337

                    58                     59                     60
                     A                      A                      A
 Frequencies --  1029.0482              1049.0332              1056.0002
 Red. masses --     7.4666                 7.0064                 5.8935
 Frc consts  --     4.6585                 4.5428                 3.8721
 IR Inten    --   328.3499               161.9819                 7.1016
 Raman Activ --     2.9419                 0.0483                 6.1643

                    61                     62                     63
                     A                      A                      A
 Frequencies --  1068.5566              1069.5159              1076.9401
 Red. masses --     4.3884                 4.9160                 2.8643
 Frc consts  --     2.9523                 3.3131                 1.9572
 IR Inten    --    20.3768                 1.1180                 8.1491
 Raman Activ --     9.4456                 0.3393                23.5609

                    64                     65                     66
                     A                      A                      A
 Frequencies --  1100.8698              1109.8372              1113.9662
 Red. masses --     2.3127                 2.9373                 2.9664
 Frc consts  --     1.6514                 2.1317                 2.1688
 IR Inten    --   103.3828                26.9525                80.3424
 Raman Activ --     5.7925                13.9068                 1.6052

                    67                     68                     69
                     A                      A                      A
 Frequencies --  1120.4899              1137.6144              1141.6859
 Red. masses --     2.4701                 2.8046                 2.8204
 Frc consts  --     1.8272                 2.1385                 2.1660
 IR Inten    --    13.5001                30.6562                25.0134
 Raman Activ --     2.8268                 5.5762                 6.3395

                    70                     71                     72
                     A                      A                      A
 Frequencies --  1150.8931              1159.9525              1162.0086
 Red. masses --     3.4317                 2.1594                 1.7738
 Frc consts  --     2.6781                 1.7118                 1.4112
 IR Inten    --    42.1172                 4.4131                 6.5142
 Raman Activ --     4.6722                 3.7186                 1.1887

                    73                     74                     75
                     A                      A                      A
 Frequencies --  1171.9970              1181.9522              1191.2967
 Red. masses --     1.9425                 2.0944                 1.9194
 Frc consts  --     1.5720                 1.7239                 1.6049
 IR Inten    --    20.7829                 9.4929                11.0600
 Raman Activ --     3.4037                 0.8944                 2.3029

                    76                     77                     78
                     A                      A                      A
 Frequencies --  1213.7208              1222.2113              1239.4158
 Red. masses --     1.2048                 1.4481                 1.3157
 Frc consts  --     1.0457                 1.2745                 1.1908
 IR Inten    --    20.3781                 2.8107                13.7713
 Raman Activ --     3.5766                 1.9406                 2.3958

                    79                     80                     81
                     A                      A                      A
 Frequencies --  1253.1781              1258.4180              1261.1677
 Red. masses --     1.2058                 1.2386                 1.2198
 Frc consts  --     1.1157                 1.1557                 1.1431
 IR Inten    --     0.7794                14.6420                27.7463
 Raman Activ --     0.6088                 3.0987                 0.8028

                    82                     83                     84
                     A                      A                      A
 Frequencies --  1277.8307              1287.9959              1293.4697
 Red. masses --     1.2047                 1.1912                 1.3468
 Frc consts  --     1.1590                 1.1643                 1.3276
 IR Inten    --    20.7708                34.1548                23.7841
 Raman Activ --     2.9588                 4.7089                 1.5051

                    85                     86                     87
                     A                      A                      A
 Frequencies --  1294.9775              1305.7166              1309.5770
 Red. masses --     1.3213                 1.2128                 1.2801
 Frc consts  --     1.3055                 1.2183                 1.2935
 IR Inten    --     1.2402                 9.9977                11.7588
 Raman Activ --     0.9668                 2.0929                 4.6751

                    88                     89                     90
                     A                      A                      A
 Frequencies --  1314.6617              1329.0907              1336.1726
 Red. masses --     1.2302                 1.1912                 1.1992
 Frc consts  --     1.2527                 1.2397                 1.2614
 IR Inten    --    21.0430                59.4328                32.3839
 Raman Activ --     1.9015                 2.7759                14.8243

                    91                     92                     93
                     A                      A                      A
 Frequencies --  1341.9319              1345.3663              1361.2257
 Red. masses --     1.2563                 1.2851                 1.2209
 Frc consts  --     1.3329                 1.3704                 1.3329
 IR Inten    --    11.1624                 6.2851                22.1543
 Raman Activ --     4.1207                 1.8427                 3.9869

                    94                     95                     96
                     A                      A                      A
 Frequencies --  1363.1774              1377.4200              1388.3261
 Red. masses --     1.1859                 1.5276                 1.3922
 Frc consts  --     1.2984                 1.7076                 1.5810
 IR Inten    --    20.3185                 4.5024                 4.3355
 Raman Activ --     3.5823                 7.9318                 6.6455

                    97                     98                     99
                     A                      A                      A
 Frequencies --  1388.9778              1397.9857              1406.4820
 Red. masses --     1.3741                 1.3974                 1.3602
 Frc consts  --     1.5619                 1.6090                 1.5854
 IR Inten    --     5.1012                 3.3095                 3.0652
 Raman Activ --     2.2689                 2.7629                 8.7116

                   100                    101                    102
                     A                      A                      A
 Frequencies --  1426.9160              1435.6550              1445.5090
 Red. masses --     1.4413                 1.3827                 1.4185
 Frc consts  --     1.7290                 1.6791                 1.7463
 IR Inten    --    20.9648                25.7753                14.2224
 Raman Activ --     1.5273                 0.9483                 1.0688

                   103                    104                    105
                     A                      A                      A
 Frequencies --  1466.3449              1472.3126              1476.5178
 Red. masses --     1.3544                 1.0867                 1.0876
 Frc consts  --     1.7159                 1.3879                 1.3970
 IR Inten    --    51.6262                 1.7664                 2.2443
 Raman Activ --     0.6414                 3.8010                 4.3396

                   106                    107                    108
                     A                      A                      A
 Frequencies --  1492.6390              1502.6778              3255.0553
 Red. masses --     1.3081                 1.2896                 1.0720
 Frc consts  --     1.7172                 1.7157                 6.6920
 IR Inten    --    43.6177                54.0401                36.2699
 Raman Activ --     1.9337                 1.8008                14.0817

                   109                    110                    111
                     A                      A                      A
 Frequencies --  3255.1866              3257.8290              3260.1966
 Red. masses --     1.0653                 1.0717                 1.0728
 Frc consts  --     6.6510                 6.7015                 6.7185
 IR Inten    --    15.3439               240.4993               127.3386
 Raman Activ --   113.7291                12.4020               105.0346

                   112                    113                    114
                     A                      A                      A
 Frequencies --  3268.2901              3269.3509              3269.6074
 Red. masses --     1.0820                 1.0687                 1.0811
 Frc consts  --     6.8095                 6.7303                 6.8094
 IR Inten    --     0.2181               263.2888                 6.8742
 Raman Activ --    12.9279               249.2409                64.0516

                   115                    116                    117
                     A                      A                      A
 Frequencies --  3272.3625              3277.3380              3282.6281
 Red. masses --     1.0822                 1.0816                 1.0861
 Frc consts  --     6.8279                 6.8451                 6.8955
 IR Inten    --    12.3039                20.9782                 5.8465
 Raman Activ --   188.4263               103.8867                32.5401

                   118                    119                    120
                     A                      A                      A
 Frequencies --  3286.8905              3295.3103              3296.1572
 Red. masses --     1.0851                 1.0858                 1.0824
 Frc consts  --     6.9071                 6.9468                 6.9286
 IR Inten    --     5.6168                53.9367               267.6114
 Raman Activ --    16.7677                14.7015                16.9637

                   121                    122                    123
                     A                      A                      A
 Frequencies --  3302.5155              3310.3809              3315.5620
 Red. masses --     1.0758                 1.1032                 1.1052
 Frc consts  --     6.9132                 7.1227                 7.1584
 IR Inten    --   374.7676                92.8087                48.0771
 Raman Activ --   107.9369                51.2523                51.2862

                   124                    125                    126
                     A                      A                      A
 Frequencies --  3366.9927              3367.7125              3374.2348
 Red. masses --     1.0655                 1.0682                 1.0666
 Frc consts  --     7.1171                 7.1383                 7.1546
 IR Inten    --    22.2625               100.6664               100.8345
 Raman Activ --    48.1893               225.4272                58.4578

                   127                    128                    129
                     A                      A                      A
 Frequencies --  3374.4480              3890.2993              3890.7459
 Red. masses --     1.0666                 1.0676                 1.0676
 Frc consts  --     7.1557                 9.5198                 9.5215
 IR Inten    --    20.4745                98.2196                69.5503
 Raman Activ --   221.9634                68.0231               118.2507

 - Thermochemistry -
 -------------------
 Temperature   298.150 Kelvin.  Pressure   1.00000 Atm.
 Atom     1 has atomic number  8 and mass  15.99491

 Molecular mass:   342.11621 amu.
 Principal axes and moments of inertia in atomic units:
                           1         2         3
     Eigenvalues --  4532.21282********************
           X            0.99996  -0.00842  -0.00011
           Y            0.00842   0.99996   0.00037
           Z            0.00010  -0.00037   1.00000
 This molecule is an asymmetric top.
 Rotational symmetry number  1.
 Warning -- assumption of classical behavior for rotation
           may cause significant error
 Rotational temperatures (Kelvin)      0.01911     0.00704     0.00530
 Rotational constants (GHZ):           0.39820     0.14664     0.11053
    6 imaginary frequencies ignored.
 Zero-point vibrational energy     975384.8 (Joules/Mol)
                                  233.12257 (Kcal/Mol)
 Warning -- explicit consideration of  34 degrees of freedom as
           vibrations may cause significant error
 Vibrational temperatures:     79.16    84.62   132.18   138.85   168.10
          (Kelvin)            194.74   219.31   245.63   270.76   292.25
                              333.30   394.70   406.23   424.18   433.20
                              445.40   447.72   452.53   474.52   505.35
                              543.22   578.78   597.03   610.95   623.72
                              686.39   698.96   721.31   759.64   807.72
                              837.72   840.72   867.19   880.22   901.98
                              978.00   978.97  1072.65  1104.31  1143.15
                             1217.71  1227.85  1257.36  1331.55  1374.34
                             1394.85  1402.43  1417.76  1421.82  1453.88
                             1466.75  1480.57  1509.32  1519.35  1537.41
                             1538.79  1549.47  1583.90  1596.81  1602.75
                             1612.13  1636.77  1642.63  1655.88  1668.91
                             1671.87  1686.24  1700.56  1714.01  1746.27
                             1758.49  1783.24  1803.04  1810.58  1814.54
                             1838.51  1853.14  1861.01  1863.18  1878.63
                             1884.19  1891.50  1912.26  1922.45  1930.74
                             1935.68  1958.50  1961.31  1981.80  1997.49
                             1998.43  2011.39  2023.61  2053.01  2065.58
                             2079.76  2109.74  2118.33  2124.38  2147.57
                             2162.02  4683.29  4683.48  4687.28  4690.69
                             4702.33  4703.86  4704.23  4708.19  4715.35
                             4722.96  4729.10  4741.21  4742.43  4751.58
                             4762.89  4770.35  4844.35  4845.38  4854.77
                             4855.07  5597.27  5597.91

 Zero-point correction=                           0.371504 (Hartree/Particle)
 Thermal correction to Energy=                    0.390571
 Thermal correction to Enthalpy=                  0.391515
 Thermal correction to Gibbs Free Energy=         0.325426
 Sum of electronic and zero-point Energies=          -1297.618018
 Sum of electronic and thermal Energies=             -1297.598952
 Sum of electronic and thermal Enthalpies=           -1297.598008
 Sum of electronic and thermal Free Energies=        -1297.664097

                     E (Thermal)             CV                S
                      KCal/Mol        Cal/Mol-Kelvin    Cal/Mol-Kelvin
 Total                  245.087             78.064            139.097
 Electronic               0.000              0.000              0.000
 Translational            0.889              2.981             43.384
 Rotational               0.889              2.981             35.164
 Vibrational            243.310             72.103             60.549
 Vibration     1          0.596              1.976              4.628
 Vibration     2          0.596              1.974              4.497
 Vibration     3          0.602              1.955              3.620
 Vibration     4          0.603              1.952              3.524
 Vibration     5          0.608              1.935              3.152
 Vibration     6          0.613              1.918              2.869
 Vibration     7          0.619              1.900              2.642
 Vibration     8          0.626              1.879              2.428
 Vibration     9          0.633              1.856              2.246
 Vibration    10          0.639              1.835              2.105
 Vibration    11          0.653              1.793              1.866
 Vibration    12          0.677              1.721              1.569
 Vibration    13          0.681              1.706              1.519
 Vibration    14          0.689              1.683              1.446
 Vibration    15          0.693              1.672              1.411
 Vibration    16          0.699              1.655              1.365
 Vibration    17          0.700              1.652              1.356
 Vibration    18          0.702              1.646              1.338
 Vibration    19          0.713              1.616              1.261
 Vibration    20          0.728              1.573              1.161
 Vibration    21          0.748              1.518              1.049
 Vibration    22          0.768              1.465              0.954
 Vibration    23          0.778              1.438              0.909
 Vibration    24          0.787              1.417              0.876
 Vibration    25          0.794              1.397              0.847
 Vibration    26          0.834              1.301              0.718
 Vibration    27          0.842              1.282              0.695
 Vibration    28          0.857              1.247              0.655
 Vibration    29          0.883              1.188              0.592
 Vibration    30          0.917              1.115              0.521
 Vibration    31          0.939              1.070              0.481
 Vibration    32          0.941              1.065              0.477
 Vibration    33          0.961              1.026              0.445
 Vibration    34          0.971              1.007              0.430

 Normal termination of Gaussian 09 at Thu Mar 24 14:23:07 2016.
