 Gaussian 09, Revision B.01,
 Gaussian 09:  EM64L-G09RevB.01 12-Aug-2010

 -------------------------------------------------
 # freq=raman b3lyp/6-31+g(2d,p) geom=connectivity
 -------------------------------------------------

 -----------------
 320 5661/5661.com
 -----------------
 Symbolic Z-matrix:
 Charge =  0 Multiplicity = 1

                         Standard orientation:
 ---------------------------------------------------------------------
 Center     Atomic      Atomic             Coordinates (Angstroms)
 Number     Number       Type             X           Y           Z
 ---------------------------------------------------------------------
      1          8           0        5.103089   -0.282971   -0.223914
      2          6           0        3.755016   -0.084835    0.226496
      3          6           0        3.180363    1.211236   -0.320111
      4          8           0        4.079435    2.294357   -0.039223
      5          1           0        5.018903    1.960911   -0.122409
      6          6           0        1.782468    1.571334    0.155270
      7          8           0        1.174595    2.671159   -0.536833
      8          1           0        0.314600    2.891760   -0.076633
      9          6           0        3.161866   -2.515585    0.094738
     10          8           0        4.380033   -3.122637   -0.360352
     11          1           0        4.150677   -4.092693   -0.437275
     12          6           0        2.735789   -1.101020   -0.260845
     13          8           0        1.536810   -0.814635    0.473034
     14          6           0        0.888633    0.358238   -0.040084
     15          8           0       -0.333923    0.415076    0.709615
     16          6           0       -1.560486    0.166434    0.007300
     17          6           0       -2.049790   -1.192485    0.482906
     18          8           0       -1.029651   -2.142952    0.147917
     19          1           0       -0.147853   -1.807559    0.479306
     20          6           0       -3.361739   -1.554998   -0.193749
     21          8           0       -3.954704   -2.802793    0.194502
     22          1           0       -4.833698   -2.898628   -0.272027
     23          6           0       -2.329152    2.665797   -0.174563
     24          8           0       -1.247529    3.399593    0.418297
     25          1           0       -1.374196    4.379748    0.267176
     26          6           0       -2.569790    1.254293    0.334348
     27          8           0       -3.777766    0.844571   -0.323362
     28          6           0       -4.336932   -0.418601    0.064462
     29          8           0       -5.475300   -0.662833   -0.775549
     30          1           0       -6.222666   -0.925489   -0.233279
     31          1           0       -4.628139   -0.400367    1.093911
     32          1           0       -3.181506   -1.597274   -1.247613
     33          1           0       -2.187005   -1.172871    1.543890
     34          1           0       -1.378972    0.140921   -1.046883
     35          1           0       -2.732520    1.281160    1.391560
     36          1           0       -3.227736    3.226618   -0.023150
     37          1           0       -2.148098    2.608311   -1.227566
     38          1           0        5.665355   -0.483960    0.527791
     39          1           0        2.368706   -3.157324   -0.227704
     40          1           0        3.185274   -2.561661    1.163489
     41          1           0        2.571192   -1.003363   -1.313589
     42          1           0        3.740768   -0.054821    1.295980
     43          1           0        3.132201    1.108053   -1.384034
     44          1           0        1.824291    1.803638    1.198910
     45          1           0        0.672247    0.228557   -1.079920
 ---------------------------------------------------------------------

 SCF Done:  E(RB3LYP) =  -1297.99885018     A.U. after   13 cycles

 The electronic state is 1-A.
 Alpha  occ. eigenvalues --  -19.19271 -19.18448 -19.18367 -19.17884 -19.17808
 Alpha  occ. eigenvalues --  -19.17163 -19.16308 -19.16191 -19.14140 -19.14139
 Alpha  occ. eigenvalues --  -19.13503 -10.30773 -10.30158 -10.26454 -10.25749
 Alpha  occ. eigenvalues --  -10.25616 -10.25467 -10.24876 -10.24548 -10.24523
 Alpha  occ. eigenvalues --  -10.24143 -10.23817 -10.23809  -1.10102  -1.09111
 Alpha  occ. eigenvalues --   -1.05909  -1.05338  -1.04319  -1.03829  -1.02804
 Alpha  occ. eigenvalues --   -1.02497  -1.01506  -1.00676  -0.99860  -0.82097
 Alpha  occ. eigenvalues --   -0.80332  -0.79877  -0.78112  -0.72087  -0.70013
 Alpha  occ. eigenvalues --   -0.67098  -0.64634  -0.63430  -0.62021  -0.61528
 Alpha  occ. eigenvalues --   -0.60593  -0.56612  -0.55851  -0.55292  -0.54705
 Alpha  occ. eigenvalues --   -0.53777  -0.53489  -0.53032  -0.52034  -0.51694
 Alpha  occ. eigenvalues --   -0.50948  -0.50081  -0.49181  -0.48330  -0.46557
 Alpha  occ. eigenvalues --   -0.46311  -0.45255  -0.44222  -0.43660  -0.43435
 Alpha  occ. eigenvalues --   -0.42819  -0.42248  -0.41607  -0.40521  -0.39557
 Alpha  occ. eigenvalues --   -0.38801  -0.38012  -0.37725  -0.36120  -0.35740
 Alpha  occ. eigenvalues --   -0.35386  -0.34571  -0.34207  -0.34088  -0.33564
 Alpha  occ. eigenvalues --   -0.33124  -0.31744  -0.31198  -0.30555  -0.30151
 Alpha  occ. eigenvalues --   -0.28977  -0.28656  -0.28317  -0.27466  -0.26810
 Alpha  occ. eigenvalues --   -0.26016
 Alpha virt. eigenvalues --   -0.02215  -0.02016  -0.01826  -0.00235   0.00298
 Alpha virt. eigenvalues --    0.01085   0.01991   0.02372   0.03196   0.03697
 Alpha virt. eigenvalues --    0.03931   0.04248   0.04933   0.05451   0.05565

 Mulliken atomic charges:
              1
     1  O   -0.555949
     2  C   -0.123821
     3  C    0.358869
     4  O   -0.582312
     5  H    0.347637
     6  C   -0.202028
     7  O   -0.575832
     8  H    0.423803
     9  C   -0.371739
    10  O   -0.506444
    11  H    0.337064
    12  C    0.398376
    13  O   -0.266038
    14  C    0.127140
    15  O   -0.262521
    16  C    0.276272
    17  C    0.225912
    18  O   -0.565486
    19  H    0.381145
    20  C    0.008897
    21  O   -0.555830
    22  H    0.335426
    23  C   -0.245637
    24  O   -0.569577
    25  H    0.360276
    26  C   -0.088491
    27  O   -0.253149
    28  C    0.189957
    29  O   -0.554328
    30  H    0.339489
    31  H    0.129759
    32  H    0.130690
    33  H    0.121473
    34  H    0.117069
    35  H    0.121523
    36  H    0.151632
    37  H    0.161476
    38  H    0.345537
    39  H    0.138970
    40  H    0.142511
    41  H    0.113961
    42  H    0.123837
    43  H    0.114944
    44  H    0.129814
    45  H    0.125722
 Sum of Mulliken atomic charges =   0.00000

 Dipole moment (field-independent basis, Debye):
    X=             -3.1124    Y=              0.1442    Z=              1.9200  Tot=              3.6598
 Quadrupole moment (field-independent basis, Debye-Ang):
   XX=           -120.3790   YY=           -135.7314   ZZ=           -139.3822
   XY=            -15.4588   XZ=              2.0982   YZ=              3.3539

  Exact polarizability: 233.518   1.276 196.788   1.565   0.287 143.310
 Approx polarizability: 274.524   0.883 255.705   2.235   1.018 239.382

 ******    6 imaginary frequencies (negative Signs) ******

                     1                      2                      3
                     A                      A                      A
 Frequencies --  -312.9399              -237.1800              -226.7406
 Red. masses --     1.6600                 1.7985                 1.2340
 Frc consts  --     0.0958                 0.0596                 0.0374
 IR Inten    --     5.7142                 4.9204               116.3559
 Raman Activ --     0.0786                 0.0622                 0.9880

                     4                      5                      6
                     A                      A                      A
 Frequencies --  -216.8151               -66.9990               -51.0805
 Red. masses --     1.1701                 6.7337                 6.3796
 Frc consts  --     0.0324                 0.0178                 0.0098
 IR Inten    --   105.2911                 0.9319                 0.3240
 Raman Activ --     0.7569                 0.0413                 0.0206

                     7                      8                      9
                     A                      A                      A
 Frequencies --    49.8901                66.8011                87.4105
 Red. masses --     7.1552                 6.4173                 6.2678
 Frc consts  --     0.0105                 0.0169                 0.0282
 IR Inten    --     0.1406                 0.9395                 4.5566
 Raman Activ --     0.1073                 0.0541                 0.0597

                    10                     11                     12
                     A                      A                      A
 Frequencies --    96.5579               105.4715               129.5774
 Red. masses --     6.3701                 6.6878                 5.4866
 Frc consts  --     0.0350                 0.0438                 0.0543
 IR Inten    --     0.2574                 2.9816                 3.9192
 Raman Activ --     0.1864                 0.0715                 0.0759

                    13                     14                     15
                     A                      A                      A
 Frequencies --   157.1377               174.9337               177.6694
 Red. masses --     6.7036                 7.1317                 5.9119
 Frc consts  --     0.0975                 0.1286                 0.1100
 IR Inten    --     3.9803                 2.3572                 3.8139
 Raman Activ --     0.4806                 0.7837                 0.3277

                    16                     17                     18
                     A                      A                      A
 Frequencies --   207.9590               233.9917               284.9767
 Red. masses --     6.5146                 6.1117                 5.0575
 Frc consts  --     0.1660                 0.1972                 0.2420
 IR Inten    --     0.3544                 2.1867                 2.7101
 Raman Activ --     1.9731                 0.5914                 0.2648

                    19                     20                     21
                     A                      A                      A
 Frequencies --   297.0724               300.7897               310.1847
 Red. masses --     5.0941                 5.1445                 5.6994
 Frc consts  --     0.2649                 0.2742                 0.3231
 IR Inten    --     4.7422                 1.0575                13.2924
 Raman Activ --     1.2708                 0.1681                 0.6381

                    22                     23                     24
                     A                      A                      A
 Frequencies --   316.6419               320.0311               325.5374
 Red. masses --     4.2926                 4.7652                 6.1294
 Frc consts  --     0.2536                 0.2876                 0.3827
 IR Inten    --     1.6809                 4.9995                 8.2431
 Raman Activ --     0.7079                 2.0715                 3.1038

                    25                     26                     27
                     A                      A                      A
 Frequencies --   344.1904               361.4220               375.3906
 Red. masses --     6.8100                 4.8586                 8.4469
 Frc consts  --     0.4753                 0.3739                 0.7013
 IR Inten    --    12.0701                 4.8793                 1.8149
 Raman Activ --     3.5300                 0.2872                 2.3212

                    28                     29                     30
                     A                      A                      A
 Frequencies --   405.7429               420.1396               426.3033
 Red. masses --     5.5830                 4.1985                 5.2326
 Frc consts  --     0.5415                 0.4367                 0.5603
 IR Inten    --     9.7946                12.5218                 4.4375
 Raman Activ --     2.5813                 2.4395                 2.2218

                    31                     32                     33
                     A                      A                      A
 Frequencies --   440.7894               485.3669               495.7566
 Red. masses --     5.1794                 4.4459                 4.1679
 Frc consts  --     0.5929                 0.6171                 0.6035
 IR Inten    --     2.7564                 0.3616                12.3217
 Raman Activ --     3.6736                 2.8988                 0.7727

                    34                     35                     36
                     A                      A                      A
 Frequencies --   513.5354               533.4698               567.1863
 Red. masses --     3.9490                 3.3456                 3.5932
 Frc consts  --     0.6136                 0.5610                 0.6811
 IR Inten    --    13.1414                 9.7196                23.2535
 Raman Activ --     1.5004                 5.3784                 0.9008

                    37                     38                     39
                     A                      A                      A
 Frequencies --   583.5827               589.1701               604.9906
 Red. masses --     3.0674                 5.3980                 5.8764
 Frc consts  --     0.6155                 1.1040                 1.2672
 IR Inten    --    27.4889                 7.4128                36.2264
 Raman Activ --     0.3612                 0.7113                 2.3011

                    40                     41                     42
                     A                      A                      A
 Frequencies --   621.8161               688.2195               707.9981
 Red. masses --     3.9734                 5.6028                 1.0848
 Frc consts  --     0.9052                 1.5635                 0.3204
 IR Inten    --    14.3287                12.2159                89.6231
 Raman Activ --     1.0398                 0.1651                 1.4038

                    43                     44                     45
                     A                      A                      A
 Frequencies --   718.6605               746.3761               769.1307
 Red. masses --     1.0802                 1.0613                 1.0562
 Frc consts  --     0.3287                 0.3483                 0.3681
 IR Inten    --   120.1142                87.8049                89.7854
 Raman Activ --     1.7105                 1.6320                 1.5160

                    46                     47                     48
                     A                      A                      A
 Frequencies --   838.4195               846.2110               852.8252
 Red. masses --     1.1436                 1.7313                 1.5034
 Frc consts  --     0.4736                 0.7304                 0.6442
 IR Inten    --   112.3380                 3.9528                 9.2379
 Raman Activ --     2.2835                 1.3874                 0.3803

                    49                     50                     51
                     A                      A                      A
 Frequencies --   901.9177               925.5121               950.5811
 Red. masses --     1.1791                 4.9806                 4.4124
 Frc consts  --     0.5651                 2.5136                 2.3491
 IR Inten    --    47.7098               161.8872                39.2307
 Raman Activ --     0.5776                 3.8205                 0.9149

                    52                     53                     54
                     A                      A                      A
 Frequencies --   972.2850               979.3785               991.7460
 Red. masses --     6.0311                 4.6513                 5.8258
 Frc consts  --     3.3592                 2.6286                 3.3760
 IR Inten    --    29.7055                68.3315                31.2216
 Raman Activ --     1.3894                 1.4177                 1.3367

                    55                     56                     57
                     A                      A                      A
 Frequencies --   997.2134              1015.9092              1023.7721
 Red. masses --     5.7291                 6.2008                 6.1340
 Frc consts  --     3.3567                 3.7706                 3.7879
 IR Inten    --   463.0309                50.3785               118.4642
 Raman Activ --     1.5190                 1.7120                 3.5505

                    58                     59                     60
                     A                      A                      A
 Frequencies --  1033.9123              1054.9377              1062.8807
 Red. masses --     6.3858                 6.6995                 5.4007
 Frc consts  --     4.0219                 4.3928                 3.5948
 IR Inten    --   293.5574               187.8294                81.0463
 Raman Activ --     2.8524                 1.5917                 0.9844

                    61                     62                     63
                     A                      A                      A
 Frequencies --  1067.7731              1068.9996              1078.2048
 Red. masses --     4.8355                 4.0562                 2.7047
 Frc consts  --     3.2483                 2.7310                 1.8526
 IR Inten    --    62.7602                22.2844                19.6321
 Raman Activ --     0.8863                15.8032                22.6524

                    64                     65                     66
                     A                      A                      A
 Frequencies --  1096.4370              1102.9339              1107.4011
 Red. masses --     2.7431                 3.0939                 2.4326
 Frc consts  --     1.9429                 2.2175                 1.7576
 IR Inten    --    37.1156                48.7076                54.3005
 Raman Activ --     2.8423                 5.5238                 5.3809

                    67                     68                     69
                     A                      A                      A
 Frequencies --  1111.6803              1119.1413              1131.0808
 Red. masses --     3.0272                 2.1698                 2.4386
 Frc consts  --     2.2042                 1.6012                 1.8381
 IR Inten    --    87.6234                 1.6843                62.9442
 Raman Activ --    11.0244                 0.9333                 5.2576

                    70                     71                     72
                     A                      A                      A
 Frequencies --  1135.8473              1144.3352              1150.7095
 Red. masses --     2.5291                 2.6322                 1.7000
 Frc consts  --     1.9224                 2.0309                 1.3263
 IR Inten    --    11.6236                42.6539                 3.1835
 Raman Activ --     4.6618                 3.9652                 1.4744

                    73                     74                     75
                     A                      A                      A
 Frequencies --  1162.0178              1170.1554              1173.7777
 Red. masses --     1.9466                 1.9882                 1.7197
 Frc consts  --     1.5486                 1.6040                 1.3960
 IR Inten    --    10.1628                 3.0159                 4.4584
 Raman Activ --     5.4925                 1.7333                 1.8925

                    76                     77                     78
                     A                      A                      A
 Frequencies --  1195.9604              1214.1011              1229.5063
 Red. masses --     1.3335                 1.3556                 1.2450
 Frc consts  --     1.1238                 1.1773                 1.1089
 IR Inten    --    13.7987                 7.2322                 5.8737
 Raman Activ --     4.0357                 1.2206                 1.3644

                    79                     80                     81
                     A                      A                      A
 Frequencies --  1232.3743              1247.6525              1257.7302
 Red. masses --     1.2306                 1.3352                 1.2735
 Frc consts  --     1.1012                 1.2246                 1.1870
 IR Inten    --     7.7084                 5.1556                18.5164
 Raman Activ --     2.4648                 0.8926                 1.2708

                    82                     83                     84
                     A                      A                      A
 Frequencies --  1272.1832              1273.9881              1277.5293
 Red. masses --     1.1755                 1.2166                 1.4267
 Frc consts  --     1.1209                 1.1634                 1.3719
 IR Inten    --     0.7774                 3.3305                30.7590
 Raman Activ --     3.0749                 1.4875                 1.4160

                    85                     86                     87
                     A                      A                      A
 Frequencies --  1288.5007              1296.3687              1304.2766
 Red. masses --     1.2841                 1.3051                 1.3806
 Frc consts  --     1.2561                 1.2923                 1.3838
 IR Inten    --     2.7119                64.0026                21.9680
 Raman Activ --     0.8586                 6.8257                 2.4626

                    88                     89                     90
                     A                      A                      A
 Frequencies --  1315.8483              1323.9401              1324.7422
 Red. masses --     1.2759                 1.2797                 1.3170
 Frc consts  --     1.3016                 1.3215                 1.3617
 IR Inten    --    10.2999                 2.1608                34.7289
 Raman Activ --     9.0537                11.4314                 7.1345

                    91                     92                     93
                     A                      A                      A
 Frequencies --  1333.0860              1342.3388              1345.9786
 Red. masses --     1.1852                 1.2151                 1.2243
 Frc consts  --     1.2410                 1.2900                 1.3068
 IR Inten    --    46.7890                11.1210                39.4590
 Raman Activ --     4.7384                 0.3650                 3.1447

                    94                     95                     96
                     A                      A                      A
 Frequencies --  1360.7889              1364.5608              1373.1196
 Red. masses --     1.3881                 1.2810                 1.5681
 Frc consts  --     1.5144                 1.4053                 1.7420
 IR Inten    --     7.9171                15.4676                 3.4617
 Raman Activ --     4.5997                 4.5283                 7.1539

                    97                     98                     99
                     A                      A                      A
 Frequencies --  1377.8049              1392.1202              1405.7797
 Red. masses --     1.2897                 1.4731                 1.3589
 Frc consts  --     1.4425                 1.6820                 1.5822
 IR Inten    --    11.4672                 5.0971                18.0439
 Raman Activ --     4.2814                 6.5428                 2.0541

                   100                    101                    102
                     A                      A                      A
 Frequencies --  1423.5633              1433.9173              1458.6718
 Red. masses --     1.4394                 1.4474                 1.4209
 Frc consts  --     1.7186                 1.7535                 1.7813
 IR Inten    --    31.7735                51.7409                27.2360
 Raman Activ --     0.7899                 1.2202                 0.8926

                   103                    104                    105
                     A                      A                      A
 Frequencies --  1466.2410              1470.8675              1475.1961
 Red. masses --     1.1077                 1.3107                 1.0855
 Frc consts  --     1.4031                 1.6707                 1.3918
 IR Inten    --    11.8664                45.0877                 3.0657
 Raman Activ --     5.2712                 3.1618                 4.2604

                   106                    107                    108
                     A                      A                      A
 Frequencies --  1492.6392              1493.3741              3241.1648
 Red. masses --     1.3069                 1.2764                 1.0690
 Frc consts  --     1.7156                 1.6771                 6.6164
 IR Inten    --    32.2016                29.1727               842.2428
 Raman Activ --     0.6115                 1.6621               140.5546

                   109                    110                    111
                     A                      A                      A
 Frequencies --  3252.3089              3264.7329              3267.6850
 Red. masses --     1.0582                 1.0812                 1.0606
 Frc consts  --     6.5947                 6.7899                 6.6723
 IR Inten    --    40.3711                22.3823                42.5891
 Raman Activ --    69.6346                73.9833               154.8755

                   112                    113                    114
                     A                      A                      A
 Frequencies --  3276.2577              3278.3050              3279.5006
 Red. masses --     1.0825                 1.0842                 1.0846
 Frc consts  --     6.8463                 6.8652                 6.8731
 IR Inten    --    14.0292                 2.2324                 0.9755
 Raman Activ --    20.7784                21.2006                89.6896

                   115                    116                    117
                     A                      A                      A
 Frequencies --  3280.8961              3283.9561              3290.4659
 Red. masses --     1.0832                 1.0843                 1.0871
 Frc consts  --     6.8700                 6.8893                 6.9349
 IR Inten    --    18.8745                 6.1876                 4.4230
 Raman Activ --    93.5446               200.6868                 3.0569

                   118                    119                    120
                     A                      A                      A
 Frequencies --  3292.5151              3299.1809              3303.1304
 Red. masses --     1.0865                 1.0921                 1.0866
 Frc consts  --     6.9396                 7.0034                 6.9850
 IR Inten    --    12.8091                 6.8543                87.3850
 Raman Activ --    32.3056                13.1298                 5.1851

                   121                    122                    123
                     A                      A                      A
 Frequencies --  3306.6414              3319.5789              3323.2694
 Red. masses --     1.0955                 1.0694                 1.1065
 Frc consts  --     7.0571                 6.9433                 7.2003
 IR Inten    --    96.9940               472.0457                34.9191
 Raman Activ --     7.0138               164.9345                39.1173

                   124                    125                    126
                     A                      A                      A
 Frequencies --  3356.1403              3370.6104              3372.6200
 Red. masses --     1.0653                 1.0654                 1.0679
 Frc consts  --     7.0699                 7.1316                 7.1567
 IR Inten    --    44.3379                38.9489                41.7320
 Raman Activ --   102.4489               125.1031               131.2214

                   127                    128                    129
                     A                      A                      A
 Frequencies --  3377.9868              3890.7215              3890.8817
 Red. masses --     1.0673                 1.0676                 1.0675
 Frc consts  --     7.1757                 9.5217                 9.5213
 IR Inten    --    71.0284               122.0533                41.6147
 Raman Activ --   143.6449                44.9062               149.2102

 - Thermochemistry -
 -------------------
 Temperature   298.150 Kelvin.  Pressure   1.00000 Atm.
 Atom     1 has atomic number  8 and mass  15.99491

 Molecular mass:   342.11621 amu.
 Principal axes and moments of inertia in atomic units:
                           1         2         3
     Eigenvalues --  4400.82793********************
           X            0.99997  -0.00729   0.00015
           Y            0.00729   0.99997  -0.00013
           Z           -0.00015   0.00014   1.00000
 This molecule is an asymmetric top.
 Rotational symmetry number  1.
 Warning -- assumption of classical behavior for rotation
           may cause significant error
 Rotational temperatures (Kelvin)      0.01968     0.00693     0.00527
 Rotational constants (GHZ):           0.41009     0.14448     0.10973
    6 imaginary frequencies ignored.
 Zero-point vibrational energy     976111.9 (Joules/Mol)
                                  233.29634 (Kcal/Mol)
 Warning -- explicit consideration of  33 degrees of freedom as
           vibrations may cause significant error
 Vibrational temperatures:     71.78    96.11   125.76   138.93   151.75
          (Kelvin)            186.43   226.09   251.69   255.63   299.21
                              336.66   410.02   427.42   432.77   446.29
                              455.58   460.45   468.38   495.21   520.00
                              540.10   583.77   604.49   613.35   634.20
                              698.33   713.28   738.86   767.54   816.05
                              839.64   847.68   870.45   894.65   990.19
                             1018.65  1033.99  1073.87  1106.61  1206.30
                             1217.51  1227.02  1297.66  1331.60  1367.67
                             1398.90  1409.11  1426.90  1434.77  1461.66
                             1472.98  1487.57  1517.82  1529.25  1536.29
                             1538.05  1551.29  1577.53  1586.87  1593.30
                             1599.46  1610.19  1627.37  1634.23  1646.44
                             1655.61  1671.88  1683.59  1688.80  1720.72
                             1746.82  1768.98  1773.11  1795.09  1809.59
                             1830.39  1832.98  1838.08  1853.86  1865.18
                             1876.56  1893.21  1904.85  1906.01  1918.01
                             1931.32  1936.56  1957.87  1963.30  1975.61
                             1982.35  2002.95  2022.60  2048.19  2063.08
                             2098.70  2109.59  2116.25  2122.48  2147.57
                             2148.63  4663.31  4679.34  4697.22  4701.46
                             4713.80  4716.74  4718.46  4720.47  4724.87
                             4734.24  4737.19  4746.78  4752.46  4757.51
                             4776.13  4781.44  4828.73  4849.55  4852.44
                             4860.16  5597.87  5598.10

 Zero-point correction=                           0.371781 (Hartree/Particle)
 Thermal correction to Energy=                    0.390650
 Thermal correction to Enthalpy=                  0.391594
 Thermal correction to Gibbs Free Energy=         0.325786
 Sum of electronic and zero-point Energies=          -1297.627069
 Sum of electronic and thermal Energies=             -1297.608200
 Sum of electronic and thermal Enthalpies=           -1297.607256
 Sum of electronic and thermal Free Energies=        -1297.673065

                     E (Thermal)             CV                S
                      KCal/Mol        Cal/Mol-Kelvin    Cal/Mol-Kelvin
 Total                  245.137             77.533            138.506
 Electronic               0.000              0.000              0.000
 Translational            0.889              2.981             43.384
 Rotational               0.889              2.981             35.157
 Vibrational            243.359             71.571             59.965
 Vibration     1          0.595              1.978              4.822
 Vibration     2          0.598              1.970              4.245
 Vibration     3          0.601              1.958              3.717
 Vibration     4          0.603              1.952              3.523
 Vibration     5          0.605              1.945              3.351
 Vibration     6          0.612              1.924              2.952
 Vibration     7          0.621              1.895              2.584
 Vibration     8          0.627              1.873              2.382
 Vibration     9          0.628              1.870              2.353
 Vibration    10          0.641              1.829              2.062
 Vibration    11          0.654              1.789              1.848
 Vibration    12          0.683              1.702              1.504
 Vibration    13          0.691              1.679              1.433
 Vibration    14          0.693              1.672              1.413
 Vibration    15          0.699              1.654              1.361
 Vibration    16          0.704              1.642              1.327
 Vibration    17          0.706              1.635              1.310
 Vibration    18          0.710              1.624              1.282
 Vibration    19          0.723              1.587              1.193
 Vibration    20          0.736              1.552              1.116
 Vibration    21          0.746              1.523              1.058
 Vibration    22          0.771              1.458              0.942
 Vibration    23          0.783              1.426              0.891
 Vibration    24          0.788              1.413              0.871
 Vibration    25          0.801              1.381              0.824
 Vibration    26          0.841              1.282              0.696
 Vibration    27          0.851              1.259              0.669
 Vibration    28          0.869              1.220              0.625
 Vibration    29          0.888              1.176              0.580
 Vibration    30          0.923              1.102              0.510
 Vibration    31          0.940              1.067              0.479
 Vibration    32          0.946              1.055              0.469
 Vibration    33          0.964              1.021              0.441

 Normal termination of Gaussian 09 at Thu Mar 24 14:40:55 2016.
