 Gaussian 09, Revision B.01,
 Gaussian 09:  EM64L-G09RevB.01 12-Aug-2010

 ------------------------------------------------
 # freq=raman b3lyp/6-31+g(d,p) geom=connectivity
 ------------------------------------------------

 -------------
 310 10000.com
 -------------
 Symbolic Z-matrix:
 Charge =  0 Multiplicity = 1

                         Standard orientation:
 ---------------------------------------------------------------------
 Center     Atomic      Atomic             Coordinates (Angstroms)
 Number     Number       Type             X           Y           Z
 ---------------------------------------------------------------------
      1          8           0        4.949373   -0.671309   -0.427124
      2          6           0        3.743301   -0.183563    0.179469
      3          6           0        3.236659    1.223093   -0.092738
      4          8           0        4.146679    2.306180    0.150310
      5          1           0        5.013820    1.807650    0.156130
      6          6           0        1.826689    1.696331    0.220795
      7          8           0        1.406237    2.765080   -0.639046
      8          1           0        0.578979    3.158808   -0.238030
      9          6           0        2.828067   -2.594360    0.173757
     10          8           0        3.755028   -3.389471   -0.579845
     11          1           0        3.528482   -4.346398   -0.398529
     12          6           0        2.627094   -1.138226   -0.212535
     13          8           0        1.409500   -0.734102    0.431011
     14          6           0        0.935409    0.509653   -0.105106
     15          8           0       -0.219200    0.678184    0.730870
     16          6           0       -1.413395    0.227084    0.075848
     17          6           0       -1.971604   -1.117066    0.512440
     18          8           0       -1.055395   -2.220512    0.458280
     19          1           0       -0.184243   -1.757202    0.623032
     20          6           0       -3.218222   -1.548919   -0.242399
     21          8           0       -3.804533   -2.799466    0.148557
     22          1           0       -4.716474   -2.911736   -0.246651
     23          6           0       -2.284512    2.667120   -0.228296
     24          8           0       -1.169680    3.440053    0.239791
     25          1           0       -1.371102    4.419263    0.249386
     26          6           0       -2.494296    1.266469    0.325001
     27          8           0       -3.680821    0.825675   -0.350635
     28          6           0       -4.233971   -0.447926    0.012558
     29          8           0       -5.451490   -0.574338   -0.737027
     30          1           0       -6.190891   -0.671232   -0.132463
     31          1           0       -4.472091   -0.435409    1.055651
     32          1           0       -2.996248   -1.582181   -1.288593
     33          1           0       -2.256715   -1.006428    1.537804
     34          1           0       -1.222434    0.184531   -0.976114
     35          1           0       -2.688393    1.327936    1.375452
     36          1           0       -3.172080    3.228631   -0.023777
     37          1           0       -2.191259    2.581234   -1.290758
     38          1           0        5.561922   -0.949891    0.257548
     39          1           0        1.873938   -3.075527    0.118824
     40          1           0        3.144816   -2.614469    1.195601
     41          1           0        2.488711   -1.082829   -1.272102
     42          1           0        3.874363   -0.265803    1.238222
     43          1           0        3.207621    1.206582   -1.162216
     44          1           0        1.734124    1.972085    1.250500
     45          1           0        0.682261    0.446453   -1.142806
 ---------------------------------------------------------------------

 SCF Done:  E(RB3LYP) =  -1297.92309812     A.U. after   14 cycles

 The electronic state is 1-A.
 Alpha  occ. eigenvalues --  -19.19681 -19.19477 -19.19119 -19.18909 -19.18561
 Alpha  occ. eigenvalues --  -19.18179 -19.16909 -19.16869 -19.16254 -19.15287
 Alpha  occ. eigenvalues --  -19.15120 -10.30989 -10.30663 -10.26631 -10.26469
 Alpha  occ. eigenvalues --  -10.26118 -10.25872 -10.25835 -10.25226 -10.25224
 Alpha  occ. eigenvalues --  -10.24930 -10.24474 -10.24409  -1.10683  -1.08937
 Alpha  occ. eigenvalues --   -1.05796  -1.05316  -1.04111  -1.03428  -1.03056
 Alpha  occ. eigenvalues --   -1.02739  -1.02502  -1.01156  -1.00879  -0.82200
 Alpha  occ. eigenvalues --   -0.80615  -0.80011  -0.78390  -0.72177  -0.70618
 Alpha  occ. eigenvalues --   -0.67413  -0.65028  -0.63322  -0.62699  -0.61843
 Alpha  occ. eigenvalues --   -0.60324  -0.56621  -0.56258  -0.55591  -0.54945
 Alpha  occ. eigenvalues --   -0.54076  -0.53496  -0.52945  -0.51684  -0.51312
 Alpha  occ. eigenvalues --   -0.50338  -0.50210  -0.49921  -0.48948  -0.46853
 Alpha  occ. eigenvalues --   -0.46313  -0.45351  -0.44330  -0.43840  -0.43376
 Alpha  occ. eigenvalues --   -0.42493  -0.41992  -0.41207  -0.40261  -0.39156
 Alpha  occ. eigenvalues --   -0.38806  -0.37871  -0.37581  -0.37184  -0.36254
 Alpha  occ. eigenvalues --   -0.35514  -0.35324  -0.34900  -0.34287  -0.34087
 Alpha  occ. eigenvalues --   -0.33205  -0.32237  -0.31060  -0.30700  -0.29954
 Alpha  occ. eigenvalues --   -0.29584  -0.28568  -0.27970  -0.27825  -0.26721
 Alpha  occ. eigenvalues --   -0.26448
 Alpha virt. eigenvalues --   -0.02317  -0.02220  -0.02031  -0.00383   0.00238
 Alpha virt. eigenvalues --    0.00954   0.01650   0.02266   0.03297   0.03413
 Alpha virt. eigenvalues --    0.03730   0.04000   0.04846   0.05353   0.05516

 Mulliken atomic charges:
              1
     1  O   -0.492542
     2  C   -0.132102
     3  C    0.073511
     4  O   -0.487525
     5  H    0.339292
     6  C    0.027318
     7  O   -0.526349
     8  H    0.424067
     9  C   -0.028559
    10  O   -0.518899
    11  H    0.353800
    12  C    0.110130
    13  O   -0.416133
    14  C    0.147034
    15  O   -0.269446
    16  C   -0.160541
    17  C    0.065997
    18  O   -0.497662
    19  H    0.403844
    20  C    0.074156
    21  O   -0.503970
    22  H    0.356073
    23  C   -0.021134
    24  O   -0.650024
    25  H    0.397463
    26  C   -0.009630
    27  O   -0.311064
    28  C    0.176388
    29  O   -0.553888
    30  H    0.362263
    31  H    0.118246
    32  H    0.141813
    33  H    0.125229
    34  H    0.113065
    35  H    0.138492
    36  H    0.139421
    37  H    0.151552
    38  H    0.366547
    39  H    0.144107
    40  H    0.127781
    41  H    0.139779
    42  H    0.132119
    43  H    0.135334
    44  H    0.157320
    45  H    0.137326
 Sum of Mulliken atomic charges =   0.00000

 Dipole moment (field-independent basis, Debye):
    X=             -2.7234    Y=              0.6407    Z=              2.8537  Tot=              3.9964
 Quadrupole moment (field-independent basis, Debye-Ang):
   XX=           -119.2034   YY=           -136.0851   ZZ=           -142.3720
   XY=            -18.0967   XZ=              4.9182   YZ=              1.8551

  Exact polarizability: 224.158   0.912 196.099   1.391   0.649 141.347
 Approx polarizability: 261.317  -0.344 253.103   0.819   1.927 231.666

 ******    7 imaginary frequencies (negative Signs) ******

                     1                      2                      3
                     A                      A                      A
 Frequencies --  -311.2097              -268.0754              -257.9818
 Red. masses --     1.2682                 1.5884                 1.1942
 Frc consts  --     0.0724                 0.0673                 0.0468
 IR Inten    --    97.0811                16.7798               116.7867
 Raman Activ --     1.0561                 0.4202                 0.8217

                     4                      5                      6
                     A                      A                      A
 Frequencies --  -248.6494               -93.1241               -73.6283
 Red. masses --     1.7727                 6.0280                 6.6853
 Frc consts  --     0.0646                 0.0308                 0.0214
 IR Inten    --     3.8082                 0.2373                 0.5552
 Raman Activ --     0.0293                 0.0400                 0.0254

                     7                      8                      9
                     A                      A                      A
 Frequencies --   -26.8669                31.0279                50.1417
 Red. masses --     5.6577                 6.7423                 6.9673
 Frc consts  --     0.0024                 0.0038                 0.0103
 IR Inten    --     1.2733                 0.3135                 0.1248
 Raman Activ --     0.0651                 0.0656                 0.0731

                    10                     11                     12
                     A                      A                      A
 Frequencies --    77.0279                91.9721               122.4703
 Red. masses --     6.5685                 6.6430                 5.7583
 Frc consts  --     0.0230                 0.0331                 0.0509
 IR Inten    --     0.0974                 1.2281                 2.9244
 Raman Activ --     0.2363                 0.0792                 0.0992

                    13                     14                     15
                     A                      A                      A
 Frequencies --   150.9008               161.9667               180.7962
 Red. masses --     6.2071                 5.5367                 7.5218
 Frc consts  --     0.0833                 0.0856                 0.1449
 IR Inten    --     5.7715                 2.8634                 0.5808
 Raman Activ --     0.3688                 0.3896                 0.3530

                    16                     17                     18
                     A                      A                      A
 Frequencies --   201.7379               229.9361               248.0165
 Red. masses --     6.5613                 5.8457                 4.7533
 Frc consts  --     0.1573                 0.1821                 0.1723
 IR Inten    --     0.1834                 0.9625                 7.3946
 Raman Activ --     1.1971                 0.8950                 0.4191

                    19                     20                     21
                     A                      A                      A
 Frequencies --   249.1689               286.3154               295.8260
 Red. masses --     4.5810                 5.2875                 4.8411
 Frc consts  --     0.1676                 0.2554                 0.2496
 IR Inten    --     8.5100                 0.5128                 2.1236
 Raman Activ --     0.5183                 0.1769                 0.0446

                    22                     23                     24
                     A                      A                      A
 Frequencies --   303.6057               314.6158               324.8607
 Red. masses --     4.8686                 6.0840                 5.8864
 Frc consts  --     0.2644                 0.3548                 0.3660
 IR Inten    --     8.5950                 3.4879                 2.2158
 Raman Activ --     0.3884                 2.5483                 1.3266

                    25                     26                     27
                     A                      A                      A
 Frequencies --   342.7958               345.2340               372.5177
 Red. masses --     6.6734                 4.6735                 7.0375
 Frc consts  --     0.4620                 0.3282                 0.5754
 IR Inten    --    13.9776                 2.3600                 4.0780
 Raman Activ --     7.4502                 1.2786                 2.6835

                    28                     29                     30
                     A                      A                      A
 Frequencies --   395.0573               413.2208               421.7439
 Red. masses --     4.5945                 5.8092                 4.5575
 Frc consts  --     0.4225                 0.5844                 0.4776
 IR Inten    --    12.9586                 5.2971                 7.9374
 Raman Activ --     2.3650                 3.8592                 4.5831

                    31                     32                     33
                     A                      A                      A
 Frequencies --   435.5311               476.9485               485.5912
 Red. masses --     5.0756                 4.5241                 3.6787
 Frc consts  --     0.5672                 0.6064                 0.5111
 IR Inten    --     5.7853                 5.4857                18.2960
 Raman Activ --     1.7540                 3.9795                 0.4303

                    34                     35                     36
                     A                      A                      A
 Frequencies --   508.5503               532.8488               566.6412
 Red. masses --     4.4024                 3.0684                 4.8207
 Frc consts  --     0.6708                 0.5133                 0.9120
 IR Inten    --     3.5523                14.7990                12.1752
 Raman Activ --     3.0330                 1.4587                 3.6047

                    37                     38                     39
                     A                      A                      A
 Frequencies --   581.7553               599.9308               625.9494
 Red. masses --     2.8002                 6.1159                 5.7947
 Frc consts  --     0.5584                 1.2969                 1.3377
 IR Inten    --    37.2360                 0.8994                15.1997
 Raman Activ --     0.3148                 1.0912                 0.6203

                    40                     41                     42
                     A                      A                      A
 Frequencies --   642.9388               663.4360               679.9227
 Red. masses --     3.9013                 1.0935                 1.1313
 Frc consts  --     0.9502                 0.2836                 0.3081
 IR Inten    --    21.9160               111.7593                86.1590
 Raman Activ --     0.4820                 1.9564                 1.2768

                    43                     44                     45
                     A                      A                      A
 Frequencies --   692.6998               693.8840               707.1627
 Red. masses --     1.0653                 1.0644                 5.0308
 Frc consts  --     0.3012                 0.3019                 1.4823
 IR Inten    --    61.1473               153.2321                13.1849
 Raman Activ --     0.7995                 2.9048                 1.7527

                    46                     47                     48
                     A                      A                      A
 Frequencies --   789.1042               809.5903               845.5053
 Red. masses --     1.0899                 1.1069                 1.8202
 Frc consts  --     0.3998                 0.4275                 0.7667
 IR Inten    --    98.2784               114.8596                 3.0927
 Raman Activ --     1.5477                 1.8146                 0.9869

                    49                     50                     51
                     A                      A                      A
 Frequencies --   861.8427               941.4000               958.6539
 Red. masses --     1.6254                 5.1509                 5.3398
 Frc consts  --     0.7113                 2.6896                 2.8913
 IR Inten    --     9.8318                93.4819                63.3797
 Raman Activ --     0.5499                 3.3667                 0.5011

                    52                     53                     54
                     A                      A                      A
 Frequencies --   979.2554               988.5558               997.2165
 Red. masses --     4.5953                 6.5698                 4.2896
 Frc consts  --     2.5963                 3.7828                 2.5133
 IR Inten    --    62.3092               108.9026                31.2886
 Raman Activ --     3.4601                 2.6516                 1.3900

                    55                     56                     57
                     A                      A                      A
 Frequencies --  1009.0109              1021.4686              1031.5741
 Red. masses --     4.7428                 6.2894                 4.6505
 Frc consts  --     2.8449                 3.8664                 2.9157
 IR Inten    --   237.6655                25.3139               100.9566
 Raman Activ --     2.3201                 1.0678                 2.4876

                    58                     59                     60
                     A                      A                      A
 Frequencies --  1044.6745              1060.5369              1068.2528
 Red. masses --     2.9857                 3.6205                 5.3149
 Frc consts  --     1.9198                 2.3992                 3.5735
 IR Inten    --   182.0197               297.1930               106.2613
 Raman Activ --     5.1568                 4.7125                 2.3198

                    61                     62                     63
                     A                      A                      A
 Frequencies --  1075.2855              1086.6382              1091.8341
 Red. masses --     5.1436                 4.3178                 5.3743
 Frc consts  --     3.5040                 3.0039                 3.7747
 IR Inten    --    84.8698                84.1534                54.0170
 Raman Activ --     1.6980                 8.1044                 7.7417

                    64                     65                     66
                     A                      A                      A
 Frequencies --  1103.9346              1110.1106              1118.7608
 Red. masses --     2.8098                 4.0559                 2.3563
 Frc consts  --     2.0175                 2.9449                 1.7376
 IR Inten    --   150.3787                 3.9808                34.8620
 Raman Activ --     3.6847                15.5044                 3.1130

                    67                     68                     69
                     A                      A                      A
 Frequencies --  1128.7152              1139.7350              1144.3945
 Red. masses --     2.2100                 2.1555                 2.4505
 Frc consts  --     1.6588                 1.6497                 1.8908
 IR Inten    --    94.2882                 0.2084                23.3640
 Raman Activ --     6.5528                 4.5532                 6.4580

                    70                     71                     72
                     A                      A                      A
 Frequencies --  1149.1079              1159.0391              1165.9189
 Red. masses --     2.3555                 1.9719                 2.2539
 Frc consts  --     1.8325                 1.5607                 1.8052
 IR Inten    --    19.3717                38.0965                16.4938
 Raman Activ --     8.0194                 3.3317                 6.9798

                    73                     74                     75
                     A                      A                      A
 Frequencies --  1169.4271              1179.5424              1184.8859
 Red. masses --     1.9390                 1.5073                 2.4231
 Frc consts  --     1.5624                 1.2356                 2.0043
 IR Inten    --    19.1008                 7.1631                 3.7375
 Raman Activ --     1.0046                 1.3272                 1.3485

                    76                     77                     78
                     A                      A                      A
 Frequencies --  1216.7504              1225.0431              1232.3820
 Red. masses --     1.5407                 1.5047                 1.3535
 Frc consts  --     1.3439                 1.3304                 1.2111
 IR Inten    --     3.8318                 4.7063                11.6986
 Raman Activ --     2.6599                 4.4752                 0.6195

                    79                     80                     81
                     A                      A                      A
 Frequencies --  1239.2647              1240.9952              1258.3992
 Red. masses --     1.2738                 1.2970                 1.3525
 Frc consts  --     1.1526                 1.1768                 1.2619
 IR Inten    --     3.4038                 6.3887                42.7926
 Raman Activ --     3.2039                 3.0354                 1.1788

                    82                     83                     84
                     A                      A                      A
 Frequencies --  1278.5171              1279.6449              1287.1422
 Red. masses --     1.3890                 1.3398                 1.1876
 Frc consts  --     1.3377                 1.2926                 1.1592
 IR Inten    --    30.0143                16.4643                11.4024
 Raman Activ --     1.2551                 4.9874                 9.4542

                    85                     86                     87
                     A                      A                      A
 Frequencies --  1294.2767              1299.4509              1307.3352
 Red. masses --     1.2253                 1.3635                 1.2809
 Frc consts  --     1.2093                 1.3565                 1.2898
 IR Inten    --     0.8149                23.0695                11.6726
 Raman Activ --     5.6489                 3.2103                 2.4740

                    88                     89                     90
                     A                      A                      A
 Frequencies --  1325.8244              1330.1370              1341.3917
 Red. masses --     1.3112                 1.3051                 1.3201
 Frc consts  --     1.3580                 1.3605                 1.3994
 IR Inten    --    21.3165                12.6806                39.7219
 Raman Activ --     6.0879                 7.1251                 3.5062

                    91                     92                     93
                     A                      A                      A
 Frequencies --  1345.8803              1350.3026              1357.0203
 Red. masses --     1.2030                 1.1595                 1.2094
 Frc consts  --     1.2839                 1.2456                 1.3121
 IR Inten    --    67.8173                33.6130                11.1462
 Raman Activ --     4.3392                 1.3041                 4.4294

                    94                     95                     96
                     A                      A                      A
 Frequencies --  1376.4212              1379.1018              1384.5083
 Red. masses --     1.6534                 1.6880                 1.2985
 Frc consts  --     1.8456                 1.8916                 1.4665
 IR Inten    --     6.0286                15.8139                 1.2018
 Raman Activ --     8.0769                 4.9719                 2.7189

                    97                     98                     99
                     A                      A                      A
 Frequencies --  1387.2310              1407.2119              1409.9691
 Red. masses --     1.2530                 1.6059                 1.1980
 Frc consts  --     1.4206                 1.8737                 1.4033
 IR Inten    --     9.6934                31.5219                 5.8527
 Raman Activ --     3.5593                 1.4715                 4.0709

                   100                    101                    102
                     A                      A                      A
 Frequencies --  1414.1868              1442.4622              1467.5836
 Red. masses --     1.3278                 1.4222                 1.3726
 Frc consts  --     1.5646                 1.7434                 1.7418
 IR Inten    --     2.1133                20.3229                14.9262
 Raman Activ --     9.5901                 0.7518                 1.5631

                   103                    104                    105
                     A                      A                      A
 Frequencies --  1477.6651              1479.7290              1480.6790
 Red. masses --     1.1530                 1.1440                 1.1109
 Frc consts  --     1.4834                 1.4759                 1.4350
 IR Inten    --     4.7467                12.4189                 1.7345
 Raman Activ --     3.1490                 4.7179                 2.6965

                   106                    107                    108
                     A                      A                      A
 Frequencies --  1495.8469              1544.8634              3247.5446
 Red. masses --     1.3915                 1.2222                 1.0783
 Frc consts  --     1.8344                 1.7186                 6.7007
 IR Inten    --    69.0876                46.7608                15.4199
 Raman Activ --     1.2066                 1.1386                83.6897

                   109                    110                    111
                     A                      A                      A
 Frequencies --  3265.6510              3269.9926              3276.6891
 Red. masses --     1.0588                 1.0816                 1.0587
 Frc consts  --     6.6527                 6.8140                 6.6971
 IR Inten    --    26.2042                14.9559                62.4076
 Raman Activ --    94.9379                33.0405                86.7056

                   112                    113                    114
                     A                      A                      A
 Frequencies --  3280.8967              3286.4075              3289.1171
 Red. masses --     1.0837                 1.0840                 1.0844
 Frc consts  --     6.8731                 6.8981                 6.9121
 IR Inten    --    20.9716                 2.1373                19.4109
 Raman Activ --    71.7333                 1.6831               177.1112

                   115                    116                    117
                     A                      A                      A
 Frequencies --  3298.3009              3299.1220              3309.4974
 Red. masses --     1.0860                 1.0855                 1.0868
 Frc consts  --     6.9606                 6.9614                 7.0136
 IR Inten    --    19.5592                29.0403                77.0185
 Raman Activ --    39.2906                40.7737                 1.4738

                   118                    119                    120
                     A                      A                      A
 Frequencies --  3315.5054              3319.4609              3322.6778
 Red. masses --     1.0862                 1.0738                 1.1010
 Frc consts  --     7.0351                 6.9713                 7.1619
 IR Inten    --    17.2814               188.2686                56.7541
 Raman Activ --    86.9547               203.1607                29.1291

                   121                    122                    123
                     A                      A                      A
 Frequencies --  3324.1661              3334.2252              3335.2110
 Red. masses --     1.0845                 1.0686                 1.1066
 Frc consts  --     7.0608                 6.9990                 7.2528
 IR Inten    --   188.9779               608.4828                72.1661
 Raman Activ --    89.9680                96.2877                29.0191

                   124                    125                    126
                     A                      A                      A
 Frequencies --  3383.0150              3387.4280              3390.8789
 Red. masses --     1.0652                 1.0666                 1.0674
 Frc consts  --     7.1828                 7.2107                 7.2312
 IR Inten    --    18.1427                48.1021                39.9653
 Raman Activ --    91.6884               132.2821               153.8363

                   127                    128                    129
                     A                      A                      A
 Frequencies --  3398.1050              3919.6579              3919.9910
 Red. masses --     1.0683                 1.0680                 1.0677
 Frc consts  --     7.2677                 9.6674                 9.6668
 IR Inten    --    56.4442               102.4991                59.0245
 Raman Activ --   164.6078                67.9893               132.3261

 - Thermochemistry -
 -------------------
 Temperature   298.150 Kelvin.  Pressure   1.00000 Atm.
 Atom     1 has atomic number  8 and mass  15.99491

 Molecular mass:   342.11621 amu.
 Principal axes and moments of inertia in atomic units:
                           1         2         3
     Eigenvalues --  4671.05268********************
           X            0.99996  -0.00917   0.00049
           Y            0.00917   0.99996  -0.00152
           Z           -0.00048   0.00153   1.00000
 This molecule is an asymmetric top.
 Rotational symmetry number  1.
 Warning -- assumption of classical behavior for rotation
           may cause significant error
 Rotational temperatures (Kelvin)      0.01854     0.00735     0.00543
 Rotational constants (GHZ):           0.38637     0.15319     0.11310
    7 imaginary frequencies ignored.
 Zero-point vibrational energy     977645.0 (Joules/Mol)
                                  233.66276 (Kcal/Mol)
 Warning -- explicit consideration of  31 degrees of freedom as
           vibrations may cause significant error
 Vibrational temperatures:     44.64    72.14   110.83   132.33   176.21
          (Kelvin)            217.11   233.03   260.13   290.26   330.83
                              356.84   358.50   411.94   425.63   436.82
                              452.66   467.40   493.21   496.71   535.97
                              568.40   594.53   606.79   626.63   686.22
                              698.66   731.69   766.65   815.27   837.02
                              863.17   900.60   925.04   954.54   978.26
                              996.64   998.34  1017.45  1135.34  1164.82
                             1216.49  1240.00  1354.46  1379.29  1408.93
                             1422.31  1434.77  1451.74  1469.66  1484.20
                             1503.05  1525.87  1536.98  1547.09  1563.43
                             1570.90  1588.31  1597.20  1609.65  1623.97
                             1639.82  1646.53  1653.31  1667.60  1677.50
                             1682.54  1697.10  1704.78  1750.63  1762.56
                             1773.12  1783.02  1785.51  1810.55  1839.50
                             1841.12  1851.91  1862.17  1869.62  1880.96
                             1907.56  1913.77  1929.96  1936.42  1942.78
                             1952.45  1980.36  1984.22  1992.00  1995.91
                             2024.66  2028.63  2034.70  2075.38  2111.52
                             2126.03  2129.00  2130.36  2152.19  2222.71
                             4672.49  4698.54  4704.78  4714.42  4720.47
                             4728.40  4732.30  4745.51  4746.69  4761.62
                             4770.27  4775.96  4780.59  4782.73  4797.20
                             4798.62  4867.40  4873.75  4878.71  4889.11
                             5639.51  5639.99

 Zero-point correction=                           0.372365 (Hartree/Particle)
 Thermal correction to Energy=                    0.390950
 Thermal correction to Enthalpy=                  0.391894
 Thermal correction to Gibbs Free Energy=         0.326069
 Sum of electronic and zero-point Energies=          -1297.550733
 Sum of electronic and thermal Energies=             -1297.532148
 Sum of electronic and thermal Enthalpies=           -1297.531204
 Sum of electronic and thermal Free Energies=        -1297.597029

                     E (Thermal)             CV                S
                      KCal/Mol        Cal/Mol-Kelvin    Cal/Mol-Kelvin
 Total                  245.325             76.140            138.542
 Electronic               0.000              0.000              0.000
 Translational            0.889              2.981             43.384
 Rotational               0.889              2.981             35.128
 Vibrational            243.548             70.179             60.030
 Vibration     1          0.594              1.983              5.763
 Vibration     2          0.595              1.978              4.812
 Vibration     3          0.599              1.964              3.965
 Vibration     4          0.602              1.955              3.618
 Vibration     5          0.610              1.930              3.061
 Vibration     6          0.618              1.902              2.661
 Vibration     7          0.622              1.889              2.527
 Vibration     8          0.630              1.866              2.320
 Vibration     9          0.639              1.837              2.117
 Vibration    10          0.652              1.795              1.879
 Vibration    11          0.662              1.766              1.745
 Vibration    12          0.662              1.764              1.736
 Vibration    13          0.684              1.699              1.496
 Vibration    14          0.690              1.682              1.440
 Vibration    15          0.695              1.667              1.397
 Vibration    16          0.702              1.646              1.338
 Vibration    17          0.709              1.626              1.286
 Vibration    18          0.722              1.590              1.199
 Vibration    19          0.724              1.585              1.188
 Vibration    20          0.744              1.529              1.069
 Vibration    21          0.762              1.481              0.981
 Vibration    22          0.777              1.442              0.915
 Vibration    23          0.784              1.423              0.886
 Vibration    24          0.796              1.393              0.841
 Vibration    25          0.834              1.301              0.718
 Vibration    26          0.842              1.282              0.695
 Vibration    27          0.864              1.231              0.637
 Vibration    28          0.888              1.177              0.581
 Vibration    29          0.923              1.103              0.511
 Vibration    30          0.939              1.071              0.482
 Vibration    31          0.958              1.032              0.450

 Normal termination of Gaussian 09 at Tue Mar  1 03:17:27 2016.
