 Gaussian 09, Revision B.01,
 Gaussian 09:  EM64L-G09RevB.01 12-Aug-2010

 -------------------------------------------------
 # freq=raman b3lyp/6-31+g(2d,p) geom=connectivity
 -------------------------------------------------

 -----------------
 450 8450/8450.com
 -----------------
 Symbolic Z-matrix:
 Charge =  0 Multiplicity = 1

                         Standard orientation:
 ---------------------------------------------------------------------
 Center     Atomic      Atomic             Coordinates (Angstroms)
 Number     Number       Type             X           Y           Z
 ---------------------------------------------------------------------
      1          8           0       -4.912762    0.624778   -0.446636
      2          6           0       -3.792398    0.018958    0.215168
      3          6           0       -3.374734   -1.330156   -0.345424
      4          8           0       -4.121382   -2.442481    0.168365
      5          1           0       -4.983723   -2.073374    0.515608
      6          6           0       -1.934946   -1.693054   -0.020769
      7          8           0       -1.419105   -2.762146   -0.827894
      8          1           0       -2.088230   -3.467253   -0.592095
      9          6           0       -3.164354    2.582972    0.371719
     10          8           0       -2.170166    3.600438    0.189477
     11          1           0       -2.580315    4.493792    0.373302
     12          6           0       -2.813666    1.157521   -0.021742
     13          8           0       -1.586485    0.700479    0.563634
     14          6           0       -1.011449   -0.485979   -0.002721
     15          8           0        0.184884   -0.643282    0.774179
     16          6           0        1.376917   -0.361204    0.026947
     17          6           0        1.701155    1.123696    0.025119
     18          8           0        0.784043    1.934233   -0.725122
     19          1           0       -0.130264    1.747123   -0.364948
     20          6           0        3.102443    1.358746   -0.513599
     21          8           0        3.252302    2.785829   -0.540204
     22          1           0        2.503426    3.066643   -1.139935
     23          6           0        2.379058   -2.687339    0.550648
     24          8           0        2.691936   -3.120964   -0.780619
     25          1           0        2.186442   -3.932576   -1.074931
     26          6           0        2.446358   -1.179469    0.732261
     27          8           0        3.796661   -0.715808    0.585618
     28          6           0        4.059288    0.689433    0.460423
     29          8           0        5.286938    0.742841   -0.282852
     30          1           0        5.970103    0.264750    0.192875
     31          1           0        4.123375    1.193752    1.401940
     32          1           0        3.205865    0.945873   -1.495302
     33          1           0        1.679730    1.462175    1.039945
     34          1           0        1.262594   -0.707303   -0.979058
     35          1           0        2.233001   -1.033663    1.770586
     36          1           0        1.390421   -3.016725    0.793549
     37          1           0        3.068597   -3.144128    1.229456
     38          1           0       -5.706181    0.486343    0.075784
     39          1           0       -3.434019    2.575818    1.407156
     40          1           0       -4.028385    2.870487   -0.190140
     41          1           0       -2.648279    1.184795   -1.078532
     42          1           0       -3.996101   -0.070733    1.261763
     43          1           0       -3.488710   -1.305317   -1.409047
     44          1           0       -1.947922   -2.065467    0.982246
     45          1           0       -0.728367   -0.271095   -1.011972
 ---------------------------------------------------------------------

 SCF Done:  E(RB3LYP) =  -1297.97619680     A.U. after   14 cycles

 The electronic state is 1-A.
 Alpha  occ. eigenvalues --  -19.19327 -19.19037 -19.18018 -19.18000 -19.17247
 Alpha  occ. eigenvalues --  -19.16965 -19.15189 -19.14683 -19.14451 -19.14203
 Alpha  occ. eigenvalues --  -19.13414 -10.30639 -10.28289 -10.27810 -10.26925
 Alpha  occ. eigenvalues --  -10.26717 -10.25976 -10.25294 -10.23977 -10.23953
 Alpha  occ. eigenvalues --  -10.22891 -10.22687 -10.22589  -1.09854  -1.07667
 Alpha  occ. eigenvalues --   -1.06409  -1.06322  -1.04244  -1.03907  -1.03056
 Alpha  occ. eigenvalues --   -1.02435  -1.00951  -0.99652  -0.98980  -0.81997
 Alpha  occ. eigenvalues --   -0.81425  -0.78223  -0.77324  -0.72548  -0.69677
 Alpha  occ. eigenvalues --   -0.67887  -0.64993  -0.63543  -0.62147  -0.61461
 Alpha  occ. eigenvalues --   -0.58886  -0.57585  -0.55833  -0.54561  -0.54067
 Alpha  occ. eigenvalues --   -0.53481  -0.52963  -0.52109  -0.51566  -0.50690
 Alpha  occ. eigenvalues --   -0.50251  -0.49235  -0.48494  -0.47597  -0.46451
 Alpha  occ. eigenvalues --   -0.45734  -0.45099  -0.44904  -0.43851  -0.43475
 Alpha  occ. eigenvalues --   -0.43064  -0.41666  -0.41002  -0.40108  -0.39780
 Alpha  occ. eigenvalues --   -0.38747  -0.38327  -0.37301  -0.36406  -0.35964
 Alpha  occ. eigenvalues --   -0.35510  -0.35133  -0.33633  -0.33323  -0.33099
 Alpha  occ. eigenvalues --   -0.32313  -0.31972  -0.30619  -0.30083  -0.29494
 Alpha  occ. eigenvalues --   -0.28997  -0.28661  -0.27635  -0.26855  -0.26331
 Alpha  occ. eigenvalues --   -0.25708
 Alpha virt. eigenvalues --   -0.04612  -0.02004  -0.00980   0.00357   0.00703
 Alpha virt. eigenvalues --    0.01549   0.01682   0.02293   0.02817   0.03232
 Alpha virt. eigenvalues --    0.03773   0.04323   0.04867   0.05439   0.05698

 Mulliken atomic charges:
              1
     1  O   -0.521142
     2  C   -0.104709
     3  C    0.244904
     4  O   -0.548845
     5  H    0.324712
     6  C   -0.161939
     7  O   -0.537993
     8  H    0.352174
     9  C   -0.359136
    10  O   -0.504105
    11  H    0.344254
    12  C    0.290385
    13  O   -0.292565
    14  C    0.143888
    15  O   -0.246676
    16  C    0.374665
    17  C    0.222891
    18  O   -0.592987
    19  H    0.385642
    20  C   -0.190111
    21  O   -0.518431
    22  H    0.353513
    23  C   -0.427852
    24  O   -0.508400
    25  H    0.331322
    26  C    0.009908
    27  O   -0.323458
    28  C    0.416127
    29  O   -0.496325
    30  H    0.318199
    31  H    0.134158
    32  H    0.138573
    33  H    0.123192
    34  H    0.133204
    35  H    0.106691
    36  H    0.152974
    37  H    0.138654
    38  H    0.323477
    39  H    0.134048
    40  H    0.163874
    41  H    0.125162
    42  H    0.130618
    43  H    0.145178
    44  H    0.139597
    45  H    0.132690
 Sum of Mulliken atomic charges =   0.00000

 Dipole moment (field-independent basis, Debye):
    X=             -9.4930    Y=             -1.7711    Z=              3.1962  Tot=             10.1720
 Quadrupole moment (field-independent basis, Debye-Ang):
   XX=           -121.3102   YY=           -132.4062   ZZ=           -138.4354
   XY=            -13.3092   XZ=              0.6760   YZ=              0.6117

  Exact polarizability: 221.161   1.416 200.901  -0.884  -1.326 147.102
 Approx polarizability: 264.463  -0.155 262.603  -3.003  -2.852 241.598

 ******    8 imaginary frequencies (negative Signs) ******

                     1                      2                      3
                     A                      A                      A
 Frequencies --  -283.2054              -183.4824              -180.8279
 Red. masses --     1.7816                 1.1883                 1.9437
 Frc consts  --     0.0842                 0.0236                 0.0374
 IR Inten    --     4.2081                73.2443                 7.7229
 Raman Activ --     0.1021                 0.6960                 0.1763

                     4                      5                      6
                     A                      A                      A
 Frequencies --  -121.9690              -114.4823               -52.7328
 Red. masses --     1.2407                 5.0865                 5.4959
 Frc consts  --     0.0109                 0.0393                 0.0090
 IR Inten    --    92.6833                20.5521                 5.0125
 Raman Activ --     1.7782                 0.0644                 0.0794

                     7                      8                      9
                     A                      A                      A
 Frequencies --   -40.3293               -27.3514                40.5334
 Red. masses --     5.8174                 5.5243                 6.7481
 Frc consts  --     0.0056                 0.0024                 0.0065
 IR Inten    --     0.9722                 0.4189                 0.7596
 Raman Activ --     0.0942                 0.0474                 0.0528

                    10                     11                     12
                     A                      A                      A
 Frequencies --    44.0297                62.9413                94.9849
 Red. masses --     4.3017                 6.2140                 6.3879
 Frc consts  --     0.0049                 0.0145                 0.0340
 IR Inten    --    19.9218                 1.1904                 0.5536
 Raman Activ --     0.3964                 0.0326                 0.1663

                    13                     14                     15
                     A                      A                      A
 Frequencies --   113.2806               136.9663               168.8726
 Red. masses --     5.5446                 6.0094                 6.3192
 Frc consts  --     0.0419                 0.0664                 0.1062
 IR Inten    --     0.8497                 4.2318                 2.0871
 Raman Activ --     0.4279                 0.4181                 0.6746

                    16                     17                     18
                     A                      A                      A
 Frequencies --   179.5512               222.3504               233.8003
 Red. masses --     6.3109                 6.1599                 4.5396
 Frc consts  --     0.1199                 0.1794                 0.1462
 IR Inten    --     0.8528                 3.6165                 7.7706
 Raman Activ --     0.3767                 1.0709                 0.0455

                    19                     20                     21
                     A                      A                      A
 Frequencies --   243.9170               264.3758               284.8837
 Red. masses --     5.5285                 4.5672                 6.2703
 Frc consts  --     0.1938                 0.1881                 0.2998
 IR Inten    --     2.4243                 5.2613                 7.9593
 Raman Activ --     1.0136                 0.3367                 0.6478

                    22                     23                     24
                     A                      A                      A
 Frequencies --   291.2581               321.7156               330.4309
 Red. masses --     5.5065                 5.9936                 5.6463
 Frc consts  --     0.2752                 0.3655                 0.3632
 IR Inten    --     0.4622                 4.7600                15.8839
 Raman Activ --     0.4429                 7.3198                 0.1277

                    25                     26                     27
                     A                      A                      A
 Frequencies --   350.1435               370.2259               394.0142
 Red. masses --     5.6070                 5.2788                 5.2355
 Frc consts  --     0.4050                 0.4263                 0.4789
 IR Inten    --     2.2410                 4.3717                10.1167
 Raman Activ --     0.5078                 0.9284                 0.9864

                    28                     29                     30
                     A                      A                      A
 Frequencies --   411.7860               418.8448               441.8347
 Red. masses --     6.3092                 5.5148                 6.8567
 Frc consts  --     0.6303                 0.5700                 0.7887
 IR Inten    --     0.1945                 8.6955                 0.8568
 Raman Activ --     4.6653                 2.3988                 0.5311

                    31                     32                     33
                     A                      A                      A
 Frequencies --   459.6173               481.6445               503.2197
 Red. masses --     4.7091                 3.6699                 4.7097
 Frc consts  --     0.5861                 0.5016                 0.7027
 IR Inten    --     6.6044                 7.4178                 3.1120
 Raman Activ --     6.0184                 1.6049                 4.6883

                    34                     35                     36
                     A                      A                      A
 Frequencies --   527.1923               554.3412               578.2532
 Red. masses --     4.2348                 3.8956                 4.0734
 Frc consts  --     0.6935                 0.7053                 0.8025
 IR Inten    --    28.0364                 4.0702                16.0325
 Raman Activ --     1.2280                 2.2071                 1.7480

                    37                     38                     39
                     A                      A                      A
 Frequencies --   587.8309               603.6240               617.3056
 Red. masses --     2.7929                 3.8485                 2.0935
 Frc consts  --     0.5686                 0.8262                 0.4700
 IR Inten    --    24.3298                 4.9489                58.1045
 Raman Activ --     0.6651                 0.4411                 0.8833

                    40                     41                     42
                     A                      A                      A
 Frequencies --   642.4737               646.1294               662.3804
 Red. masses --     1.4455                 1.4221                 4.1304
 Frc consts  --     0.3515                 0.3498                 1.0677
 IR Inten    --    34.5191               140.8272                 9.7260
 Raman Activ --     1.9940                 1.2127                 0.6944

                    43                     44                     45
                     A                      A                      A
 Frequencies --   674.5802               711.8675               729.6220
 Red. masses --     1.0699                 2.3471                 1.1425
 Frc consts  --     0.2869                 0.7008                 0.3583
 IR Inten    --   112.9310                15.2257               144.5556
 Raman Activ --     2.0401                 0.9706                 1.5340

                    46                     47                     48
                     A                      A                      A
 Frequencies --   762.2551               832.3587               839.9472
 Red. masses --     1.1162                 2.5541                 1.1224
 Frc consts  --     0.3821                 1.0426                 0.4666
 IR Inten    --    95.7905                 4.6121                57.9280
 Raman Activ --     1.1111                 3.5380                 0.8929

                    49                     50                     51
                     A                      A                      A
 Frequencies --   844.9331               889.9975               946.7912
 Red. masses --     2.6242                 2.6874                 6.0474
 Frc consts  --     1.1038                 1.2542                 3.1939
 IR Inten    --    13.4145                14.1367               360.8801
 Raman Activ --     3.7288                 2.2843                 3.4167

                    52                     53                     54
                     A                      A                      A
 Frequencies --   954.3648               978.2844               993.5519
 Red. masses --     7.1571                 5.0107                 7.1828
 Frc consts  --     3.8407                 2.8254                 4.1776
 IR Inten    --    37.5264                77.0177               148.4134
 Raman Activ --     1.6813                 0.9753                 1.1323

                    55                     56                     57
                     A                      A                      A
 Frequencies --   997.9099              1003.9409              1024.5034
 Red. masses --     5.0525                 5.0505                 5.9137
 Frc consts  --     2.9644                 2.9992                 3.6571
 IR Inten    --   257.4215                32.9635                26.0069
 Raman Activ --     1.1127                 4.8304                 3.3352

                    58                     59                     60
                     A                      A                      A
 Frequencies --  1033.0692              1036.2412              1049.1375
 Red. masses --     4.5219                 3.2841                 3.8587
 Frc consts  --     2.8434                 2.0778                 2.5024
 IR Inten    --    40.2161                34.9784                56.5951
 Raman Activ --     7.9258                 2.6476                 1.8502

                    61                     62                     63
                     A                      A                      A
 Frequencies --  1053.4200              1068.5759              1080.3287
 Red. masses --     3.1986                 3.6921                 3.7544
 Frc consts  --     2.0913                 2.4839                 2.5817
 IR Inten    --   290.0155                55.9796                20.8033
 Raman Activ --     3.1568                20.5818                 5.5294

                    64                     65                     66
                     A                      A                      A
 Frequencies --  1082.4721              1089.8887              1101.9706
 Red. masses --     4.4849                 2.7567                 3.9108
 Frc consts  --     3.0963                 1.9293                 2.7981
 IR Inten    --    79.4537                88.6972                59.5659
 Raman Activ --     3.4398                 1.8649                 6.1729

                    67                     68                     69
                     A                      A                      A
 Frequencies --  1122.1483              1127.8836              1132.0220
 Red. masses --     2.7686                 3.2016                 2.1460
 Frc consts  --     2.0540                 2.3997                 1.6202
 IR Inten    --    29.9868                35.8103                 3.0519
 Raman Activ --     3.0254                 2.3764                 3.1204

                    70                     71                     72
                     A                      A                      A
 Frequencies --  1142.5514              1146.2491              1150.7706
 Red. masses --     2.0904                 3.0767                 2.1390
 Frc consts  --     1.6078                 2.3817                 1.6689
 IR Inten    --    15.8215                10.2831                77.2431
 Raman Activ --     3.3246                 1.1560                 6.0263

                    73                     74                     75
                     A                      A                      A
 Frequencies --  1170.2530              1171.9730              1178.2971
 Red. masses --     2.0926                 1.4919                 1.9020
 Frc consts  --     1.6884                 1.2073                 1.5558
 IR Inten    --     3.6318                12.3182                 0.4455
 Raman Activ --     1.1328                 2.2183                 1.4845

                    76                     77                     78
                     A                      A                      A
 Frequencies --  1199.7530              1203.5234              1228.1459
 Red. masses --     1.3671                 1.3740                 1.1799
 Frc consts  --     1.1594                 1.1726                 1.0485
 IR Inten    --     8.2053                 6.7977                 8.2602
 Raman Activ --     1.0974                 2.0152                 1.2807

                    79                     80                     81
                     A                      A                      A
 Frequencies --  1240.8851              1249.8337              1263.3758
 Red. masses --     1.2540                 1.2525                 1.3057
 Frc consts  --     1.1376                 1.1527                 1.2279
 IR Inten    --     8.0999                 8.9505                35.9550
 Raman Activ --     2.8849                 0.3763                 1.4403

                    82                     83                     84
                     A                      A                      A
 Frequencies --  1268.8842              1271.6666              1280.9513
 Red. masses --     1.2799                 1.1800                 1.2124
 Frc consts  --     1.2142                 1.1243                 1.1721
 IR Inten    --     9.5794                 6.1102                16.5748
 Raman Activ --     8.0256                 1.1616                 4.9080

                    85                     86                     87
                     A                      A                      A
 Frequencies --  1296.0498              1305.3746              1311.1626
 Red. masses --     1.1705                 1.2181                 1.3292
 Frc consts  --     1.1585                 1.2229                 1.3464
 IR Inten    --     4.7941                21.8027                15.1205
 Raman Activ --     2.0960                 1.3841                 4.9879

                    88                     89                     90
                     A                      A                      A
 Frequencies --  1313.1044              1319.1626              1330.2781
 Red. masses --     1.1919                 1.2421                 1.2098
 Frc consts  --     1.2109                 1.2735                 1.2614
 IR Inten    --    26.5451                 1.7492                 6.0250
 Raman Activ --     1.7289                 2.2561                 5.6159

                    91                     92                     93
                     A                      A                      A
 Frequencies --  1341.6662              1350.3990              1354.5319
 Red. masses --     1.1834                 1.3331                 1.3990
 Frc consts  --     1.2551                 1.4323                 1.5123
 IR Inten    --    12.1340                14.6753                37.0209
 Raman Activ --     4.5722                 2.1213                 7.4080

                    94                     95                     96
                     A                      A                      A
 Frequencies --  1365.5830              1371.8741              1376.0506
 Red. masses --     1.4206                 1.3811                 1.4269
 Frc consts  --     1.5608                 1.5314                 1.5919
 IR Inten    --    29.0738                17.2161                15.6460
 Raman Activ --     5.2460                 2.8249                 1.2661

                    97                     98                     99
                     A                      A                      A
 Frequencies --  1379.6073              1387.3079              1412.0587
 Red. masses --     1.3962                 1.4580                 1.2653
 Frc consts  --     1.5657                 1.6533                 1.4864
 IR Inten    --     6.7228                 4.4297                 8.7664
 Raman Activ --     5.2554                 4.2483                 6.2077

                   100                    101                    102
                     A                      A                      A
 Frequencies --  1424.6249              1447.3100              1449.3864
 Red. masses --     1.4736                 1.3593                 1.0714
 Frc consts  --     1.7621                 1.6777                 1.3261
 IR Inten    --    26.6260                52.2394                 6.3768
 Raman Activ --     2.0860                 2.0578                 5.4452

                   103                    104                    105
                     A                      A                      A
 Frequencies --  1457.4031              1464.6905              1470.4745
 Red. masses --     1.4046                 1.3738                 1.0795
 Frc consts  --     1.7577                 1.7365                 1.3752
 IR Inten    --    22.0295                13.9738                 3.5900
 Raman Activ --     2.1836                 2.3288                 5.4859

                   106                    107                    108
                     A                      A                      A
 Frequencies --  1508.8228              1512.0228              3255.8712
 Red. masses --     1.3514                 1.3473                 1.0636
 Frc consts  --     1.8127                 1.8149                 6.6430
 IR Inten    --    78.0807                82.7859                35.3267
 Raman Activ --     1.5900                 2.0957               139.6475

                   109                    110                    111
                     A                      A                      A
 Frequencies --  3256.6066              3266.1171              3268.2599
 Red. masses --     1.0740                 1.0770                 1.0816
 Frc consts  --     6.7110                 6.7694                 6.8070
 IR Inten    --     6.0635                14.8915                 6.6335
 Raman Activ --    26.3308                13.4729                28.7216

                   112                    113                    114
                     A                      A                      A
 Frequencies --  3271.8952              3274.7103              3280.3218
 Red. masses --     1.0661                 1.0823                 1.0840
 Frc consts  --     6.7245                 6.8385                 6.8725
 IR Inten    --    46.0982                14.4573                 3.6177
 Raman Activ --   178.8272               149.7586                19.5393

                   115                    116                    117
                     A                      A                      A
 Frequencies --  3284.6426              3291.6621              3295.7468
 Red. masses --     1.0849                 1.0850                 1.0859
 Frc consts  --     6.8962                 6.9266                 6.9492
 IR Inten    --     3.3437                 8.5810                 1.6385
 Raman Activ --    58.9875                26.8393                97.7032

                   118                    119                    120
                     A                      A                      A
 Frequencies --  3299.6605              3305.9656              3313.7013
 Red. masses --     1.0865                 1.0864                 1.1036
 Frc consts  --     6.9696                 6.9957                 7.1398
 IR Inten    --    41.0465                67.3392                34.6025
 Raman Activ --    13.7972                10.1046                49.4711

                   121                    122                    123
                     A                      A                      A
 Frequencies --  3321.4414              3323.1142              3365.4433
 Red. masses --     1.1046                 1.0687                 1.0697
 Frc consts  --     7.1800                 6.9537                 7.1384
 IR Inten    --     9.5579               377.4277                37.0983
 Raman Activ --    73.8734               174.0582               108.0508

                   124                    125                    126
                     A                      A                      A
 Frequencies --  3366.0673              3369.0052              3371.4820
 Red. masses --     1.0665                 1.0650                 1.0647
 Frc consts  --     7.1194                 7.1222                 7.1302
 IR Inten    --    18.2956                60.2758                50.2654
 Raman Activ --    74.0845               105.6927                48.1159

                   127                    128                    129
                     A                      A                      A
 Frequencies --  3372.3434              3878.7628              3884.0925
 Red. masses --     1.0674                 1.0674                 1.0663
 Frc consts  --     7.1520                 9.4620                 9.4776
 IR Inten    --    61.6898                40.0379                35.4641
 Raman Activ --   170.9555               127.5028               154.6433

 - Thermochemistry -
 -------------------
 Temperature   298.150 Kelvin.  Pressure   1.00000 Atm.
 Atom     1 has atomic number  8 and mass  15.99491

 Molecular mass:   342.11621 amu.
 Principal axes and moments of inertia in atomic units:
                           1         2         3
     Eigenvalues --  4715.09195********************
           X            0.99996  -0.00918   0.00035
           Y            0.00918   0.99996  -0.00087
           Z           -0.00034   0.00088   1.00000
 This molecule is an asymmetric top.
 Rotational symmetry number  1.
 Warning -- assumption of classical behavior for rotation
           may cause significant error
 Rotational temperatures (Kelvin)      0.01837     0.00757     0.00561
 Rotational constants (GHZ):           0.38276     0.15764     0.11696
    8 imaginary frequencies ignored.
 Zero-point vibrational energy     971845.0 (Joules/Mol)
                                  232.27652 (Kcal/Mol)
 Warning -- explicit consideration of  31 degrees of freedom as
           vibrations may cause significant error
 Vibrational temperatures:     58.32    63.35    90.56   136.66   162.99
          (Kelvin)            197.06   242.97   258.33   319.91   336.39
                              350.94   380.38   409.88   419.05   462.88
                              475.42   503.78   532.67   566.90   592.47
                              602.62   635.70   661.29   692.98   724.02
                              758.51   797.57   831.98   845.76   868.48
                              888.16   924.38   929.63   953.02   970.57
                             1024.22  1049.76  1096.71  1197.58  1208.50
                             1215.67  1280.51  1362.22  1373.12  1407.53
                             1429.50  1435.77  1444.45  1474.03  1486.35
                             1490.92  1509.47  1515.63  1537.44  1554.35
                             1557.43  1568.10  1585.49  1614.52  1622.77
                             1628.73  1643.87  1649.19  1655.70  1683.73
                             1686.21  1695.30  1726.17  1731.60  1767.03
                             1785.35  1798.23  1817.71  1825.64  1829.64
                             1843.00  1864.72  1878.14  1886.47  1889.26
                             1897.98  1913.97  1930.36  1942.92  1948.87
                             1964.77  1973.82  1979.83  1984.94  1996.02
                             2031.63  2049.71  2082.35  2085.34  2096.88
                             2107.36  2115.68  2170.86  2175.46  4684.47
                             4685.52  4699.21  4702.29  4707.52  4711.57
                             4719.65  4725.86  4735.96  4741.84  4747.47
                             4756.54  4767.67  4778.81  4781.21  4842.12
                             4843.01  4847.24  4850.80  4852.04  5580.67
                             5588.34

 Zero-point correction=                           0.370156 (Hartree/Particle)
 Thermal correction to Energy=                    0.388214
 Thermal correction to Enthalpy=                  0.389158
 Thermal correction to Gibbs Free Energy=         0.324215
 Sum of electronic and zero-point Energies=          -1297.606041
 Sum of electronic and thermal Energies=             -1297.587983
 Sum of electronic and thermal Enthalpies=           -1297.587039
 Sum of electronic and thermal Free Energies=        -1297.651982

                     E (Thermal)             CV                S
                      KCal/Mol        Cal/Mol-Kelvin    Cal/Mol-Kelvin
 Total                  243.608             74.531            136.685
 Electronic               0.000              0.000              0.000
 Translational            0.889              2.981             43.384
 Rotational               0.889              2.981             35.076
 Vibrational            241.830             68.570             58.225
 Vibration     1          0.594              1.981              5.233
 Vibration     2          0.595              1.980              5.069
 Vibration     3          0.597              1.972              4.363
 Vibration     4          0.603              1.953              3.555
 Vibration     5          0.607              1.938              3.212
 Vibration     6          0.614              1.916              2.846
 Vibration     7          0.625              1.881              2.448
 Vibration     8          0.629              1.867              2.333
 Vibration     9          0.648              1.807              1.940
 Vibration    10          0.654              1.789              1.850
 Vibration    11          0.659              1.773              1.774
 Vibration    12          0.671              1.738              1.633
 Vibration    13          0.683              1.702              1.504
 Vibration    14          0.687              1.690              1.467
 Vibration    15          0.707              1.632              1.301
 Vibration    16          0.713              1.615              1.258
 Vibration    17          0.727              1.575              1.166
 Vibration    18          0.742              1.533              1.079
 Vibration    19          0.761              1.483              0.985
 Vibration    20          0.776              1.445              0.920
 Vibration    21          0.782              1.429              0.896
 Vibration    22          0.802              1.379              0.821
 Vibration    23          0.818              1.340              0.767
 Vibration    24          0.838              1.291              0.706
 Vibration    25          0.859              1.243              0.650
 Vibration    26          0.882              1.190              0.594
 Vibration    27          0.910              1.130              0.535
 Vibration    28          0.935              1.078              0.489
 Vibration    29          0.945              1.058              0.471
 Vibration    30          0.962              1.024              0.443
 Vibration    31          0.977              0.995              0.421

 Normal termination of Gaussian 09 at Mon Mar 28 13:34:26 2016.
