 Gaussian 09, Revision B.01,
 Gaussian 09:  EM64L-G09RevB.01 12-Aug-2010

 -------------------------------------------------
 # freq=raman b3lyp/6-31+g(2d,p) geom=connectivity
 -------------------------------------------------

 -----------------
 423 5808/5808.com
 -----------------
 Symbolic Z-matrix:
 Charge =  0 Multiplicity = 1

                         Standard orientation:
 ---------------------------------------------------------------------
 Center     Atomic      Atomic             Coordinates (Angstroms)
 Number     Number       Type             X           Y           Z
 ---------------------------------------------------------------------
      1          8           0       -5.062818   -0.330913    0.425420
      2          6           0       -3.776336   -0.129456   -0.177048
      3          6           0       -3.249283    1.223990    0.269446
      4          8           0       -4.069916    2.287026   -0.237106
      5          1           0       -4.997171    1.930259   -0.343111
      6          6           0       -1.812098    1.549527   -0.104913
      7          8           0       -1.287460    2.754470    0.473136
      8          1           0       -0.459694    2.995060   -0.034149
      9          6           0       -3.033946   -2.574093   -0.304186
     10          8           0       -4.325388   -3.066363    0.081366
     11          1           0       -4.327163   -4.031788   -0.177074
     12          6           0       -2.754413   -1.178327    0.231868
     13          8           0       -1.398595   -0.894185   -0.140102
     14          6           0       -0.909914    0.388361    0.280763
     15          8           0        0.261193    0.505656   -0.541064
     16          6           0        1.491111    0.207494    0.133487
     17          6           0        2.001036   -1.167150   -0.269925
     18          8           0        1.028298   -2.167113    0.068576
     19          1           0        0.184717   -1.711818   -0.215667
     20          6           0        3.392060   -1.512162    0.234331
     21          8           0        3.878756   -2.800025   -0.172334
     22          1           0        4.832710   -2.962842    0.078511
     23          6           0        2.376145    2.649336    0.139930
     24          8           0        1.264070    3.393532   -0.378604
     25          1           0        1.442852    4.318537   -0.042526
     26          6           0        2.520792    1.217089   -0.348215
     27          8           0        3.856009    0.858405    0.034251
     28          6           0        4.376390   -0.452017   -0.230426
     29          8           0        5.508051   -0.648264    0.630035
     30          1           0        6.294275   -0.789350    0.097544
     31          1           0       -5.724726   -0.437784   -0.261644
     32          1           0       -2.978307   -2.550988   -1.372488
     33          1           0       -2.285120   -3.242476    0.066522
     34          1           0       -2.781923   -1.239128    1.299785
     35          1           0       -3.880505   -0.134266   -1.241954
     36          1           0       -3.313116    1.251200    1.337193
     37          1           0       -1.770649    1.655656   -1.168829
     38          1           0       -0.663575    0.399671    1.321959
     39          1           0        3.272618    3.176359   -0.112027
     40          1           0        2.290875    2.627887    1.206311
     41          1           0        2.480166    1.232882   -1.417327
     42          1           0        1.367103    0.270061    1.194434
     43          1           0        2.065603   -1.160173   -1.337952
     44          1           0        3.367233   -1.493385    1.303878
     45          1           0        4.636943   -0.576946   -1.260671
 ---------------------------------------------------------------------

 SCF Done:  E(RB3LYP) =  -1298.00001146     A.U. after   13 cycles

 The electronic state is 1-A.
 Alpha  occ. eigenvalues --  -19.18734 -19.18529 -19.18085 -19.18053 -19.17197
 Alpha  occ. eigenvalues --  -19.17179 -19.16300 -19.15559 -19.14954 -19.13957
 Alpha  occ. eigenvalues --  -19.13433 -10.30463 -10.30155 -10.25853 -10.25641
 Alpha  occ. eigenvalues --  -10.25424 -10.25414 -10.25002 -10.24287 -10.24124
 Alpha  occ. eigenvalues --  -10.23989 -10.23975 -10.23762  -1.10297  -1.08601
 Alpha  occ. eigenvalues --   -1.05606  -1.05416  -1.04092  -1.03226  -1.02807
 Alpha  occ. eigenvalues --   -1.02173  -1.01929  -1.00499  -1.00124  -0.82031
 Alpha  occ. eigenvalues --   -0.80350  -0.79236  -0.77938  -0.71658  -0.69889
 Alpha  occ. eigenvalues --   -0.67383  -0.64868  -0.62805  -0.62778  -0.61057
 Alpha  occ. eigenvalues --   -0.59772  -0.56325  -0.55805  -0.54973  -0.54635
 Alpha  occ. eigenvalues --   -0.54372  -0.53075  -0.52593  -0.51159  -0.50832
 Alpha  occ. eigenvalues --   -0.50511  -0.49993  -0.49655  -0.48802  -0.46336
 Alpha  occ. eigenvalues --   -0.46151  -0.44977  -0.43862  -0.43493  -0.43005
 Alpha  occ. eigenvalues --   -0.42318  -0.41823  -0.41035  -0.40326  -0.39009
 Alpha  occ. eigenvalues --   -0.38896  -0.37820  -0.37720  -0.36750  -0.36281
 Alpha  occ. eigenvalues --   -0.35681  -0.35071  -0.34313  -0.33905  -0.33565
 Alpha  occ. eigenvalues --   -0.32644  -0.31192  -0.31042  -0.29937  -0.29675
 Alpha  occ. eigenvalues --   -0.29331  -0.28862  -0.27877  -0.27553  -0.26597
 Alpha  occ. eigenvalues --   -0.26155
 Alpha virt. eigenvalues --   -0.01982  -0.01841  -0.01783  -0.00322   0.00556
 Alpha virt. eigenvalues --    0.01139   0.01904   0.02458   0.03114   0.03542
 Alpha virt. eigenvalues --    0.03992   0.04241   0.05050   0.05488   0.05829

 Mulliken atomic charges:
              1
     1  O   -0.518213
     2  C   -0.175248
     3  C    0.276549
     4  O   -0.555459
     5  H    0.327147
     6  C   -0.053564
     7  O   -0.556802
     8  H    0.403681
     9  C   -0.132195
    10  O   -0.515252
    11  H    0.338468
    12  C    0.070380
    13  O   -0.223904
    14  C    0.130077
    15  O   -0.221780
    16  C    0.226282
    17  C    0.215945
    18  O   -0.571726
    19  H    0.393323
    20  C    0.030103
    21  O   -0.558757
    22  H    0.338111
    23  C   -0.262588
    24  O   -0.544550
    25  H    0.349422
    26  C   -0.111559
    27  O   -0.255158
    28  C    0.191342
    29  O   -0.535163
    30  H    0.332296
    31  H    0.340622
    32  H    0.140676
    33  H    0.152093
    34  H    0.115286
    35  H    0.124285
    36  H    0.125017
    37  H    0.132708
    38  H    0.130524
    39  H    0.149399
    40  H    0.152527
    41  H    0.120362
    42  H    0.111184
    43  H    0.111041
    44  H    0.127861
    45  H    0.135206
 Sum of Mulliken atomic charges =   0.00000

 Dipole moment (field-independent basis, Debye):
    X=              2.0843    Y=              0.0156    Z=             -2.3786  Tot=              3.1626
 Quadrupole moment (field-independent basis, Debye-Ang):
   XX=           -112.9414   YY=           -138.1333   ZZ=           -138.4697
   XY=             15.7924   XZ=              4.5027   YZ=              3.0073

  Exact polarizability: 234.710  -2.073 196.521   1.090   1.026 143.442
 Approx polarizability: 275.217  -1.921 256.280   1.320   0.757 238.763

 ******    7 imaginary frequencies (negative Signs) ******

                     1                      2                      3
                     A                      A                      A
 Frequencies --  -257.6829              -245.3952              -219.7583
 Red. masses --     1.2954                 1.8410                 1.7031
 Frc consts  --     0.0507                 0.0653                 0.0485
 IR Inten    --    91.0217                 3.3090                16.8196
 Raman Activ --     0.5485                 0.0664                 0.3167

                     4                      5                      6
                     A                      A                      A
 Frequencies --  -149.1297               -78.7398               -54.8435
 Red. masses --     1.2154                 6.6629                 6.2975
 Frc consts  --     0.0159                 0.0243                 0.0112
 IR Inten    --   105.6604                 0.9598                 0.5333
 Raman Activ --     1.0074                 0.0203                 0.0223

                     7                      8                      9
                     A                      A                      A
 Frequencies --   -32.9520                18.1314                44.7236
 Red. masses --     5.7022                 6.7448                 6.7794
 Frc consts  --     0.0036                 0.0013                 0.0080
 IR Inten    --     1.4598                 0.0755                 0.6480
 Raman Activ --     0.0333                 0.0102                 0.0787

                    10                     11                     12
                     A                      A                      A
 Frequencies --    69.3352                93.7845               101.2253
 Red. masses --     6.7059                 6.4740                 5.8654
 Frc consts  --     0.0190                 0.0335                 0.0354
 IR Inten    --     0.6605                 0.3858                 2.7319
 Raman Activ --     0.1514                 0.1631                 0.1085

                    13                     14                     15
                     A                      A                      A
 Frequencies --   149.1884               170.9888               187.9651
 Red. masses --     5.6673                 6.4142                 6.8378
 Frc consts  --     0.0743                 0.1105                 0.1423
 IR Inten    --     6.5174                 1.9301                 0.0533
 Raman Activ --     0.2382                 0.4413                 0.3633

                    16                     17                     18
                     A                      A                      A
 Frequencies --   203.9959               233.6141               264.9162
 Red. masses --     6.7786                 5.9255                 4.2815
 Frc consts  --     0.1662                 0.1905                 0.1770
 IR Inten    --     0.1742                 0.7644                16.0138
 Raman Activ --     2.3029                 0.5216                 0.2425

                    19                     20                     21
                     A                      A                      A
 Frequencies --   279.5286               298.4784               304.0562
 Red. masses --     4.6833                 4.8078                 4.4760
 Frc consts  --     0.2156                 0.2524                 0.2438
 IR Inten    --     1.2362                 0.5806                 2.2790
 Raman Activ --     0.1028                 0.3278                 0.2729

                    22                     23                     24
                     A                      A                      A
 Frequencies --   315.1312               320.9053               327.3003
 Red. masses --     6.3543                 5.1489                 6.4296
 Frc consts  --     0.3718                 0.3124                 0.4058
 IR Inten    --     4.9469                 4.4102                 3.7483
 Raman Activ --     0.5763                 1.8621                 3.6296

                    25                     26                     27
                     A                      A                      A
 Frequencies --   337.4422               355.4981               382.3109
 Red. masses --     6.5391                 4.6109                 7.1176
 Frc consts  --     0.4387                 0.3433                 0.6129
 IR Inten    --     7.9562                 7.8957                 0.9686
 Raman Activ --     3.1395                 0.0943                 1.6426

                    28                     29                     30
                     A                      A                      A
 Frequencies --   398.5137               413.7909               434.2484
 Red. masses --     3.6734                 6.6223                 4.9348
 Frc consts  --     0.3437                 0.6681                 0.5483
 IR Inten    --    16.8257                 2.5018                 3.4486
 Raman Activ --     2.5809                 7.5699                 0.8653

                    31                     32                     33
                     A                      A                      A
 Frequencies --   441.5048               476.3930               485.2735
 Red. masses --     5.5217                 4.5592                 3.6392
 Frc consts  --     0.6342                 0.6096                 0.5049
 IR Inten    --     0.9013                 3.9781                11.2210
 Raman Activ --     2.4882                 1.8295                 2.6735

                    34                     35                     36
                     A                      A                      A
 Frequencies --   506.4306               532.4780               572.8476
 Red. masses --     4.1097                 3.2648                 4.1599
 Frc consts  --     0.6210                 0.5454                 0.8043
 IR Inten    --     2.0809                 4.6325                11.7449
 Raman Activ --     4.1354                 3.2858                 1.5796

                    37                     38                     39
                     A                      A                      A
 Frequencies --   591.4751               602.1003               618.9558
 Red. masses --     3.3491                 5.7940                 4.7841
 Frc consts  --     0.6903                 1.2376                 1.0799
 IR Inten    --    28.8468                12.4957                39.3636
 Raman Activ --     0.5624                 0.7296                 0.5505

                    40                     41                     42
                     A                      A                      A
 Frequencies --   642.6817               690.7558               693.9275
 Red. masses --     3.7583                 3.7432                 1.0639
 Frc consts  --     0.9146                 1.0523                 0.3019
 IR Inten    --    28.3082                21.3241                82.4861
 Raman Activ --     0.8933                 1.2713                 2.5282

                    43                     44                     45
                     A                      A                      A
 Frequencies --   706.9903               729.5562               753.4774
 Red. masses --     1.1815                 1.0788                 1.1114
 Frc consts  --     0.3480                 0.3383                 0.3718
 IR Inten    --    64.8690               110.1923               106.8664
 Raman Activ --     0.9347                 1.8894                 1.4730

                    46                     47                     48
                     A                      A                      A
 Frequencies --   813.4394               843.5252               862.1754
 Red. masses --     1.0742                 1.1164                 1.6897
 Frc consts  --     0.4188                 0.4680                 0.7400
 IR Inten    --   121.1360                83.8450                 3.8631
 Raman Activ --     1.5900                 2.8942                 1.0200

                    49                     50                     51
                     A                      A                      A
 Frequencies --   870.1893               918.3124               943.0728
 Red. masses --     1.7054                 4.9624                 5.9543
 Frc consts  --     0.7609                 2.4656                 3.1201
 IR Inten    --     8.9626               157.1454                47.2385
 Raman Activ --     0.8375                 3.0775                 0.2492

                    52                     53                     54
                     A                      A                      A
 Frequencies --   976.7222               982.4354               987.9169
 Red. masses --     6.5877                 6.6668                 4.5440
 Frc consts  --     3.7028                 3.7912                 2.6129
 IR Inten    --    11.6639               279.4785                20.3103
 Raman Activ --     2.8164                 1.2052                 0.6976

                    55                     56                     57
                     A                      A                      A
 Frequencies --  1003.4854              1010.3710              1019.7239
 Red. masses --     5.8853                 6.2896                 6.1649
 Frc consts  --     3.4917                 3.7830                 3.7769
 IR Inten    --   232.4845                 2.1706                84.6758
 Raman Activ --     2.8901                 1.4524                 3.5966

                    58                     59                     60
                     A                      A                      A
 Frequencies --  1040.6940              1052.5959              1059.9999
 Red. masses --     4.6949                 5.6944                 4.8887
 Frc consts  --     2.9958                 3.7172                 3.2364
 IR Inten    --   390.5454               184.9124               129.8394
 Raman Activ --     2.7320                 3.9193                 1.1159

                    61                     62                     63
                     A                      A                      A
 Frequencies --  1065.7893              1070.4723              1079.3196
 Red. masses --     4.0598                 2.8397                 5.9646
 Frc consts  --     2.7170                 1.9172                 4.0938
 IR Inten    --    19.9143                20.5217                54.0673
 Raman Activ --     4.3007                25.7318                 5.7952

                    64                     65                     66
                     A                      A                      A
 Frequencies --  1097.8081              1098.9267              1113.7458
 Red. masses --     2.7850                 3.3027                 2.9722
 Frc consts  --     1.9775                 2.3499                 2.1722
 IR Inten    --    82.7927                16.5695                 4.5036
 Raman Activ --     3.0252                10.1508                 5.8756

                    67                     68                     69
                     A                      A                      A
 Frequencies --  1116.7272              1121.4472              1135.9091
 Red. masses --     2.7356                 2.2364                 2.2066
 Frc consts  --     2.0100                 1.6571                 1.6775
 IR Inten    --    31.1592                44.4246                33.4081
 Raman Activ --     2.7675                 2.4724                 3.9702

                    70                     71                     72
                     A                      A                      A
 Frequencies --  1140.8582              1143.0360              1150.5182
 Red. masses --     3.0024                 2.2011                 1.7338
 Frc consts  --     2.3024                 1.6944                 1.3522
 IR Inten    --    31.7523                41.6520                 2.3682
 Raman Activ --     4.2930                 7.8814                 3.0984

                    73                     74                     75
                     A                      A                      A
 Frequencies --  1159.7124              1170.1369              1181.4107
 Red. masses --     1.7627                 1.8580                 1.5976
 Frc consts  --     1.3968                 1.4989                 1.3137
 IR Inten    --    20.4163                 1.0122                10.8257
 Raman Activ --     3.0001                 0.9903                 1.6093

                    76                     77                     78
                     A                      A                      A
 Frequencies --  1199.4352              1207.0120              1225.9474
 Red. masses --     1.2612                 1.5120                 1.2808
 Frc consts  --     1.0690                 1.2978                 1.1341
 IR Inten    --    11.5677                 9.0914                 1.3305
 Raman Activ --     1.9322                 2.7274                 0.7942

                    79                     80                     81
                     A                      A                      A
 Frequencies --  1236.8194              1241.1360              1254.7870
 Red. masses --     1.1742                 1.2001                 1.2978
 Frc consts  --     1.0583                 1.0892                 1.2039
 IR Inten    --    10.1099                 7.3319                22.4281
 Raman Activ --     0.8432                 2.3050                 2.1305

                    82                     83                     84
                     A                      A                      A
 Frequencies --  1269.0104              1276.3894              1278.0895
 Red. masses --     1.1847                 1.3344                 1.2967
 Frc consts  --     1.1240                 1.2808                 1.2480
 IR Inten    --     8.9545                 4.4605                16.1985
 Raman Activ --     0.6195                 1.7927                 3.7785

                    85                     86                     87
                     A                      A                      A
 Frequencies --  1280.5357              1290.4000              1300.0739
 Red. masses --     1.1675                 1.2716                 1.2409
 Frc consts  --     1.1279                 1.2475                 1.2357
 IR Inten    --    12.4269                 2.3586                20.5148
 Raman Activ --     2.3915                 1.3039                 3.2400

                    88                     89                     90
                     A                      A                      A
 Frequencies --  1307.6078              1321.6210              1329.1568
 Red. masses --     1.3236                 1.3189                 1.2562
 Frc consts  --     1.3334                 1.3573                 1.3076
 IR Inten    --    11.6024                21.1758                23.8668
 Raman Activ --     5.1975                 8.4833                 6.9571

                    91                     92                     93
                     A                      A                      A
 Frequencies --  1330.9544              1337.5917              1339.7875
 Red. masses --     1.2686                 1.2902                 1.2111
 Frc consts  --     1.3240                 1.3600                 1.2809
 IR Inten    --    36.4735                33.8189                14.4555
 Raman Activ --     4.6282                 2.2432                 2.5523

                    94                     95                     96
                     A                      A                      A
 Frequencies --  1350.3889              1360.3972              1364.4846
 Red. masses --     1.2111                 1.4394                 1.4853
 Frc consts  --     1.3012                 1.5695                 1.6293
 IR Inten    --    51.5660                 4.4463                 7.6408
 Raman Activ --     1.0297                 9.8460                 3.0779

                    97                     98                     99
                     A                      A                      A
 Frequencies --  1369.0980              1393.1375              1397.3765
 Red. masses --     1.5564                 1.4964                 1.5317
 Frc consts  --     1.7189                 1.7111                 1.7622
 IR Inten    --     1.0740                 9.8666                 2.4242
 Raman Activ --     6.7800                 3.3526                 8.2125

                   100                    101                    102
                     A                      A                      A
 Frequencies --  1404.5561              1443.8510              1475.0446
 Red. masses --     1.6725                 1.3965                 1.0770
 Frc consts  --     1.9439                 1.7152                 1.3806
 IR Inten    --    23.8449                56.2138                 4.1418
 Raman Activ --     2.0489                 1.4360                 4.7374

                   103                    104                    105
                     A                      A                      A
 Frequencies --  1476.0729              1480.5426              1488.2034
 Red. masses --     1.1204                 1.3252                 1.3565
 Frc consts  --     1.4382                 1.7115                 1.7701
 IR Inten    --     9.8834                16.8381                33.6430
 Raman Activ --     5.1019                 0.5595                 1.0997

                   106                    107                    108
                     A                      A                      A
 Frequencies --  1517.1550              1543.0353              3256.8610
 Red. masses --     1.2515                 1.2398                 1.0564
 Frc consts  --     1.6972                 1.7392                 6.6021
 IR Inten    --    34.3207                58.9105                25.1339
 Raman Activ --     1.2843                 2.0058                85.0482

                   109                    110                    111
                     A                      A                      A
 Frequencies --  3258.3357              3260.7278              3270.2844
 Red. masses --     1.0719                 1.0670                 1.0819
 Frc consts  --     6.7051                 6.6840                 6.8170
 IR Inten    --    14.4769               105.6653                13.6097
 Raman Activ --     7.3380               126.4392                12.6825

                   112                    113                    114
                     A                      A                      A
 Frequencies --  3272.3169              3275.1846              3282.9403
 Red. masses --     1.0810                 1.0820                 1.0836
 Frc consts  --     6.8203                 6.8381                 6.8808
 IR Inten    --    18.1274                15.4940                24.7699
 Raman Activ --   220.1592                62.0911               140.8534

                   115                    116                    117
                     A                      A                      A
 Frequencies --  3283.6371              3286.3498              3290.9097
 Red. masses --     1.0775                 1.0762                 1.0870
 Frc consts  --     6.8453                 6.8478                 6.9361
 IR Inten    --   223.9807               162.9384                16.4467
 Raman Activ --    96.1790               115.4565                21.6709

                   118                    119                    120
                     A                      A                      A
 Frequencies --  3294.6265              3299.2349              3302.3992
 Red. masses --     1.0862                 1.0872                 1.0795
 Frc consts  --     6.9466                 6.9724                 6.9362
 IR Inten    --    23.6067                53.7345               324.5452
 Raman Activ --    41.6990                19.9437                24.5475

                   121                    122                    123
                     A                      A                      A
 Frequencies --  3310.2115              3317.4940              3318.5685
 Red. masses --     1.0748                 1.1073                 1.1069
 Frc consts  --     6.9387                 7.1799                 7.1824
 IR Inten    --   494.3396                60.5832                49.8765
 Raman Activ --   103.8073                48.5391                40.5583

                   124                    125                    126
                     A                      A                      A
 Frequencies --  3369.2726              3372.9377              3373.5456
 Red. masses --     1.0658                 1.0663                 1.0655
 Frc consts  --     7.1286                 7.1471                 7.1447
 IR Inten    --    57.5814                41.8061                19.1985
 Raman Activ --   116.7713               149.1521               104.0164

                   127                    128                    129
                     A                      A                      A
 Frequencies --  3375.4786              3888.6268              3888.8925
 Red. masses --     1.0665                 1.0677                 1.0674
 Frc consts  --     7.1596                 9.5126                 9.5114
 IR Inten    --    37.7627                96.4079                46.9999
 Raman Activ --   175.2522                62.0006               157.6056

 - Thermochemistry -
 -------------------
 Temperature   298.150 Kelvin.  Pressure   1.00000 Atm.
 Atom     1 has atomic number  8 and mass  15.99491

 Molecular mass:   342.11621 amu.
 Principal axes and moments of inertia in atomic units:
                           1         2         3
     Eigenvalues --  4384.00493********************
           X            0.99997   0.00744   0.00092
           Y           -0.00744   0.99997   0.00333
           Z           -0.00090  -0.00333   0.99999
 This molecule is an asymmetric top.
 Rotational symmetry number  1.
 Warning -- assumption of classical behavior for rotation
           may cause significant error
 Rotational temperatures (Kelvin)      0.01976     0.00697     0.00526
 Rotational constants (GHZ):           0.41166     0.14517     0.10967
    7 imaginary frequencies ignored.
 Zero-point vibrational energy     974471.6 (Joules/Mol)
                                  232.90430 (Kcal/Mol)
 Warning -- explicit consideration of  32 degrees of freedom as
           vibrations may cause significant error
 Vibrational temperatures:     26.09    64.35    99.76   134.93   145.64
          (Kelvin)            214.65   246.01   270.44   293.50   336.12
                              381.15   402.18   429.44   437.47   453.40
                              461.71   470.91   485.50   511.48   550.06
                              573.37   595.35   624.79   635.23   685.42
                              698.20   728.64   766.12   824.20   851.00
                              866.29   890.54   924.67   993.84   998.41
                             1017.20  1049.67  1084.08  1170.36  1213.64
                             1240.48  1252.01  1321.25  1356.87  1405.28
                             1413.50  1421.39  1443.79  1453.70  1467.15
                             1497.32  1514.45  1525.10  1533.43  1540.17
                             1552.90  1579.50  1581.11  1602.43  1606.72
                             1613.51  1634.32  1641.44  1644.57  1655.34
                             1668.57  1683.56  1699.78  1725.72  1736.62
                             1763.86  1779.51  1785.72  1805.36  1825.82
                             1836.44  1838.88  1842.40  1856.60  1870.51
                             1881.35  1901.52  1912.36  1914.94  1924.49
                             1927.65  1942.91  1957.31  1963.19  1969.82
                             2004.41  2010.51  2020.84  2077.38  2122.26
                             2123.74  2130.17  2141.19  2182.84  2220.08
                             4685.89  4688.01  4691.45  4705.20  4708.13
                             4712.25  4723.41  4724.42  4728.32  4734.88
                             4740.23  4746.86  4751.41  4762.65  4773.13
                             4774.67  4847.63  4852.90  4853.77  4856.55
                             5594.86  5595.24

 Zero-point correction=                           0.371157 (Hartree/Particle)
 Thermal correction to Energy=                    0.389611
 Thermal correction to Enthalpy=                  0.390556
 Thermal correction to Gibbs Free Energy=         0.324325
 Sum of electronic and zero-point Energies=          -1297.628855
 Sum of electronic and thermal Energies=             -1297.610400
 Sum of electronic and thermal Enthalpies=           -1297.609456
 Sum of electronic and thermal Free Energies=        -1297.675687

                     E (Thermal)             CV                S
                      KCal/Mol        Cal/Mol-Kelvin    Cal/Mol-Kelvin
 Total                  244.485             75.868            139.395
 Electronic               0.000              0.000              0.000
 Translational            0.889              2.981             43.384
 Rotational               0.889              2.981             35.149
 Vibrational            242.707             69.907             60.861
 Vibration     1          0.593              1.986              6.829
 Vibration     2          0.595              1.980              5.038
 Vibration     3          0.598              1.969              4.172
 Vibration     4          0.603              1.954              3.580
 Vibration     5          0.604              1.948              3.431
 Vibration     6          0.618              1.904              2.683
 Vibration     7          0.626              1.878              2.425
 Vibration     8          0.633              1.856              2.248
 Vibration     9          0.640              1.834              2.097
 Vibration    10          0.654              1.789              1.851
 Vibration    11          0.671              1.737              1.629
 Vibration    12          0.680              1.711              1.537
 Vibration    13          0.692              1.677              1.425
 Vibration    14          0.695              1.666              1.394
 Vibration    15          0.702              1.645              1.335
 Vibration    16          0.706              1.634              1.305
 Vibration    17          0.711              1.621              1.273
 Vibration    18          0.718              1.601              1.224
 Vibration    19          0.731              1.564              1.142
 Vibration    20          0.752              1.508              1.030
 Vibration    21          0.765              1.473              0.968
 Vibration    22          0.777              1.440              0.913
 Vibration    23          0.795              1.396              0.845
 Vibration    24          0.801              1.380              0.822
 Vibration    25          0.833              1.302              0.720
 Vibration    26          0.841              1.283              0.696
 Vibration    27          0.862              1.236              0.642
 Vibration    28          0.887              1.178              0.582
 Vibration    29          0.929              1.090              0.499
 Vibration    30          0.949              1.050              0.465
 Vibration    31          0.960              1.027              0.446
 Vibration    32          0.979              0.992              0.418

 Normal termination of Gaussian 09 at Sun Mar 27 03:21:19 2016.
