 Gaussian 09, Revision B.01,
 Gaussian 09:  EM64L-G09RevB.01 12-Aug-2010

 -------------------------------------------------
 # freq=raman b3lyp/6-31+g(2d,p) geom=connectivity
 -------------------------------------------------

 -----------------
 400 7322/7322.com
 -----------------
 Symbolic Z-matrix:
 Charge =  0 Multiplicity = 1

                         Standard orientation:
 ---------------------------------------------------------------------
 Center     Atomic      Atomic             Coordinates (Angstroms)
 Number     Number       Type             X           Y           Z
 ---------------------------------------------------------------------
      1          8           0        5.007090   -0.459436   -0.285527
      2          6           0        3.678400   -0.086914    0.107241
      3          6           0        3.228758    1.260867   -0.433096
      4          8           0        4.182890    2.295364   -0.150079
      5          1           0        5.040952    1.966585   -0.544947
      6          6           0        1.879679    1.524407    0.214657
      7          8           0        1.308281    2.783736   -0.168573
      8          1           0        0.351947    2.947986    0.070336
      9          6           0        2.944120   -2.553239    0.269062
     10          8           0        3.995840   -3.284460   -0.377367
     11          1           0        3.942460   -4.249635   -0.119844
     12          6           0        2.653509   -1.152546   -0.246768
     13          8           0        1.415842   -0.820425    0.399568
     14          6           0        0.925113    0.403457   -0.164478
     15          8           0       -0.208801    0.453423    0.712639
     16          6           0       -1.465422    0.183136    0.076480
     17          6           0       -2.021335   -1.146786    0.558490
     18          8           0       -1.032110   -2.103879    0.152605
     19          1           0       -0.100362   -1.772964    0.301917
     20          6           0       -3.307604   -1.470283   -0.184433
     21          8           0       -3.859338   -2.741222    0.188690
     22          1           0       -4.803023   -2.732875   -0.140112
     23          6           0       -2.269767    2.590444   -0.110414
     24          8           0       -1.133513    3.299386    0.406173
     25          1           0       -1.288601    4.285645    0.463988
     26          6           0       -2.594778    1.170617    0.322703
     27          8           0       -3.732845    0.914028   -0.512593
     28          6           0       -4.295901   -0.323698   -0.053164
     29          8           0       -5.514854   -0.593563   -0.760182
     30          1           0       -6.244844   -0.628451   -0.137689
     31          1           0        5.560349   -0.541225    0.494740
     32          1           0        2.045175   -3.127186    0.183142
     33          1           0        3.189345   -2.475664    1.307689
     34          1           0        2.511278   -1.179871   -1.306921
     35          1           0        3.684634   -0.005357    1.174110
     36          1           0        3.098904    1.186706   -1.492595
     37          1           0        2.006386    1.518570    1.277112
     38          1           0        0.677824    0.343187   -1.203764
     39          1           0       -3.131130    3.185197    0.111446
     40          1           0       -2.163220    2.571227   -1.174923
     41          1           0       -2.882605    1.155699    1.353156
     42          1           0       -1.299678    0.118012   -0.978597
     43          1           0       -2.163714   -1.153864    1.618952
     44          1           0       -3.054189   -1.539836   -1.221662
     45          1           0       -4.534381   -0.212252    0.983951
 ---------------------------------------------------------------------

 SCF Done:  E(RB3LYP) =  -1297.97959793     A.U. after   13 cycles

 The electronic state is 1-A.
 Alpha  occ. eigenvalues --  -19.19276 -19.19117 -19.19004 -19.18439 -19.17813
 Alpha  occ. eigenvalues --  -19.16531 -19.16106 -19.15595 -19.15267 -19.13013
 Alpha  occ. eigenvalues --  -19.11993 -10.31083 -10.30562 -10.26468 -10.25514
 Alpha  occ. eigenvalues --  -10.25389 -10.25118 -10.24689 -10.24625 -10.24256
 Alpha  occ. eigenvalues --  -10.24171 -10.24103 -10.23783  -1.11102  -1.09972
 Alpha  occ. eigenvalues --   -1.06082  -1.04915  -1.04629  -1.03649  -1.02736
 Alpha  occ. eigenvalues --   -1.02019  -1.01683  -1.00113  -0.98974  -0.82270
 Alpha  occ. eigenvalues --   -0.80569  -0.79695  -0.78309  -0.71790  -0.69621
 Alpha  occ. eigenvalues --   -0.67171  -0.65417  -0.63755  -0.62258  -0.61720
 Alpha  occ. eigenvalues --   -0.60763  -0.56783  -0.56415  -0.55866  -0.54717
 Alpha  occ. eigenvalues --   -0.53622  -0.53335  -0.53184  -0.52273  -0.51097
 Alpha  occ. eigenvalues --   -0.50701  -0.49889  -0.49248  -0.48597  -0.46437
 Alpha  occ. eigenvalues --   -0.46269  -0.45444  -0.44150  -0.43949  -0.43187
 Alpha  occ. eigenvalues --   -0.42623  -0.41624  -0.40791  -0.40474  -0.40432
 Alpha  occ. eigenvalues --   -0.39373  -0.38166  -0.37583  -0.36005  -0.35767
 Alpha  occ. eigenvalues --   -0.35671  -0.34980  -0.34310  -0.33890  -0.33399
 Alpha  occ. eigenvalues --   -0.32873  -0.31835  -0.31220  -0.30104  -0.29485
 Alpha  occ. eigenvalues --   -0.29435  -0.28424  -0.28134  -0.27196  -0.26414
 Alpha  occ. eigenvalues --   -0.25951
 Alpha virt. eigenvalues --   -0.02415  -0.02306  -0.01590  -0.00095   0.00260
 Alpha virt. eigenvalues --    0.01024   0.01976   0.02032   0.03017   0.03676
 Alpha virt. eigenvalues --    0.03806   0.04411   0.04579   0.05294   0.05543

 Mulliken atomic charges:
              1
     1  O   -0.552972
     2  C   -0.019900
     3  C    0.109679
     4  O   -0.538171
     5  H    0.342407
     6  C   -0.039828
     7  O   -0.639113
     8  H    0.456300
     9  C   -0.129271
    10  O   -0.525366
    11  H    0.333762
    12  C    0.106906
    13  O   -0.235208
    14  C    0.278172
    15  O   -0.189426
    16  C    0.157701
    17  C    0.122006
    18  O   -0.590385
    19  H    0.397333
    20  C    0.134439
    21  O   -0.545757
    22  H    0.339504
    23  C   -0.297233
    24  O   -0.593869
    25  H    0.367622
    26  C    0.012299
    27  O   -0.249936
    28  C    0.075672
    29  O   -0.567405
    30  H    0.341967
    31  H    0.338638
    32  H    0.146389
    33  H    0.134603
    34  H    0.112446
    35  H    0.111550
    36  H    0.116828
    37  H    0.128594
    38  H    0.141062
    39  H    0.144309
    40  H    0.162056
    41  H    0.122502
    42  H    0.110192
    43  H    0.124970
    44  H    0.128835
    45  H    0.115097
 Sum of Mulliken atomic charges =   0.00000

 Dipole moment (field-independent basis, Debye):
    X=             -3.1895    Y=              0.9702    Z=              2.3296  Tot=              4.0671
 Quadrupole moment (field-independent basis, Debye-Ang):
   XX=           -118.0239   YY=           -139.6020   ZZ=           -138.4131
   XY=            -18.3089   XZ=             -1.3667   YZ=             -1.0365

  Exact polarizability: 233.627   0.989 196.222  -0.253  -0.804 143.050
 Approx polarizability: 274.674   0.424 255.952  -0.769  -0.591 240.326

 ******    7 imaginary frequencies (negative Signs) ******

                     1                      2                      3
                     A                      A                      A
 Frequencies --  -265.3797              -263.7580              -222.8012
 Red. masses --     1.6120                 1.7263                 1.2938
 Frc consts  --     0.0669                 0.0708                 0.0378
 IR Inten    --    34.8801                 1.9915                66.6739
 Raman Activ --     0.2050                 0.0237                 0.6554

                     4                      5                      6
                     A                      A                      A
 Frequencies --  -121.9771               -74.5994               -45.2461
 Red. masses --     1.3682                 7.3752                 6.1157
 Frc consts  --     0.0120                 0.0242                 0.0074
 IR Inten    --    93.9421                 3.6968                 2.6850
 Raman Activ --     0.5158                 0.0585                 0.0464

                     7                      8                      9
                     A                      A                      A
 Frequencies --   -22.6324                58.2509                87.0111
 Red. masses --     6.1570                 6.7201                 5.5619
 Frc consts  --     0.0019                 0.0134                 0.0248
 IR Inten    --     1.2943                 1.6355                 8.3553
 Raman Activ --     0.0179                 0.0791                 0.1893

                    10                     11                     12
                     A                      A                      A
 Frequencies --    94.1292               117.0917               137.5167
 Red. masses --     6.8061                 6.1097                 5.7966
 Frc consts  --     0.0355                 0.0494                 0.0646
 IR Inten    --     1.2890                 4.3835                 1.4735
 Raman Activ --     0.0864                 0.0307                 0.0301

                    13                     14                     15
                     A                      A                      A
 Frequencies --   167.8462               182.3468               194.9024
 Red. masses --     6.2771                 7.4781                 5.3942
 Frc consts  --     0.1042                 0.1465                 0.1207
 IR Inten    --     2.8384                 1.1494                 2.9262
 Raman Activ --     0.4345                 1.0564                 0.5330

                    16                     17                     18
                     A                      A                      A
 Frequencies --   227.2275               245.5280               273.7183
 Red. masses --     7.3086                 6.0676                 4.8831
 Frc consts  --     0.2223                 0.2155                 0.2156
 IR Inten    --     0.7835                 2.2949                11.9007
 Raman Activ --     2.7499                 0.2480                 0.4032

                    19                     20                     21
                     A                      A                      A
 Frequencies --   290.9138               297.3911               305.0079
 Red. masses --     4.3015                 4.6124                 4.1502
 Frc consts  --     0.2145                 0.2403                 0.2275
 IR Inten    --     8.3577                 4.1787                 0.5541
 Raman Activ --     0.2435                 0.2760                 0.3326

                    22                     23                     24
                     A                      A                      A
 Frequencies --   313.1555               320.1797               330.0611
 Red. masses --     4.5507                 6.1611                 6.2796
 Frc consts  --     0.2629                 0.3721                 0.4031
 IR Inten    --     7.2105                 5.9120                 0.8368
 Raman Activ --     0.0986                 3.6327                 2.4948

                    25                     26                     27
                     A                      A                      A
 Frequencies --   362.9517               372.9123               379.9411
 Red. masses --     6.0346                 6.0765                 6.6660
 Frc consts  --     0.4684                 0.4979                 0.5670
 IR Inten    --    14.1893                 0.4518                 5.2868
 Raman Activ --     1.4632                 2.4332                 1.7567

                    28                     29                     30
                     A                      A                      A
 Frequencies --   417.0730               434.3166               441.0546
 Red. masses --     5.1778                 4.4278                 4.6837
 Frc consts  --     0.5307                 0.4921                 0.5368
 IR Inten    --    14.7409                 6.0617                 3.6280
 Raman Activ --     1.8945                 3.7266                 4.2430

                    31                     32                     33
                     A                      A                      A
 Frequencies --   443.9501               477.4723               501.4902
 Red. masses --     6.5300                 4.2696                 4.6060
 Frc consts  --     0.7583                 0.5735                 0.6825
 IR Inten    --     2.3696                 5.4522                11.7314
 Raman Activ --     2.1579                 2.9346                 0.2690

                    34                     35                     36
                     A                      A                      A
 Frequencies --   528.9241               536.0475               573.4757
 Red. masses --     3.6267                 3.1257                 4.2745
 Frc consts  --     0.5978                 0.5292                 0.8283
 IR Inten    --    17.4017                 7.1138                15.7008
 Raman Activ --     0.8652                 4.9090                 1.9120

                    37                     38                     39
                     A                      A                      A
 Frequencies --   584.8256               595.5398               621.9254
 Red. masses --     2.7210                 5.7684                 5.7616
 Frc consts  --     0.5483                 1.2054                 1.3130
 IR Inten    --    26.2556                 0.4114                31.9815
 Raman Activ --     0.5653                 1.2390                 0.5438

                    40                     41                     42
                     A                      A                      A
 Frequencies --   637.4764               676.5815               698.6036
 Red. masses --     3.6824                 1.0897                 1.0811
 Frc consts  --     0.8817                 0.2939                 0.3109
 IR Inten    --    14.5590               108.0053               109.1902
 Raman Activ --     0.7498                 1.8162                 1.6899

                    43                     44                     45
                     A                      A                      A
 Frequencies --   714.3749               741.7801               750.3885
 Red. masses --     4.8155                 1.0700                 1.0948
 Frc consts  --     1.4479                 0.3469                 0.3632
 IR Inten    --    20.5005                80.4367               103.6809
 Raman Activ --     3.0923                 1.6223                 1.5597

                    46                     47                     48
                     A                      A                      A
 Frequencies --   812.4834               837.8019               851.5960
 Red. masses --     1.1364                 1.0751                 1.8596
 Frc consts  --     0.4420                 0.4446                 0.7946
 IR Inten    --    39.3518                74.5339                 1.4354
 Raman Activ --     0.8040                 0.7760                 0.7108

                    49                     50                     51
                     A                      A                      A
 Frequencies --   872.6581               924.3583               970.8077
 Red. masses --     1.5242                 5.7673                 4.3815
 Frc consts  --     0.6839                 2.9034                 2.4330
 IR Inten    --     3.4356                75.2449                82.3898
 Raman Activ --     0.6033                 2.6167                 1.2827

                    52                     53                     54
                     A                      A                      A
 Frequencies --   972.0871               976.9768               986.6466
 Red. masses --     6.8841                 4.4393                 5.2975
 Frc consts  --     3.8327                 2.4965                 3.0384
 IR Inten    --    17.3103                99.6633                79.0238
 Raman Activ --     1.6184                 0.4277                 1.5380

                    55                     56                     57
                     A                      A                      A
 Frequencies --  1001.8980              1008.8596              1024.1264
 Red. masses --     6.9163                 5.6479                 5.9840
 Frc consts  --     4.0905                 3.3869                 3.6978
 IR Inten    --   263.7041                55.9733               456.2069
 Raman Activ --     2.3378                 3.7553                 2.9810

                    58                     59                     60
                     A                      A                      A
 Frequencies --  1035.6867              1057.7357              1064.8722
 Red. masses --     5.9816                 4.6756                 3.8328
 Frc consts  --     3.7803                 3.0821                 2.5607
 IR Inten    --    97.3863                30.1898                56.4753
 Raman Activ --     1.3848                 7.9908                 2.7771

                    61                     62                     63
                     A                      A                      A
 Frequencies --  1071.1956              1075.7606              1083.8740
 Red. masses --     4.3106                 3.1095                 3.1931
 Frc consts  --     2.9143                 2.1202                 2.2101
 IR Inten    --    84.2549                 7.8103                56.3012
 Raman Activ --    22.0235                16.2035                 1.5422

                    64                     65                     66
                     A                      A                      A
 Frequencies --  1091.9961              1094.6156              1112.1670
 Red. masses --     4.0155                 2.7639                 2.5166
 Frc consts  --     2.8212                 1.9512                 1.8340
 IR Inten    --    76.7121                49.9400                46.3968
 Raman Activ --     3.7130                 3.3299                 7.2419

                    67                     68                     69
                     A                      A                      A
 Frequencies --  1115.4084              1119.9702              1133.4715
 Red. masses --     2.7985                 2.4322                 2.8651
 Frc consts  --     2.0514                 1.7975                 2.1688
 IR Inten    --    45.1677                 8.1639                36.4560
 Raman Activ --     3.5776                 2.1255                13.9086

                    70                     71                     72
                     A                      A                      A
 Frequencies --  1138.7597              1154.3083              1155.6889
 Red. masses --     2.7032                 1.9634                 1.9868
 Frc consts  --     2.0654                 1.5413                 1.5634
 IR Inten    --    14.9555                23.5343                30.3387
 Raman Activ --     7.0991                 5.8627                 3.9946

                    73                     74                     75
                     A                      A                      A
 Frequencies --  1159.9925              1169.7988              1184.3019
 Red. masses --     2.0178                 1.8103                 2.0516
 Frc consts  --     1.5997                 1.4596                 1.6954
 IR Inten    --    13.5884                 5.8545                 5.1950
 Raman Activ --     1.8874                 4.4104                 1.2181

                    76                     77                     78
                     A                      A                      A
 Frequencies --  1200.5747              1205.2552              1210.7077
 Red. masses --     1.3877                 1.2518                 1.3135
 Frc consts  --     1.1785                 1.0714                 1.1344
 IR Inten    --     3.5248                25.9916                 3.1002
 Raman Activ --     2.6119                 2.1488                 2.0259

                    79                     80                     81
                     A                      A                      A
 Frequencies --  1232.4620              1253.4980              1268.6953
 Red. masses --     1.3078                 1.4106                 1.2959
 Frc consts  --     1.1704                 1.3059                 1.2290
 IR Inten    --     2.2309                 9.1667                 6.9490
 Raman Activ --     1.3556                 1.9469                 1.9467

                    82                     83                     84
                     A                      A                      A
 Frequencies --  1275.2814              1279.0021              1285.6636
 Red. masses --     1.1514                 1.3107                 1.3997
 Frc consts  --     1.1033                 1.2632                 1.3631
 IR Inten    --    11.4637                13.4979                 7.2840
 Raman Activ --     4.1042                 1.3924                 1.9799

                    85                     86                     87
                     A                      A                      A
 Frequencies --  1295.6151              1298.9166              1301.6630
 Red. masses --     1.3285                 1.2839                 1.2228
 Frc consts  --     1.3139                 1.2763                 1.2207
 IR Inten    --    11.4292                51.1744                25.7160
 Raman Activ --     3.2933                 1.9500                 8.3169

                    88                     89                     90
                     A                      A                      A
 Frequencies --  1312.4616              1315.8818              1326.3673
 Red. masses --     1.4121                 1.2166                 1.2973
 Frc consts  --     1.4331                 1.2412                 1.3447
 IR Inten    --    35.6982                 4.5061                45.1269
 Raman Activ --     0.6640                12.3630                 6.1049

                    91                     92                     93
                     A                      A                      A
 Frequencies --  1330.4942              1341.1515              1345.6862
 Red. masses --     1.2157                 1.2066                 1.2254
 Frc consts  --     1.2679                 1.2787                 1.3075
 IR Inten    --    40.4986                 5.6835                25.8069
 Raman Activ --     0.9033                 2.9879                 3.7066

                    94                     95                     96
                     A                      A                      A
 Frequencies --  1356.4638              1369.1047              1375.1693
 Red. masses --     1.2241                 1.5865                 1.6388
 Frc consts  --     1.3270                 1.7521                 1.8259
 IR Inten    --    38.8419                 0.8935                25.5899
 Raman Activ --     0.6222                 8.9363                 6.6975

                    97                     98                     99
                     A                      A                      A
 Frequencies --  1397.8334              1405.8129              1410.5298
 Red. masses --     1.2775                 1.2967                 1.2999
 Frc consts  --     1.4707                 1.5098                 1.5238
 IR Inten    --     5.1432                 5.8901                 0.7894
 Raman Activ --     4.8898                 2.2378                 8.7941

                   100                    101                    102
                     A                      A                      A
 Frequencies --  1429.0685              1448.2128              1457.5934
 Red. masses --     1.3333                 1.4308                 1.3571
 Frc consts  --     1.6043                 1.7680                 1.6987
 IR Inten    --    19.7190                38.1592                18.6005
 Raman Activ --     0.7108                 1.1736                 0.8011

                   103                    104                    105
                     A                      A                      A
 Frequencies --  1461.1381              1468.3882              1471.6522
 Red. masses --     1.3570                 1.1069                 1.1218
 Frc consts  --     1.7070                 1.4062                 1.4315
 IR Inten    --    19.3024                 8.5433                15.3520
 Raman Activ --     2.9322                 5.2012                 2.6000

                   106                    107                    108
                     A                      A                      A
 Frequencies --  1476.5171              1482.7603              3195.8458
 Red. masses --     1.2763                 1.2505                 1.0719
 Frc consts  --     1.6394                 1.6198                 6.4500
 IR Inten    --    38.4041                36.1581              1299.2478
 Raman Activ --     1.7975                 2.7045               209.6441

                   109                    110                    111
                     A                      A                      A
 Frequencies --  3256.0381              3263.5024              3264.2058
 Red. masses --     1.0574                 1.0833                 1.0596
 Frc consts  --     6.6047                 6.7975                 6.6517
 IR Inten    --    30.5944                18.9829                58.3173
 Raman Activ --    81.0944                57.7676               158.1442

                   112                    113                    114
                     A                      A                      A
 Frequencies --  3267.6995              3271.1691              3273.9918
 Red. masses --     1.0723                 1.0819                 1.0828
 Frc consts  --     6.7460                 6.8208                 6.8383
 IR Inten    --   650.6769                62.3887                15.3911
 Raman Activ --    77.1121               131.7412                 9.6816

                   115                    116                    117
                     A                      A                      A
 Frequencies --  3275.8147              3282.4148              3283.1823
 Red. masses --     1.0828                 1.0850                 1.0842
 Frc consts  --     6.8460                 6.8875                 6.8856
 IR Inten    --    66.1293                18.1317                22.8345
 Raman Activ --    99.0640                44.0426                96.0197

                   118                    119                    120
                     A                      A                      A
 Frequencies --  3285.2371              3294.8507              3301.1268
 Red. masses --     1.0833                 1.0866                 1.0870
 Frc consts  --     6.8888                 6.9501                 6.9791
 IR Inten    --   108.6238                49.7193                26.1152
 Raman Activ --    24.6491                39.7113                23.1017

                   121                    122                    123
                     A                      A                      A
 Frequencies --  3309.5219              3312.4710              3318.4822
 Red. masses --     1.0915                 1.1017                 1.1047
 Frc consts  --     7.0437                 7.1225                 7.1675
 IR Inten    --    25.4055                81.5631                56.5523
 Raman Activ --    33.7214                36.6171                34.2107

                   124                    125                    126
                     A                      A                      A
 Frequencies --  3363.2602              3367.5668              3373.7436
 Red. masses --     1.0675                 1.0652                 1.0670
 Frc consts  --     7.1144                 7.1176                 7.1558
 IR Inten    --    40.9515                39.2373                86.0010
 Raman Activ --   166.0357               113.4690                67.4437

                   127                    128                    129
                     A                      A                      A
 Frequencies --  3373.9037              3887.8309              3891.3387
 Red. masses --     1.0663                 1.0677                 1.0676
 Frc consts  --     7.1512                 9.5089                 9.5246
 IR Inten    --    30.9368                78.8227                87.6671
 Raman Activ --   195.2248                82.4774               103.4832

 - Thermochemistry -
 -------------------
 Temperature   298.150 Kelvin.  Pressure   1.00000 Atm.
 Atom     1 has atomic number  8 and mass  15.99491

 Molecular mass:   342.11621 amu.
 Principal axes and moments of inertia in atomic units:
                           1         2         3
     Eigenvalues --  4402.54376********************
           X            0.99996  -0.00840  -0.00044
           Y            0.00840   0.99996  -0.00235
           Z            0.00046   0.00235   1.00000
 This molecule is an asymmetric top.
 Rotational symmetry number  1.
 Warning -- assumption of classical behavior for rotation
           may cause significant error
 Rotational temperatures (Kelvin)      0.01967     0.00716     0.00540
 Rotational constants (GHZ):           0.40993     0.14914     0.11242
    7 imaginary frequencies ignored.
 Zero-point vibrational energy     976129.5 (Joules/Mol)
                                  233.30054 (Kcal/Mol)
 Warning -- explicit consideration of  31 degrees of freedom as
           vibrations may cause significant error
 Vibrational temperatures:     83.81   125.19   135.43   168.47   197.86
          (Kelvin)            241.49   262.36   280.42   326.93   353.26
                              393.82   418.56   427.88   438.84   450.56
                              460.67   474.88   522.21   536.54   546.65
                              600.07   624.88   634.58   638.74   686.98
                              721.53   761.00   771.25   825.10   841.43
                              856.85   894.81   917.19   973.45  1005.13
                             1027.82  1067.25  1079.64  1168.98  1205.41
                             1225.26  1255.56  1329.94  1396.77  1398.61
                             1405.65  1419.56  1441.51  1451.52  1473.49
                             1490.12  1521.84  1532.11  1541.21  1547.78
                             1559.45  1571.14  1574.91  1600.16  1604.82
                             1611.39  1630.81  1638.42  1660.79  1662.78
                             1668.97  1683.08  1703.94  1727.36  1734.09
                             1741.94  1773.24  1803.50  1825.37  1834.84
                             1840.20  1849.78  1864.10  1868.85  1872.80
                             1888.34  1893.26  1908.34  1914.28  1929.62
                             1936.14  1951.65  1969.83  1978.56  2011.17
                             2022.65  2029.44  2056.11  2083.65  2097.15
                             2102.25  2112.68  2117.38  2124.38  2133.36
                             4598.10  4684.71  4695.45  4696.46  4701.48
                             4706.48  4710.54  4713.16  4722.66  4723.76
                             4726.72  4740.55  4749.58  4761.66  4765.90
                             4774.55  4838.98  4845.17  4854.06  4854.29
                             5593.71  5598.76

 Zero-point correction=                           0.371788 (Hartree/Particle)
 Thermal correction to Energy=                    0.389651
 Thermal correction to Enthalpy=                  0.390595
 Thermal correction to Gibbs Free Energy=         0.327479
 Sum of electronic and zero-point Energies=          -1297.607810
 Sum of electronic and thermal Energies=             -1297.589947
 Sum of electronic and thermal Enthalpies=           -1297.589003
 Sum of electronic and thermal Free Energies=        -1297.652119

                     E (Thermal)             CV                S
                      KCal/Mol        Cal/Mol-Kelvin    Cal/Mol-Kelvin
 Total                  244.510             75.321            132.839
 Electronic               0.000              0.000              0.000
 Translational            0.889              2.981             43.384
 Rotational               0.889              2.981             35.102
 Vibrational            242.732             69.360             54.353
 Vibration     1          0.596              1.974              4.516
 Vibration     2          0.601              1.958              3.726
 Vibration     3          0.603              1.953              3.572
 Vibration     4          0.608              1.935              3.148
 Vibration     5          0.614              1.916              2.838
 Vibration     6          0.625              1.882              2.459
 Vibration     7          0.630              1.864              2.304
 Vibration     8          0.636              1.847              2.181
 Vibration     9          0.651              1.800              1.901
 Vibration    10          0.660              1.770              1.762
 Vibration    11          0.676              1.722              1.573
 Vibration    12          0.687              1.691              1.469
 Vibration    13          0.691              1.679              1.432
 Vibration    14          0.696              1.664              1.389
 Vibration    15          0.701              1.649              1.346
 Vibration    16          0.706              1.635              1.309
 Vibration    17          0.713              1.615              1.260
 Vibration    18          0.737              1.549              1.109
 Vibration    19          0.744              1.528              1.068
 Vibration    20          0.750              1.513              1.039
 Vibration    21          0.780              1.433              0.902
 Vibration    22          0.795              1.395              0.845
 Vibration    23          0.801              1.381              0.823
 Vibration    24          0.803              1.374              0.814
 Vibration    25          0.834              1.300              0.717
 Vibration    26          0.857              1.247              0.654
 Vibration    27          0.884              1.186              0.590
 Vibration    28          0.891              1.170              0.574
 Vibration    29          0.930              1.089              0.498
 Vibration    30          0.942              1.064              0.477
 Vibration    31          0.953              1.041              0.457

 Normal termination of Gaussian 09 at Sun Mar 27 02:27:48 2016.
