 Gaussian 09, Revision B.01,
 Gaussian 09:  EM64L-G09RevB.01 12-Aug-2010

 -------------------------------------------------
 # freq=raman b3lyp/6-31+g(2d,p) geom=connectivity
 -------------------------------------------------

 -----------------
 290 5518/5518.com
 -----------------
 Symbolic Z-matrix:
 Charge =  0 Multiplicity = 1

                         Standard orientation:
 ---------------------------------------------------------------------
 Center     Atomic      Atomic             Coordinates (Angstroms)
 Number     Number       Type             X           Y           Z
 ---------------------------------------------------------------------
      1          8           0        5.042327   -0.183358   -0.242244
      2          6           0        3.716774   -0.019087    0.282890
      3          6           0        3.135167    1.237041   -0.344231
      4          8           0        4.100833    2.296547   -0.399261
      5          1           0        4.946781    1.876201   -0.728779
      6          6           0        1.781942    1.530715    0.283507
      7          8           0        1.293137    2.817920   -0.120594
      8          1           0        0.348272    2.949568    0.177265
      9          6           0        3.327308   -2.439029    0.323582
     10          8           0        4.432797   -3.186388   -0.205637
     11          1           0        4.192758   -4.156542   -0.174590
     12          6           0        2.811815   -1.123679   -0.237429
     13          8           0        1.509027   -0.900216    0.320204
     14          6           0        0.892325    0.343595   -0.045525
     15          8           0       -0.411046    0.558039    0.515159
     16          6           0       -1.634061    0.183781   -0.134981
     17          6           0       -2.033728   -1.238187    0.222795
     18          8           0       -0.979708   -2.174737   -0.044994
     19          1           0       -0.151645   -1.851498    0.412949
     20          6           0       -3.409085   -1.585519   -0.322104
     21          8           0       -3.797580   -2.856001    0.220819
     22          1           0       -4.736637   -3.052110   -0.062755
     23          6           0       -2.421507    2.635675   -0.000228
     24          8           0       -1.231972    3.335594    0.391560
     25          1           0       -1.450261    4.290130    0.191709
     26          6           0       -2.685643    1.176425    0.334514
     27          8           0       -3.876222    0.803296   -0.374927
     28          6           0       -4.321355   -0.459761    0.139467
     29          8           0       -5.527684   -0.618610   -0.621914
     30          1           0       -6.273167   -0.712640   -0.024408
     31          1           0        5.667251   -0.254841    0.482987
     32          1           0        2.491920   -3.107622    0.320223
     33          1           0        3.565574   -2.248033    1.349081
     34          1           0        2.783904   -1.137045   -1.306982
     35          1           0        3.711805    0.031023    1.351705
     36          1           0        2.929510    0.985999   -1.363830
     37          1           0        1.912597    1.553811    1.345249
     38          1           0        0.773594    0.328327   -1.108808
     39          1           0       -3.243516    3.190416    0.401597
     40          1           0       -2.481056    2.715849   -1.065557
     41          1           0       -2.842524    1.068116    1.387394
     42          1           0       -1.514315    0.265089   -1.195146
     43          1           0       -2.146076   -1.241679    1.286875
     44          1           0       -3.384348   -1.629375   -1.390918
     45          1           0       -4.491404   -0.451643    1.195837
 ---------------------------------------------------------------------

 SCF Done:  E(RB3LYP) =  -1297.97509303     A.U. after   13 cycles

 The electronic state is 1-A.
 Alpha  occ. eigenvalues --  -19.19184 -19.18622 -19.18515 -19.18037 -19.17954
 Alpha  occ. eigenvalues --  -19.17072 -19.16685 -19.16186 -19.14310 -19.13787
 Alpha  occ. eigenvalues --  -19.12476 -10.31100 -10.30451 -10.26537 -10.25669
 Alpha  occ. eigenvalues --  -10.25653 -10.25588 -10.25191 -10.24569 -10.24278
 Alpha  occ. eigenvalues --  -10.23848 -10.23730 -10.23090  -1.10213  -1.09221
 Alpha  occ. eigenvalues --   -1.06155  -1.05424  -1.04392  -1.03828  -1.02885
 Alpha  occ. eigenvalues --   -1.02455  -1.00876  -1.00583  -0.98928  -0.82362
 Alpha  occ. eigenvalues --   -0.80678  -0.79962  -0.78491  -0.72217  -0.69651
 Alpha  occ. eigenvalues --   -0.67087  -0.64453  -0.62993  -0.62262  -0.61904
 Alpha  occ. eigenvalues --   -0.60514  -0.56803  -0.55745  -0.55144  -0.54876
 Alpha  occ. eigenvalues --   -0.53679  -0.53565  -0.52582  -0.52164  -0.51042
 Alpha  occ. eigenvalues --   -0.50762  -0.49789  -0.49437  -0.48507  -0.46726
 Alpha  occ. eigenvalues --   -0.46274  -0.45291  -0.44397  -0.43416  -0.43077
 Alpha  occ. eigenvalues --   -0.42741  -0.41704  -0.41191  -0.40266  -0.39971
 Alpha  occ. eigenvalues --   -0.38702  -0.38375  -0.37910  -0.36680  -0.36045
 Alpha  occ. eigenvalues --   -0.35581  -0.34980  -0.33461  -0.33303  -0.32940
 Alpha  occ. eigenvalues --   -0.32245  -0.31288  -0.31228  -0.30693  -0.29859
 Alpha  occ. eigenvalues --   -0.28953  -0.28806  -0.28522  -0.27001  -0.26325
 Alpha  occ. eigenvalues --   -0.26030
 Alpha virt. eigenvalues --   -0.02281  -0.02212  -0.01689  -0.00163   0.00121
 Alpha virt. eigenvalues --    0.00865   0.01813   0.02070   0.03049   0.03551
 Alpha virt. eigenvalues --    0.04150   0.04198   0.04925   0.05288   0.05539

 Mulliken atomic charges:
              1
     1  O   -0.565157
     2  C   -0.084866
     3  C    0.193181
     4  O   -0.570804
     5  H    0.354072
     6  C   -0.023553
     7  O   -0.596411
     8  H    0.436314
     9  C   -0.395746
    10  O   -0.519063
    11  H    0.336333
    12  C    0.383144
    13  O   -0.297355
    14  C    0.255053
    15  O   -0.309896
    16  C    0.329852
    17  C    0.092800
    18  O   -0.558780
    19  H    0.371045
    20  C    0.061966
    21  O   -0.535099
    22  H    0.333510
    23  C   -0.295048
    24  O   -0.542075
    25  H    0.353046
    26  C   -0.061850
    27  O   -0.224987
    28  C    0.169291
    29  O   -0.532915
    30  H    0.329452
    31  H    0.342345
    32  H    0.134299
    33  H    0.134425
    34  H    0.124741
    35  H    0.124328
    36  H    0.093193
    37  H    0.111107
    38  H    0.109794
    39  H    0.147931
    40  H    0.157362
    41  H    0.120637
    42  H    0.119242
    43  H    0.113538
    44  H    0.139246
    45  H    0.142356
 Sum of Mulliken atomic charges =   0.00000

 Dipole moment (field-independent basis, Debye):
    X=             -4.0280    Y=             -0.3828    Z=              2.5377  Tot=              4.7761
 Quadrupole moment (field-independent basis, Debye-Ang):
   XX=           -118.4359   YY=           -138.9189   ZZ=           -137.2253
   XY=            -16.0406   XZ=             -0.7735   YZ=              0.1427

  Exact polarizability: 234.758   0.205 198.022   0.136  -0.839 143.524
 Approx polarizability: 275.651  -0.280 258.412   0.826  -1.093 239.424

 ******    7 imaginary frequencies (negative Signs) ******

                     1                      2                      3
                     A                      A                      A
 Frequencies --  -311.1494              -297.1489              -243.0465
 Red. masses --     1.6585                 1.7499                 1.1717
 Frc consts  --     0.0946                 0.0910                 0.0408
 IR Inten    --     6.7517                 1.3901                95.1844
 Raman Activ --     0.0811                 0.0254                 0.8860

                     4                      5                      6
                     A                      A                      A
 Frequencies --  -210.7833               -65.7540               -47.0137
 Red. masses --     1.1541                 6.7791                 6.2067
 Frc consts  --     0.0302                 0.0173                 0.0081
 IR Inten    --    96.3713                 0.7697                 1.3558
 Raman Activ --     0.5923                 0.0404                 0.0245

                     7                      8                      9
                     A                      A                      A
 Frequencies --   -15.2602                60.8888                75.5179
 Red. masses --     6.3889                 6.7569                 6.5849
 Frc consts  --     0.0009                 0.0148                 0.0221
 IR Inten    --     1.0920                 0.9716                 0.6665
 Raman Activ --     0.0385                 0.0894                 0.2769

                    10                     11                     12
                     A                      A                      A
 Frequencies --    98.2392               116.2524               138.7043
 Red. masses --     6.7849                 6.0219                 5.8854
 Frc consts  --     0.0386                 0.0480                 0.0667
 IR Inten    --     0.2194                 5.4660                 0.4053
 Raman Activ --     0.0326                 0.0632                 0.0316

                    13                     14                     15
                     A                      A                      A
 Frequencies --   156.3355               176.7395               190.6847
 Red. masses --     6.2731                 7.2833                 6.0768
 Frc consts  --     0.0903                 0.1340                 0.1302
 IR Inten    --     3.8244                 1.4639                 1.3172
 Raman Activ --     0.4288                 1.2412                 0.3687

                    16                     17                     18
                     A                      A                      A
 Frequencies --   213.0001               231.1176               270.3841
 Red. masses --     7.3460                 6.0986                 4.1571
 Frc consts  --     0.1964                 0.1919                 0.1791
 IR Inten    --     0.3911                 1.5862                12.6506
 Raman Activ --     3.0602                 0.2300                 0.2367

                    19                     20                     21
                     A                      A                      A
 Frequencies --   277.7410               297.1331               306.9959
 Red. masses --     4.8932                 5.1005                 6.3742
 Frc consts  --     0.2224                 0.2653                 0.3540
 IR Inten    --     7.2726                 0.2966                 3.5782
 Raman Activ --     0.1878                 1.4953                 3.3376

                    22                     23                     24
                     A                      A                      A
 Frequencies --   315.1565               322.7088               337.7608
 Red. masses --     6.1126                 5.1771                 5.8913
 Frc consts  --     0.3577                 0.3177                 0.3960
 IR Inten    --     0.2461                 4.8853                 6.0692
 Raman Activ --     2.3906                 0.6937                 1.4574

                    25                     26                     27
                     A                      A                      A
 Frequencies --   346.4472               368.1387               378.0917
 Red. masses --     6.3267                 4.4975                 6.3480
 Frc consts  --     0.4474                 0.3591                 0.5347
 IR Inten    --    11.9614                 3.6492                 4.7712
 Raman Activ --     2.9591                 0.3083                 1.0554

                    28                     29                     30
                     A                      A                      A
 Frequencies --   417.3421               425.9724               432.4456
 Red. masses --     5.8230                 4.9806                 6.7605
 Frc consts  --     0.5976                 0.5325                 0.7449
 IR Inten    --    10.5875                 3.1205                 0.8677
 Raman Activ --     1.4863                 7.1678                 0.4617

                    31                     32                     33
                     A                      A                      A
 Frequencies --   437.6097               477.1931               501.7516
 Red. masses --     4.6373                 4.0891                 6.4134
 Frc consts  --     0.5232                 0.5486                 0.9513
 IR Inten    --     2.0828                 7.4905                 4.7290
 Raman Activ --     2.7860                 2.7733                 0.4617

                    34                     35                     36
                     A                      A                      A
 Frequencies --   516.4540               533.1888               556.7242
 Red. masses --     3.1744                 3.5388                 6.0517
 Frc consts  --     0.4989                 0.5927                 1.1051
 IR Inten    --    19.5533                 5.5781                 8.4937
 Raman Activ --     3.4522                 2.8423                 1.7893

                    37                     38                     39
                     A                      A                      A
 Frequencies --   581.9096               595.7107               616.0056
 Red. masses --     3.6854                 3.1743                 4.2514
 Frc consts  --     0.7353                 0.6637                 0.9505
 IR Inten    --    20.9455                48.4381                18.4024
 Raman Activ --     0.7217                 0.7394                 1.6711

                    40                     41                     42
                     A                      A                      A
 Frequencies --   625.5819               679.8653               690.0802
 Red. masses --     4.1651                 1.1155                 4.7661
 Frc consts  --     0.9604                 0.3038                 1.3373
 IR Inten    --    13.4802                98.9297                14.7659
 Raman Activ --     0.2850                 1.3220                 0.4741

                    43                     44                     45
                     A                      A                      A
 Frequencies --   731.6692               754.0877               770.1703
 Red. masses --     1.1072                 1.0710                 1.0770
 Frc consts  --     0.3492                 0.3588                 0.3764
 IR Inten    --    93.7154               104.7256               102.4688
 Raman Activ --     1.4734                 1.8589                 1.5418

                    46                     47                     48
                     A                      A                      A
 Frequencies --   776.0267               814.4482               850.0995
 Red. masses --     1.0844                 1.0645                 1.8244
 Frc consts  --     0.3848                 0.4160                 0.7768
 IR Inten    --   144.1995                73.7811                 2.4635
 Raman Activ --     4.7136                 0.8220                 0.3272

                    49                     50                     51
                     A                      A                      A
 Frequencies --   859.7015               924.0857               951.6361
 Red. masses --     1.7177                 6.1172                 5.4857
 Frc consts  --     0.7480                 3.0777                 2.9270
 IR Inten    --     9.3190               131.3953                88.5132
 Raman Activ --     0.8704                 3.0022                 0.7738

                    52                     53                     54
                     A                      A                      A
 Frequencies --   972.8088               977.2520               990.1247
 Red. masses --     7.0258                 6.1048                 4.1907
 Frc consts  --     3.9174                 3.4351                 2.4206
 IR Inten    --    43.3271               131.3425                12.8530
 Raman Activ --     2.1186                 1.5204                 0.6797

                    55                     56                     57
                     A                      A                      A
 Frequencies --   999.3556              1004.6549              1010.9039
 Red. masses --     6.1609                 6.6737                 5.5010
 Frc consts  --     3.6252                 3.9687                 3.3122
 IR Inten    --   598.7111                21.6035               167.3189
 Raman Activ --     2.4979                 4.1932                 2.0565

                    58                     59                     60
                     A                      A                      A
 Frequencies --  1029.8147              1057.4096              1064.7792
 Red. masses --     6.7034                 7.0610                 3.6304
 Frc consts  --     4.1886                 4.6516                 2.4251
 IR Inten    --   155.3064               119.1849                71.6410
 Raman Activ --     1.5258                 1.9794                12.6704

                    61                     62                     63
                     A                      A                      A
 Frequencies --  1070.8048              1075.7145              1079.3365
 Red. masses --     3.2434                 4.5901                 3.4895
 Frc consts  --     2.1912                 3.1294                 2.3951
 IR Inten    --     8.9721               103.1627                 3.4917
 Raman Activ --     5.3169                 7.2298                 6.2226

                    64                     65                     66
                     A                      A                      A
 Frequencies --  1084.9402              1089.6448              1103.5810
 Red. masses --     2.2887                 2.7355                 2.6367
 Frc consts  --     1.5873                 1.9137                 1.8920
 IR Inten    --    23.8680                53.9720                38.9133
 Raman Activ --     9.1517                11.1545                 9.6656

                    67                     68                     69
                     A                      A                      A
 Frequencies --  1114.7007              1130.1318              1137.6591
 Red. masses --     2.4056                 2.6685                 2.0843
 Frc consts  --     1.7611                 2.0080                 1.5894
 IR Inten    --    18.0243                64.6263                45.0310
 Raman Activ --     5.3352                 1.2572                 3.8103

                    70                     71                     72
                     A                      A                      A
 Frequencies --  1140.2188              1142.8943              1147.6602
 Red. masses --     1.8562                 1.7426                 2.3966
 Frc consts  --     1.4218                 1.3411                 1.8598
 IR Inten    --    11.7760                19.7571                25.8680
 Raman Activ --     2.0120                 3.4824                 2.4427

                    73                     74                     75
                     A                      A                      A
 Frequencies --  1158.6979              1171.2541              1175.9936
 Red. masses --     2.6208                 2.3644                 2.1095
 Frc consts  --     2.0731                 1.9110                 1.7188
 IR Inten    --    13.4432                23.9163                29.5897
 Raman Activ --     3.8704                 4.7087                 2.5267

                    76                     77                     78
                     A                      A                      A
 Frequencies --  1201.3004              1203.1413              1226.5702
 Red. masses --     1.4246                 1.4240                 1.2093
 Frc consts  --     1.2113                 1.2145                 1.0720
 IR Inten    --    27.0376                14.7976                20.7211
 Raman Activ --     2.8616                 1.9411                 0.2827

                    79                     80                     81
                     A                      A                      A
 Frequencies --  1237.9075              1248.0648              1262.9483
 Red. masses --     1.3945                 1.4532                 1.3178
 Frc consts  --     1.2591                 1.3337                 1.2384
 IR Inten    --     4.8704                21.6326                13.9652
 Raman Activ --     1.5355                 2.6902                 1.5861

                    82                     83                     84
                     A                      A                      A
 Frequencies --  1276.8834              1289.3547              1291.9755
 Red. masses --     1.2932                 1.3106                 1.1889
 Frc consts  --     1.2423                 1.2837                 1.1692
 IR Inten    --    12.0305                22.9071                 1.8488
 Raman Activ --     0.2766                 1.1671                 3.4560

                    85                     86                     87
                     A                      A                      A
 Frequencies --  1301.4167              1306.6755              1313.1855
 Red. masses --     1.3579                 1.1944                 1.3393
 Frc consts  --     1.3550                 1.2015                 1.3608
 IR Inten    --     9.3445                 8.6386                 4.2411
 Raman Activ --     4.3346                 8.1238                 2.3536

                    88                     89                     90
                     A                      A                      A
 Frequencies --  1320.3345              1324.8600              1340.7486
 Red. masses --     1.2695                 1.3315                 1.2651
 Frc consts  --     1.3040                 1.3770                 1.3399
 IR Inten    --    25.6239                23.1705                 6.7150
 Raman Activ --    13.7715                 5.4318                 5.0159

                    91                     92                     93
                     A                      A                      A
 Frequencies --  1355.8799              1360.3849              1363.6166
 Red. masses --     1.4216                 1.4770                 1.1669
 Frc consts  --     1.5398                 1.6105                 1.2784
 IR Inten    --     0.4276                 6.3973                36.3687
 Raman Activ --     5.8025                 6.1784                 2.3248

                    94                     95                     96
                     A                      A                      A
 Frequencies --  1370.3548              1378.6836              1380.9042
 Red. masses --     1.1852                 1.3057                 1.3917
 Frc consts  --     1.3113                 1.4623                 1.5636
 IR Inten    --    24.1275                18.9538                22.1947
 Raman Activ --     2.2651                 1.6672                 6.6090

                    97                     98                     99
                     A                      A                      A
 Frequencies --  1390.7311              1396.2732              1399.1410
 Red. masses --     1.4853                 1.1860                 1.2250
 Frc consts  --     1.6926                 1.3623                 1.4129
 IR Inten    --     9.0366                14.5471                33.1441
 Raman Activ --     3.2591                 1.2005                 2.2013

                   100                    101                    102
                     A                      A                      A
 Frequencies --  1422.3475              1457.3273              1462.4354
 Red. masses --     1.3981                 1.2831                 1.1676
 Frc consts  --     1.6665                 1.6055                 1.4713
 IR Inten    --    35.3705                33.5323                 9.3740
 Raman Activ --     1.2909                 0.8026                 6.4820

                   103                    104                    105
                     A                      A                      A
 Frequencies --  1474.2980              1474.7108              1481.1872
 Red. masses --     1.0797                 1.2300                 1.3750
 Frc consts  --     1.3826                 1.5760                 1.7773
 IR Inten    --    10.0247                37.8422                45.0329
 Raman Activ --     4.8767                 0.8358                 0.6398

                   106                    107                    108
                     A                      A                      A
 Frequencies --  1482.1741              1517.5139              3248.0468
 Red. masses --     1.3323                 1.2690                 1.0728
 Frc consts  --     1.7244                 1.7218                 6.6684
 IR Inten    --     6.9454                34.1886               460.2025
 Raman Activ --     2.2988                 1.1730                86.8938

                   109                    110                    111
                     A                      A                      A
 Frequencies --  3250.8228              3253.2863              3259.4336
 Red. masses --     1.0617                 1.0732                 1.0815
 Frc consts  --     6.6108                 6.6924                 6.7693
 IR Inten    --    85.6179               285.6794                43.6636
 Raman Activ --    75.6469                47.8314                37.6917

                   112                    113                    114
                     A                      A                      A
 Frequencies --  3263.0675              3268.5323              3275.5976
 Red. masses --     1.0675                 1.0740                 1.0840
 Frc consts  --     6.6967                 6.7605                 6.8524
 IR Inten    --    15.1275               174.4176                 4.2824
 Raman Activ --   215.3466                74.1024                74.2898

                   115                    116                    117
                     A                      A                      A
 Frequencies --  3281.9004              3289.9574              3291.1596
 Red. masses --     1.0853                 1.0868                 1.0862
 Frc consts  --     6.8871                 6.9305                 6.9322
 IR Inten    --    76.4671                17.5130                11.9686
 Raman Activ --    22.9239               118.2847                 4.9074

                   118                    119                    120
                     A                      A                      A
 Frequencies --  3295.8477              3297.5512              3307.1206
 Red. masses --     1.0860                 1.0956                 1.0896
 Frc consts  --     6.9505                 7.0190                 7.0215
 IR Inten    --     0.6201                20.5455                28.4040
 Raman Activ --   135.4063                19.0983                 8.6467

                   121                    122                    123
                     A                      A                      A
 Frequencies --  3308.1620              3312.5881              3326.7956
 Red. masses --     1.0926                 1.1020                 1.0678
 Frc consts  --     7.0448                 7.1249                 6.9631
 IR Inten    --    72.0868                74.1760               484.9384
 Raman Activ --    10.4567                46.6575               155.7932

                   124                    125                    126
                     A                      A                      A
 Frequencies --  3354.7094              3365.0307              3371.2118
 Red. masses --     1.0645                 1.0658                 1.0691
 Frc consts  --     7.0586                 7.1103                 7.1591
 IR Inten    --    55.5311                29.4537                46.1391
 Raman Activ --    85.4498               156.2541               133.9894

                   127                    128                    129
                     A                      A                      A
 Frequencies --  3380.6825              3890.7071              3891.8872
 Red. masses --     1.0661                 1.0674                 1.0675
 Frc consts  --     7.1786                 9.5201                 9.5264
 IR Inten    --    65.6942                66.8693                74.7601
 Raman Activ --   135.7590               117.8891               100.0087

 - Thermochemistry -
 -------------------
 Temperature   298.150 Kelvin.  Pressure   1.00000 Atm.
 Atom     1 has atomic number  8 and mass  15.99491

 Molecular mass:   342.11621 amu.
 Principal axes and moments of inertia in atomic units:
                           1         2         3
     Eigenvalues --  4411.60153********************
           X            0.99997  -0.00804  -0.00026
           Y            0.00804   0.99997  -0.00211
           Z            0.00028   0.00211   1.00000
 This molecule is an asymmetric top.
 Rotational symmetry number  1.
 Warning -- assumption of classical behavior for rotation
           may cause significant error
 Rotational temperatures (Kelvin)      0.01963     0.00688     0.00521
 Rotational constants (GHZ):           0.40909     0.14335     0.10853
    7 imaginary frequencies ignored.
 Zero-point vibrational energy     976305.7 (Joules/Mol)
                                  233.34265 (Kcal/Mol)
 Warning -- explicit consideration of  32 degrees of freedom as
           vibrations may cause significant error
 Vibrational temperatures:     87.61   108.65   141.34   167.26   199.56
          (Kelvin)            224.93   254.29   274.35   306.46   332.53
                              389.02   399.61   427.51   441.70   453.44
                              464.31   485.96   498.46   529.67   543.99
                              600.46   612.88   622.19   629.62   686.57
                              721.91   743.06   767.14   801.00   837.24
                              857.09   886.29   900.07   978.17   992.87
                             1052.71  1084.96  1108.10  1116.53  1171.81
                             1223.10  1236.92  1329.55  1369.19  1399.65
                             1406.05  1424.57  1437.85  1445.47  1454.46
                             1481.67  1521.37  1531.98  1540.65  1547.71
                             1552.92  1560.99  1567.75  1587.80  1603.80
                             1626.01  1636.84  1640.52  1644.37  1651.23
                             1667.11  1685.17  1691.99  1728.40  1731.05
                             1764.76  1781.07  1795.68  1817.10  1837.15
                             1855.09  1858.86  1872.45  1880.01  1889.38
                             1899.66  1906.18  1929.04  1950.81  1957.29
                             1961.94  1971.63  1983.62  1986.81  2000.95
                             2008.92  2013.05  2046.44  2096.77  2104.12
                             2121.18  2121.78  2131.10  2132.52  2183.36
                             4673.21  4677.20  4680.75  4689.59  4694.82
                             4702.68  4712.85  4721.92  4733.51  4735.24
                             4741.98  4744.43  4758.20  4759.70  4766.07
                             4786.51  4826.67  4841.52  4850.42  4864.04
                             5597.85  5599.55

 Zero-point correction=                           0.371855 (Hartree/Particle)
 Thermal correction to Energy=                    0.389893
 Thermal correction to Enthalpy=                  0.390837
 Thermal correction to Gibbs Free Energy=         0.327265
 Sum of electronic and zero-point Energies=          -1297.603238
 Sum of electronic and thermal Energies=             -1297.585200
 Sum of electronic and thermal Enthalpies=           -1297.584256
 Sum of electronic and thermal Free Energies=        -1297.647828

                     E (Thermal)             CV                S
                      KCal/Mol        Cal/Mol-Kelvin    Cal/Mol-Kelvin
 Total                  244.662             75.635            133.800
 Electronic               0.000              0.000              0.000
 Translational            0.889              2.981             43.384
 Rotational               0.889              2.981             35.178
 Vibrational            242.884             69.673             55.237
 Vibration     1          0.597              1.973              4.428
 Vibration     2          0.599              1.965              4.004
 Vibration     3          0.604              1.950              3.489
 Vibration     4          0.608              1.936              3.162
 Vibration     5          0.614              1.915              2.822
 Vibration     6          0.620              1.896              2.594
 Vibration     7          0.628              1.871              2.363
 Vibration     8          0.634              1.853              2.221
 Vibration     9          0.644              1.821              2.018
 Vibration    10          0.653              1.793              1.870
 Vibration    11          0.674              1.728              1.594
 Vibration    12          0.679              1.715              1.548
 Vibration    13          0.691              1.679              1.433
 Vibration    14          0.697              1.660              1.378
 Vibration    15          0.703              1.645              1.335
 Vibration    16          0.708              1.630              1.296
 Vibration    17          0.718              1.600              1.223
 Vibration    18          0.724              1.582              1.182
 Vibration    19          0.741              1.538              1.088
 Vibration    20          0.748              1.517              1.047
 Vibration    21          0.780              1.433              0.901
 Vibration    22          0.788              1.414              0.872
 Vibration    23          0.793              1.400              0.851
 Vibration    24          0.798              1.388              0.834
 Vibration    25          0.834              1.301              0.718
 Vibration    26          0.857              1.246              0.654
 Vibration    27          0.871              1.214              0.618
 Vibration    28          0.888              1.177              0.580
 Vibration    29          0.912              1.125              0.530
 Vibration    30          0.939              1.070              0.482
 Vibration    31          0.953              1.041              0.457
 Vibration    32          0.976              0.998              0.423

 Normal termination of Gaussian 09 at Mon Mar 21 22:35:58 2016.
