 Gaussian 09, Revision B.01,
 Gaussian 09:  EM64L-G09RevB.01 12-Aug-2010

 --------------------------------
 # freq=raman b3lyp/6-31+g(2df,p)
 --------------------------------

 -----------------------------
 450K 5000ps Cellobiose Unit 1
 -----------------------------
 Symbolic Z-matrix:
 Charge =  0 Multiplicity = 2

                         Standard orientation:
 ---------------------------------------------------------------------
 Center     Atomic      Atomic             Coordinates (Angstroms)
 Number     Number       Type             X           Y           Z
 ---------------------------------------------------------------------
      1          6           0       -4.195983    0.277653   -0.165131
      2          6           0       -3.696640   -1.115236   -0.511986
      3          8           0       -4.631813   -2.034750    0.070701
      4          1           0       -5.507935   -1.953470   -0.404588
      5          6           0       -2.393905   -1.529611    0.152427
      6          8           0       -1.897017   -2.808524   -0.268403
      7          1           0       -2.707968   -3.361579   -0.460182
      8          6           0       -3.515148    2.713277    0.136321
      9          8           0       -2.547335    3.765598    0.013162
     10          1           0       -2.903937    4.637205    0.348509
     11          6           0       -3.108117    1.326019   -0.334177
     12          8           0       -1.961991    0.804644    0.354422
     13          6           0       -1.364188   -0.432059   -0.060108
     14          8           0       -0.196957   -0.528326    0.768720
     15          6           0        1.027230   -0.324089    0.048751
     16          6           0        1.528855    1.083860    0.327281
     17          8           0        0.678224    2.130862   -0.160420
     18          1           0       -0.272513    1.916866    0.064225
     19          6           0        2.859041    1.457262   -0.304001
     20          8           0        3.344997    2.796151   -0.123190
     21          1           0        2.478539    3.288954   -0.202115
     22          6           0        1.719532   -2.718427   -0.092175
     23          8           0        2.641221   -3.817028   -0.086117
     24          1           0        2.763440   -4.133345    0.854228
     25          6           0        2.108940   -1.333078    0.399692
     26          8           0        3.373196   -0.882917   -0.108216
     27          6           0        3.843623    0.429597    0.229133
     28          8           0        5.130487    0.620856   -0.377081
     29          1           0        5.806835    0.221830    0.175125
 ---------------------------------------------------------------------

 SCF Done:  E(UB3LYP) =  -1213.07398925     A.U. after   68 cycles

 The electronic state is 2-A.
 Alpha  occ. eigenvalues --  -19.24219 -19.24217 -19.21688 -19.21143 -19.21047
 Alpha  occ. eigenvalues --  -19.20258 -19.20061 -19.20036 -19.19758 -19.19170
 Alpha  occ. eigenvalues --  -10.34358 -10.32478 -10.31909 -10.31290 -10.30892
 Alpha  occ. eigenvalues --  -10.30245 -10.29703 -10.29004 -10.28912 -10.28575
 Alpha  occ. eigenvalues --  -10.27265 -10.26855  -1.12807  -1.09555  -1.08204
 Alpha  occ. eigenvalues --   -1.07543  -1.07132  -1.06460  -1.05326  -1.04705
 Alpha  occ. eigenvalues --   -1.04390  -1.03478  -0.81806  -0.79957  -0.78433
 Alpha  occ. eigenvalues --   -0.77469  -0.70456  -0.67571  -0.66429  -0.64103
 Alpha  occ. eigenvalues --   -0.62966  -0.60738  -0.56572  -0.56408  -0.55394
 Alpha  occ. eigenvalues --   -0.54939  -0.53208  -0.52173  -0.50618  -0.50072
 Alpha  occ. eigenvalues --   -0.49462  -0.48274  -0.47752  -0.47451  -0.46184
 Alpha  occ. eigenvalues --   -0.45785  -0.44150  -0.43676  -0.42740  -0.41712
 Alpha  occ. eigenvalues --   -0.41587  -0.41377  -0.40765  -0.39866  -0.38719
 Alpha  occ. eigenvalues --   -0.37837  -0.37166  -0.36751  -0.35776  -0.35486
 Alpha  occ. eigenvalues --   -0.33800  -0.32185  -0.31844  -0.29321  -0.28564
 Alpha  occ. eigenvalues --   -0.26917  -0.26481  -0.23553  -0.23214  -0.19284
 Alpha virt. eigenvalues --   -0.16465  -0.11857  -0.11186  -0.08401  -0.08069
 Alpha virt. eigenvalues --   -0.06576  -0.05812  -0.01946  -0.00979   0.00012
 Alpha virt. eigenvalues --    0.01030   0.01662   0.01785   0.03382   0.04635

  Beta  occ. eigenvalues --  -19.24118 -19.24102 -19.21570 -19.21382 -19.20920
  Beta  occ. eigenvalues --  -19.20073 -19.20039 -19.19981 -19.19336 -19.19181
  Beta  occ. eigenvalues --  -10.33514 -10.32573 -10.31850 -10.31544 -10.30613
  Beta  occ. eigenvalues --  -10.29627 -10.29565 -10.28868 -10.28853 -10.28473
  Beta  occ. eigenvalues --  -10.28312 -10.26288  -1.12403  -1.09385  -1.07947
  Beta  occ. eigenvalues --   -1.07622  -1.06988  -1.06236  -1.05326  -1.04405
  Beta  occ. eigenvalues --   -1.03804  -1.03165  -0.81571  -0.80637  -0.78217
  Beta  occ. eigenvalues --   -0.76806  -0.70058  -0.67366  -0.66719  -0.63857
  Beta  occ. eigenvalues --   -0.62981  -0.60021  -0.56491  -0.56222  -0.55389
  Beta  occ. eigenvalues --   -0.54962  -0.53142  -0.51131  -0.49768  -0.49686
  Beta  occ. eigenvalues --   -0.49273  -0.48102  -0.47477  -0.47171  -0.45804
  Beta  occ. eigenvalues --   -0.45219  -0.43271  -0.42957  -0.42520  -0.42109
  Beta  occ. eigenvalues --   -0.41050  -0.41013  -0.40355  -0.40040  -0.39023
  Beta  occ. eigenvalues --   -0.37993  -0.36531  -0.35885  -0.35563  -0.35095
  Beta  occ. eigenvalues --   -0.33572  -0.32790  -0.31721  -0.29381  -0.28279
  Beta  occ. eigenvalues --   -0.27493  -0.26416  -0.24490  -0.19878
  Beta virt. eigenvalues --   -0.14248  -0.12024  -0.11571  -0.10101  -0.08233
  Beta virt. eigenvalues --   -0.07339  -0.06433  -0.04176  -0.01939  -0.01028
  Beta virt. eigenvalues --    0.00202   0.01103   0.01670   0.01749   0.03526

 Mulliken atomic charges:
              1
     1  C   -0.144095
     2  C    0.218940
     3  O   -0.417013
     4  H    0.353054
     5  C   -0.185830
     6  O   -0.342868
     7  H    0.367014
     8  C   -0.357679
     9  O   -0.341246
    10  H    0.387114
    11  C    0.252902
    12  O    0.026659
    13  C    0.220570
    14  O    0.028121
    15  C    0.378307
    16  C    0.186510
    17  O   -0.427887
    18  H    0.397653
    19  C   -0.046000
    20  O   -0.353717
    21  H    0.365391
    22  C   -0.245534
    23  O   -0.334938
    24  H    0.354218
    25  C   -0.366122
    26  O    0.051868
    27  C    0.020774
    28  O   -0.390869
    29  H    0.344704
 Sum of Mulliken atomic charges =   0.00000

 Dipole moment (field-independent basis, Debye):
    X=             -3.4605    Y=              0.9543    Z=              1.7076  Tot=              3.9752
 Quadrupole moment (field-independent basis, Debye-Ang):
   XX=           -110.5643   YY=           -109.9978   ZZ=           -127.4842
   XY=             -3.1818   XZ=             16.3086   YZ=             -1.8826

  Exact polarizability: 345.058   7.203 346.811   9.545   6.222 119.705
 Approx polarizability: 497.789  57.173 662.392  36.701  31.491 241.149

 ******    3 imaginary frequencies (negative Signs) ******

                     1                      2                      3
                     A                      A                      A
 Frequencies --  -319.1080              -179.8842              -122.3170
 Red. masses --     1.1141                 8.8363                 5.9517
 Frc consts  --     0.0668                 0.1685                 0.0525
 IR Inten    --   104.0246               350.5947               162.4072
 Raman Activ --   309.7692             13480.0784              1784.2944

                     4                      5                      6
                     A                      A                      A
 Frequencies --    80.7086                92.8772                96.8699
 Red. masses --     9.5206                 9.0457                 9.7351
 Frc consts  --     0.0365                 0.0460                 0.0538
 IR Inten    --     5.6185                 2.2599                10.9810
 Raman Activ --   207.8758                 1.3379               330.8846

                     7                      8                      9
                     A                      A                      A
 Frequencies --   128.5259               147.2778               149.7522
 Red. masses --     8.8015                 9.3162                 8.9621
 Frc consts  --     0.0857                 0.1191                 0.1184
 IR Inten    --     3.0122                 8.6479                18.3287
 Raman Activ --    69.8603               175.2525               791.3561

                    10                     11                     12
                     A                      A                      A
 Frequencies --   170.7627               180.4018               211.0210
 Red. masses --     7.8832                 9.4994                 8.4377
 Frc consts  --     0.1354                 0.1821                 0.2214
 IR Inten    --     2.9095                19.9127                 2.6912
 Raman Activ --    46.2433                48.2381               246.6104

                    13                     14                     15
                     A                      A                      A
 Frequencies --   228.5386               238.5528               257.5632
 Red. masses --     7.4261                 9.1311                 9.5830
 Frc consts  --     0.2285                 0.3062                 0.3746
 IR Inten    --    78.5339                37.1266                70.9439
 Raman Activ --   238.5021              1455.3629              2687.0459

                    16                     17                     18
                     A                      A                      A
 Frequencies --   278.7968               295.8740               301.7629
 Red. masses --     9.3128                 8.7090                 6.2299
 Frc consts  --     0.4265                 0.4492                 0.3342
 IR Inten    --     8.6519                 2.5683                11.8336
 Raman Activ --   332.5837                58.5507               197.7201

                    19                     20                     21
                     A                      A                      A
 Frequencies --   307.4442               319.0593               326.9575
 Red. masses --     6.5376                 8.1435                 8.0460
 Frc consts  --     0.3641                 0.4884                 0.5068
 IR Inten    --    60.1002                37.1927                10.3508
 Raman Activ --   593.6719               171.7844                24.5740

                    22                     23                     24
                     A                      A                      A
 Frequencies --   334.1935               355.7637               364.1222
 Red. masses --     9.5051                 9.3383                 8.1203
 Frc consts  --     0.6255                 0.6964                 0.6343
 IR Inten    --    10.6992                 8.7391                27.5844
 Raman Activ --    75.6970                52.3588               204.9580

                    25                     26                     27
                     A                      A                      A
 Frequencies --   402.6677               415.1419               448.7035
 Red. masses --     9.6025                 8.4029                 8.4468
 Frc consts  --     0.9173                 0.8532                 1.0020
 IR Inten    --    43.2487                76.7445                29.1299
 Raman Activ --  1221.5649                48.5315               408.1930

                    28                     29                     30
                     A                      A                      A
 Frequencies --   462.9299               479.8329               493.2381
 Red. masses --     7.2634                 9.0806                10.5129
 Frc consts  --     0.9171                 1.2318                 1.5069
 IR Inten    --     7.1862                41.2993                76.9562
 Raman Activ --    56.0083              7699.5949                56.7078

                    31                     32                     33
                     A                      A                      A
 Frequencies --   522.0408               529.1312               550.2564
 Red. masses --     4.0703                10.7262                 3.2459
 Frc consts  --     0.6536                 1.7694                 0.5791
 IR Inten    --    39.6512                37.0126               118.0301
 Raman Activ --   838.3088                13.8307               240.6173

                    34                     35                     36
                     A                      A                      A
 Frequencies --   557.1584               599.3949               606.7622
 Red. masses --     5.4920                 6.6329                 6.0730
 Frc consts  --     1.0045                 1.4040                 1.3173
 IR Inten    --    62.3344                48.8925                27.0284
 Raman Activ --  4335.6891               859.3417                67.8897

                    37                     38                     39
                     A                      A                      A
 Frequencies --   616.2575               624.2795               635.3003
 Red. masses --     7.2914                 9.4773                 9.6500
 Frc consts  --     1.6315                 2.1762                 2.2948
 IR Inten    --    96.9258                53.2744                12.8399
 Raman Activ --   542.9747              2295.3696              4747.9727

                    40                     41                     42
                     A                      A                      A
 Frequencies --   667.0073               689.3688               711.9024
 Red. masses --     8.8754                 5.8463                 1.7557
 Frc consts  --     2.3265                 1.6369                 0.5242
 IR Inten    --    84.4845                18.1673                40.5396
 Raman Activ --   323.7553               221.3187              1617.2519

                    43                     44                     45
                     A                      A                      A
 Frequencies --   727.2934               753.2127               773.6521
 Red. masses --     4.2619                 2.4172                 1.3109
 Frc consts  --     1.3282                 0.8080                 0.4623
 IR Inten    --   113.6730               307.0767                48.2905
 Raman Activ --   465.1262                69.9185               229.0537

                    46                     47                     48
                     A                      A                      A
 Frequencies --   783.7981               803.7467               814.0725
 Red. masses --     1.3773                 4.4090                 1.8175
 Frc consts  --     0.4985                 1.6781                 0.7097
 IR Inten    --    91.8167               117.5091               151.0118
 Raman Activ --    16.0088              4835.9986               224.5557

                    49                     50                     51
                     A                      A                      A
 Frequencies --   820.4555               826.4677               848.0892
 Red. masses --     5.8081                 7.7420                 7.5431
 Frc consts  --     2.3035                 3.1157                 3.1966
 IR Inten    --   299.3042                34.9219                92.0285
 Raman Activ --  1530.1873              2228.5275              2249.9302

                    52                     53                     54
                     A                      A                      A
 Frequencies --   857.8975               864.6153               891.4768
 Red. masses --     2.0641                 2.6015                 4.3328
 Frc consts  --     0.8951                 1.1458                 2.0288
 IR Inten    --    87.7715               335.6963                34.0475
 Raman Activ --   104.3178               236.1152               178.3776

                    55                     56                     57
                     A                      A                      A
 Frequencies --   901.6913               918.9760               934.6872
 Red. masses --     5.0077                 6.4544                 7.5643
 Frc consts  --     2.3988                 3.2116                 3.8936
 IR Inten    --    96.3175               173.0901                77.8305
 Raman Activ --   123.8195              1827.5017              2833.5276

                    58                     59                     60
                     A                      A                      A
 Frequencies --   956.6848               965.8294               992.9185
 Red. masses --     9.1786                10.8934                10.6894
 Frc consts  --     4.9495                 5.9870                 6.2091
 IR Inten    --   414.1351               141.7944                70.3351
 Raman Activ --  3068.4090                37.4654              5155.4948

                    61                     62                     63
                     A                      A                      A
 Frequencies --  1025.7200              1043.1050              1058.3704
 Red. masses --     7.8093                 5.8650                 6.5525
 Frc consts  --     4.8408                 3.7599                 4.3245
 IR Inten    --   387.7337               273.2549               282.0864
 Raman Activ --  1254.7141              1446.3092                34.1808

                    64                     65                     66
                     A                      A                      A
 Frequencies --  1065.2616              1076.9206              1098.7392
 Red. masses --     9.0920                 8.3847                 4.9566
 Frc consts  --     6.0789                 5.7294                 3.5255
 IR Inten    --   215.8497                34.9165               231.9619
 Raman Activ --  4784.3098              1587.2657               322.9166

                    67                     68                     69
                     A                      A                      A
 Frequencies --  1133.4971              1226.2481              1234.3496
 Red. masses --     6.7309                 1.1818                 1.5628
 Frc consts  --     5.0953                 1.0470                 1.4029
 IR Inten    --    43.6434                20.0950                24.8234
 Raman Activ --   802.4819               144.3141                56.7903

                    70                     71                     72
                     A                      A                      A
 Frequencies --  1284.2227              1371.8555              1401.5290
 Red. masses --     1.1384                 1.1730                 1.2471
 Frc consts  --     1.1062                 1.3007                 1.4433
 IR Inten    --   127.3681                93.2071               115.5197
 Raman Activ --   403.1524               204.0724              1026.5042

                    73                     74                     75
                     A                      A                      A
 Frequencies --  1406.7616              1460.9130              3316.3913
 Red. masses --     1.2858                 1.2424                 1.0668
 Frc consts  --     1.4993                 1.5623                 6.9127
 IR Inten    --    15.9595                86.4292               465.3953
 Raman Activ --   332.2951                76.9868              1252.4361

                    76                     77                     78
                     A                      A                      A
 Frequencies --  3354.4963              3362.1570              3365.5907
 Red. masses --     1.0660                 1.0665                 1.0644
 Frc consts  --     7.0672                 7.1029                 7.1035
 IR Inten    --   101.7684               131.4865                51.6517
 Raman Activ --  1181.1581               121.0093               418.2932

                    79                     80                     81
                     A                      A                      A
 Frequencies --  3366.5563              3374.5962              3876.0832
 Red. masses --     1.0656                 1.0673                 1.0666
 Frc consts  --     7.1156                 7.1614                 9.4418
 IR Inten    --   137.4734               260.1172               169.2300
 Raman Activ --    81.5027               257.2297               712.8549

 - Thermochemistry -
 -------------------
 Temperature   298.150 Kelvin.  Pressure   1.00000 Atm.
 Atom     1 has atomic number  6 and mass  12.00000

 Molecular mass:   311.00392 amu.
 Principal axes and moments of inertia in atomic units:
                           1         2         3
     Eigenvalues --  4601.194879731.85479**********
           X            0.99999   0.00270   0.00197
           Y           -0.00270   1.00000  -0.00006
           Z           -0.00197   0.00005   1.00000
 This molecule is an asymmetric top.
 Rotational symmetry number  1.
 Warning -- assumption of classical behavior for rotation
           may cause significant error
 Rotational temperatures (Kelvin)      0.01882     0.00890     0.00613
 Rotational constants (GHZ):           0.39223     0.18545     0.12767
    3 imaginary frequencies ignored.
 Zero-point vibrational energy     425973.0 (Joules/Mol)
                                  101.81000 (Kcal/Mol)
 Warning -- explicit consideration of  34 degrees of freedom as
           vibrations may cause significant error
 Vibrational temperatures:    116.12   133.63   139.37   184.92   211.90
          (Kelvin)            215.46   245.69   259.56   303.61   328.82
                              343.22   370.58   401.13   425.70   434.17
                              442.34   459.05   470.42   480.83   511.86
                              523.89   579.35   597.30   645.58   666.05
                              690.37   709.66   751.10   761.30   791.70
                              801.63   862.39   872.99   886.66   898.20
                              914.05   959.67   991.85  1024.27  1046.41
                             1083.70  1113.11  1127.71  1156.41  1171.27
                             1180.45  1189.10  1220.21  1234.32  1243.99
                             1282.63  1297.33  1322.20  1344.80  1376.45
                             1389.61  1428.59  1475.78  1500.79  1522.76
                             1532.67  1549.45  1580.84  1630.85  1764.30
                             1775.95  1847.71  1973.79  2016.49  2024.01
                             2101.93  4771.54  4826.37  4837.39  4842.33
                             4843.72  4855.29  5576.81

 Zero-point correction=                           0.162245 (Hartree/Particle)
 Thermal correction to Energy=                    0.181048
 Thermal correction to Enthalpy=                  0.181993
 Thermal correction to Gibbs Free Energy=         0.117119
 Sum of electronic and zero-point Energies=          -1212.911745
 Sum of electronic and thermal Energies=             -1212.892941
 Sum of electronic and thermal Enthalpies=           -1212.891997
 Sum of electronic and thermal Free Energies=        -1212.956870

                     E (Thermal)             CV                S
                      KCal/Mol        Cal/Mol-Kelvin    Cal/Mol-Kelvin
 Total                  113.610             76.820            136.538
 Electronic               0.000              0.000              1.377
 Translational            0.889              2.981             43.100
 Rotational               0.889              2.981             34.803
 Vibrational            111.832             70.858             57.257
 Vibration     1          0.600              1.962              3.874
 Vibration     2          0.602              1.954              3.599
 Vibration     3          0.603              1.951              3.516
 Vibration     4          0.611              1.925              2.968
 Vibration     5          0.617              1.906              2.707
 Vibration     6          0.618              1.903              2.675
 Vibration     7          0.626              1.878              2.427
 Vibration     8          0.629              1.866              2.324
 Vibration     9          0.643              1.824              2.035
 Vibration    10          0.651              1.797              1.890
 Vibration    11          0.657              1.782              1.814
 Vibration    12          0.667              1.750              1.678
 Vibration    13          0.679              1.713              1.541
 Vibration    14          0.690              1.681              1.440
 Vibration    15          0.694              1.670              1.407
 Vibration    16          0.697              1.660              1.376
 Vibration    17          0.705              1.637              1.315
 Vibration    18          0.711              1.622              1.275
 Vibration    19          0.716              1.607              1.240
 Vibration    20          0.731              1.563              1.141
 Vibration    21          0.738              1.546              1.104
 Vibration    22          0.768              1.464              0.953
 Vibration    23          0.779              1.437              0.909
 Vibration    24          0.808              1.364              0.800
 Vibration    25          0.821              1.332              0.758
 Vibration    26          0.836              1.295              0.711
 Vibration    27          0.849              1.265              0.675
 Vibration    28          0.877              1.201              0.605
 Vibration    29          0.884              1.186              0.589
 Vibration    30          0.906              1.139              0.544
 Vibration    31          0.913              1.124              0.530
 Vibration    32          0.957              1.033              0.451
 Vibration    33          0.965              1.017              0.438
 Vibration    34          0.976              0.998              0.423

 Normal termination of Gaussian 09 at Sun Oct 11 12:24:45 2015.
