 Gaussian 09, Revision B.01,
 Gaussian 09:  EM64L-G09RevB.01 12-Aug-2010

 --------------------------------------------------
 # freq=raman b3lyp/6-31+g(2df,p) geom=connectivity
 --------------------------------------------------

 ------------
 310 6000.com
 ------------
 Symbolic Z-matrix:
 Charge =  0 Multiplicity = 1

                         Standard orientation:
 ---------------------------------------------------------------------
 Center     Atomic      Atomic             Coordinates (Angstroms)
 Number     Number       Type             X           Y           Z
 ---------------------------------------------------------------------
      1          8           0       -5.035446   -0.441823    0.392340
      2          6           0       -3.766212   -0.055722   -0.155361
      3          6           0       -3.295801    1.323537    0.277760
      4          8           0       -4.154721    2.396382   -0.136717
      5          1           0       -5.069803    2.172157    0.199328
      6          6           0       -1.870730    1.598448   -0.173398
      7          8           0       -1.252381    2.841011    0.191779
      8          1           0       -0.318084    2.889245   -0.161605
      9          6           0       -2.966454   -2.528151   -0.344763
     10          8           0       -4.004170   -3.371558    0.175005
     11          1           0       -3.891083   -4.270994   -0.248422
     12          6           0       -2.804760   -1.150581    0.277358
     13          8           0       -1.469927   -0.786789   -0.102227
     14          6           0       -0.945304    0.488016    0.297079
     15          8           0        0.251250    0.485826   -0.495245
     16          6           0        1.475147    0.225603    0.206743
     17          6           0        1.971016   -1.142419   -0.230725
     18          8           0        0.913655   -2.092758   -0.034358
     19          1           0        0.082207   -1.664363   -0.390409
     20          6           0        3.346612   -1.508769    0.301552
     21          8           0        3.625008   -2.754815   -0.354483
     22          1           0        4.508803   -3.044605    0.012039
     23          6           0        2.479883    2.587254    0.125395
     24          8           0        1.287811    3.220887   -0.360403
     25          1           0        1.533087    4.190098   -0.321090
     26          6           0        2.594932    1.127998   -0.286007
     27          8           0        3.937127    0.885964    0.161808
     28          6           0        4.351588   -0.455150   -0.135098
     29          8           0        5.542773   -0.686229    0.630014
     30          1           0        6.284691   -0.817785    0.035160
     31          1           0       -5.647612   -0.632521   -0.322143
     32          1           0       -2.037509   -3.047482   -0.234054
     33          1           0       -3.147428   -2.394773   -1.390879
     34          1           0       -2.848267   -1.245730    1.342231
     35          1           0       -3.838618   -0.068817   -1.222828
     36          1           0       -3.290013    1.326468    1.347740
     37          1           0       -1.878895    1.564181   -1.242818
     38          1           0       -0.740086    0.534627    1.346180
     39          1           0        3.328640    3.117957   -0.252583
     40          1           0        2.594516    1.086773   -1.355212
     41          1           0        1.351772    0.283590    1.268023
     42          1           0        2.487153    2.643821    1.193874
     43          1           0        2.094217   -1.074051   -1.291407
     44          1           0        3.334815   -1.622595    1.365415
     45          1           0        4.560155   -0.554366   -1.179873
 ---------------------------------------------------------------------

 SCF Done:  E(RB3LYP) =  -1298.01894632     A.U. after   13 cycles

 The electronic state is 1-A.
 Alpha  occ. eigenvalues --  -19.18696 -19.18312 -19.18119 -19.18112 -19.17227
 Alpha  occ. eigenvalues --  -19.16788 -19.16467 -19.15867 -19.15685 -19.12829
 Alpha  occ. eigenvalues --  -19.12764 -10.30524 -10.30185 -10.25553 -10.25382
 Alpha  occ. eigenvalues --  -10.25133 -10.25084 -10.24909 -10.24750 -10.24618
 Alpha  occ. eigenvalues --  -10.23973 -10.23731 -10.23406  -1.09886  -1.09103
 Alpha  occ. eigenvalues --   -1.05683  -1.05018  -1.03762  -1.03482  -1.02855
 Alpha  occ. eigenvalues --   -1.02244  -1.02039  -0.99926  -0.99345  -0.82188
 Alpha  occ. eigenvalues --   -0.79974  -0.79103  -0.78311  -0.71457  -0.69457
 Alpha  occ. eigenvalues --   -0.67178  -0.64827  -0.62804  -0.62351  -0.61174
 Alpha  occ. eigenvalues --   -0.59918  -0.56348  -0.56021  -0.54925  -0.54379
 Alpha  occ. eigenvalues --   -0.53719  -0.53031  -0.52815  -0.51378  -0.50934
 Alpha  occ. eigenvalues --   -0.50439  -0.49819  -0.49448  -0.48022  -0.46791
 Alpha  occ. eigenvalues --   -0.45109  -0.44814  -0.44216  -0.43863  -0.42918
 Alpha  occ. eigenvalues --   -0.42390  -0.41356  -0.40764  -0.40369  -0.39290
 Alpha  occ. eigenvalues --   -0.38503  -0.38143  -0.37774  -0.36272  -0.36157
 Alpha  occ. eigenvalues --   -0.35905  -0.35362  -0.34745  -0.33251  -0.33100
 Alpha  occ. eigenvalues --   -0.32475  -0.31476  -0.30835  -0.30540  -0.29615
 Alpha  occ. eigenvalues --   -0.29229  -0.28570  -0.28341  -0.27347  -0.26263
 Alpha  occ. eigenvalues --   -0.25811
 Alpha virt. eigenvalues --   -0.01886  -0.01780  -0.01577   0.00016   0.00336
 Alpha virt. eigenvalues --    0.00944   0.01778   0.02148   0.02899   0.03301
 Alpha virt. eigenvalues --    0.03813   0.04327   0.04919   0.05399   0.05794

 Mulliken atomic charges:
              1
     1  O   -0.436681
     2  C   -0.067816
     3  C    0.042807
     4  O   -0.447420
     5  H    0.343360
     6  C   -0.211071
     7  O   -0.508504
     8  H    0.453089
     9  C   -0.259591
    10  O   -0.445885
    11  H    0.338526
    12  C   -0.128877
    13  O    0.005784
    14  C    0.056797
    15  O   -0.022327
    16  C    0.216281
    17  C   -0.071083
    18  O   -0.477368
    19  H    0.395771
    20  C    0.053589
    21  O   -0.426380
    22  H    0.334700
    23  C   -0.385278
    24  O   -0.472510
    25  H    0.361016
    26  C   -0.276343
    27  O   -0.032639
    28  C   -0.046658
    29  O   -0.471740
    30  H    0.345938
    31  H    0.346042
    32  H    0.159786
    33  H    0.136992
    34  H    0.123229
    35  H    0.123813
    36  H    0.123663
    37  H    0.132415
    38  H    0.131416
    39  H    0.151146
    40  H    0.129411
    41  H    0.120702
    42  H    0.161478
    43  H    0.119544
    44  H    0.142110
    45  H    0.138764
 Sum of Mulliken atomic charges =   0.00000

 Dipole moment (field-independent basis, Debye):
    X=              2.8549    Y=              0.1128    Z=             -2.0590  Tot=              3.5217
 Quadrupole moment (field-independent basis, Debye-Ang):
   XX=           -115.0868   YY=           -139.2048   ZZ=           -137.3028
   XY=             11.4475   XZ=              1.7681   YZ=              3.9489

  Exact polarizability: 234.717  -0.242 197.429   0.779   1.522 143.385
 Approx polarizability: 275.336   1.994 256.865   1.212   2.184 239.175

 ******    8 imaginary frequencies (negative Signs) ******

                     1                      2                      3
                     A                      A                      A
 Frequencies --  -269.6516              -212.8735              -210.7058
 Red. masses --     1.7308                 1.9238                 1.2226
 Frc consts  --     0.0741                 0.0514                 0.0320
 IR Inten    --    21.0956                 3.1392                81.4977
 Raman Activ --     0.1351                 0.0909                 0.9027

                     4                      5                      6
                     A                      A                      A
 Frequencies --  -120.3773               -83.3660               -62.5483
 Red. masses --     1.2665                 6.6417                 6.1368
 Frc consts  --     0.0108                 0.0272                 0.0141
 IR Inten    --    95.7948                 0.9230                 2.1191
 Raman Activ --     0.8573                 0.0471                 0.0115

                     7                      8                      9
                     A                      A                      A
 Frequencies --   -42.4694               -17.6974                41.9456
 Red. masses --     5.7207                 6.1748                 6.1881
 Frc consts  --     0.0061                 0.0011                 0.0064
 IR Inten    --     1.7372                 0.9558                 0.8631
 Raman Activ --     0.0431                 0.0398                 0.0349

                    10                     11                     12
                     A                      A                      A
 Frequencies --    78.1331                85.9247               114.7110
 Red. masses --     6.0738                 6.7278                 5.4376
 Frc consts  --     0.0218                 0.0293                 0.0422
 IR Inten    --     3.1658                 1.0719                 2.6255
 Raman Activ --     0.1890                 0.1142                 0.0915

                    13                     14                     15
                     A                      A                      A
 Frequencies --   162.0581               176.6621               184.5018
 Red. masses --     6.1951                 5.6128                 7.9677
 Frc consts  --     0.0959                 0.1032                 0.1598
 IR Inten    --     2.8573                 2.5237                 2.9047
 Raman Activ --     0.3754                 0.2407                 0.7642

                    16                     17                     18
                     A                      A                      A
 Frequencies --   211.9894               236.6467               252.2285
 Red. masses --     7.2536                 5.6108                 4.5052
 Frc consts  --     0.1921                 0.1851                 0.1689
 IR Inten    --     0.2114                 1.1754                17.7574
 Raman Activ --     3.0393                 0.0843                 0.3175

                    19                     20                     21
                     A                      A                      A
 Frequencies --   262.5142               278.1680               306.7498
 Red. masses --     4.6268                 4.6390                 4.9071
 Frc consts  --     0.1879                 0.2115                 0.2720
 IR Inten    --     1.7011                 3.0717                 2.4956
 Raman Activ --     0.0923                 0.1451                 0.2007

                    22                     23                     24
                     A                      A                      A
 Frequencies --   320.0435               326.3015               332.0150
 Red. masses --     5.5461                 4.9840                 5.3938
 Frc consts  --     0.3347                 0.3127                 0.3503
 IR Inten    --     0.3864                 1.7031                 2.9422
 Raman Activ --     3.1802                 0.7167                 2.1765

                    25                     26                     27
                     A                      A                      A
 Frequencies --   359.8861               362.3574               388.4479
 Red. masses --     6.1146                 4.7900                 6.5537
 Frc consts  --     0.4666                 0.3706                 0.5826
 IR Inten    --    10.3025                 1.4736                 1.5725
 Raman Activ --     1.7838                 1.8571                 1.0329

                    28                     29                     30
                     A                      A                      A
 Frequencies --   401.8906               420.9822               430.1726
 Red. masses --     4.3207                 5.6061                 6.9859
 Frc consts  --     0.4112                 0.5854                 0.7617
 IR Inten    --    13.5564                 1.8780                 0.2656
 Raman Activ --     1.9113                 9.3341                 1.6384

                    31                     32                     33
                     A                      A                      A
 Frequencies --   445.2928               475.2429               487.8791
 Red. masses --     4.6897                 4.5872                 3.4145
 Frc consts  --     0.5479                 0.6104                 0.4789
 IR Inten    --     1.8050                 3.3504                14.4953
 Raman Activ --     1.4457                 2.5520                 1.2837

                    34                     35                     36
                     A                      A                      A
 Frequencies --   511.7700               517.2755               570.1293
 Red. masses --     3.1975                 4.1977                 3.5694
 Frc consts  --     0.4934                 0.6618                 0.6836
 IR Inten    --     1.8442                11.8538                30.1666
 Raman Activ --     4.5526                 1.1859                 1.5373

                    37                     38                     39
                     A                      A                      A
 Frequencies --   597.2507               608.7315               630.9252
 Red. masses --     3.1859                 6.0600                 5.3024
 Frc consts  --     0.6696                 1.3230                 1.2436
 IR Inten    --    28.9907                12.6033                37.0828
 Raman Activ --     0.3840                 0.5533                 0.8878

                    40                     41                     42
                     A                      A                      A
 Frequencies --   640.6563               695.3413               723.6607
 Red. masses --     3.9077                 5.5301                 1.0705
 Frc consts  --     0.9450                 1.5754                 0.3303
 IR Inten    --    18.5461                 9.8346               100.0925
 Raman Activ --     1.0819                 1.0270                 1.7642

                    43                     44                     45
                     A                      A                      A
 Frequencies --   751.0497               754.5494               768.5285
 Red. masses --     1.1016                 1.0768                 1.0967
 Frc consts  --     0.3661                 0.3612                 0.3817
 IR Inten    --    93.0018               102.4472               103.9385
 Raman Activ --     1.7250                 1.8685                 1.7434

                    46                     47                     48
                     A                      A                      A
 Frequencies --   805.6221               817.9110               850.7342
 Red. masses --     1.1106                 1.0628                 1.8257
 Frc consts  --     0.4247                 0.4189                 0.7785
 IR Inten    --   147.8469                65.4695                 2.8919
 Raman Activ --     3.7426                 1.4246                 0.9549

                    49                     50                     51
                     A                      A                      A
 Frequencies --   870.3316               916.0946               957.6412
 Red. masses --     1.6231                 5.4245                 5.9597
 Frc consts  --     0.7244                 2.6822                 3.2202
 IR Inten    --     5.5162               106.4136                97.8566
 Raman Activ --     1.1182                 1.9288                 0.9726

                    52                     53                     54
                     A                      A                      A
 Frequencies --   973.2303               983.0665               987.8045
 Red. masses --     6.4986                 4.4681                 4.3964
 Frc consts  --     3.6266                 2.5441                 2.5275
 IR Inten    --   100.2538                20.0834                44.4387
 Raman Activ --     1.8094                 0.8829                 3.1704

                    55                     56                     57
                     A                      A                      A
 Frequencies --  1008.3303              1011.0438              1022.7674
 Red. masses --     6.2870                 5.6357                 6.5967
 Frc consts  --     3.7662                 3.3942                 4.0657
 IR Inten    --    28.8198               462.2652                66.8894
 Raman Activ --     3.9587                 3.0486                 1.7260

                    58                     59                     60
                     A                      A                      A
 Frequencies --  1043.9236              1058.4524              1068.1161
 Red. masses --     5.1503                 4.0823                 4.4182
 Frc consts  --     3.3069                 2.6946                 2.9698
 IR Inten    --   270.4978               115.5584                64.1837
 Raman Activ --     4.0039                 7.0311                 3.0106

                    61                     62                     63
                     A                      A                      A
 Frequencies --  1070.7982              1078.3956              1088.2256
 Red. masses --     3.0558                 4.8915                 5.3660
 Frc consts  --     2.0644                 3.3516                 3.7441
 IR Inten    --    12.3729                86.4738               129.0436
 Raman Activ --    24.4000                 2.0168                 6.2854

                    64                     65                     66
                     A                      A                      A
 Frequencies --  1094.8796              1098.1539              1109.0512
 Red. masses --     2.3343                 2.5423                 2.9015
 Frc consts  --     1.6487                 1.8063                 2.1027
 IR Inten    --    16.1287                20.9960                13.8600
 Raman Activ --     2.9683                14.1337                 6.3624

                    67                     68                     69
                     A                      A                      A
 Frequencies --  1114.0441              1116.7912              1130.5616
 Red. masses --     2.5332                 2.3691                 2.3260
 Frc consts  --     1.8524                 1.7409                 1.7517
 IR Inten    --   117.9305                19.7641                70.8441
 Raman Activ --     3.8024                 1.3251                 6.6541

                    70                     71                     72
                     A                      A                      A
 Frequencies --  1134.5094              1140.9052              1153.5729
 Red. masses --     2.8258                 3.0911                 1.8026
 Frc consts  --     2.1429                 2.3706                 1.4134
 IR Inten    --    32.7163                 6.3307                21.7510
 Raman Activ --     1.3288                 7.6962                 4.5875

                    73                     74                     75
                     A                      A                      A
 Frequencies --  1160.4714              1169.4423              1178.5187
 Red. masses --     1.7083                 1.7102                 1.6933
 Frc consts  --     1.3554                 1.3780                 1.3857
 IR Inten    --     6.8101                13.7359                16.4303
 Raman Activ --     0.9637                 2.8536                 1.4159

                    76                     77                     78
                     A                      A                      A
 Frequencies --  1198.5326              1202.5723              1213.1450
 Red. masses --     1.4027                 1.4903                 1.2263
 Frc consts  --     1.1872                 1.2698                 1.0633
 IR Inten    --     3.6772                 9.6924                 4.9812
 Raman Activ --     0.7724                 2.6774                 1.5407

                    79                     80                     81
                     A                      A                      A
 Frequencies --  1227.0950              1235.5973              1244.0676
 Red. masses --     1.3721                 1.3535                 1.2483
 Frc consts  --     1.2173                 1.2175                 1.1383
 IR Inten    --     9.0056                15.7434                 7.5173
 Raman Activ --     2.3211                 1.3979                 0.4198

                    82                     83                     84
                     A                      A                      A
 Frequencies --  1262.4638              1263.0544              1275.9333
 Red. masses --     1.2179                 1.2331                 1.2538
 Frc consts  --     1.1436                 1.1590                 1.2027
 IR Inten    --     5.7103                 5.4816                11.4931
 Raman Activ --     3.1926                 4.9418                 0.9792

                    85                     86                     87
                     A                      A                      A
 Frequencies --  1279.0410              1285.3705              1292.7549
 Red. masses --     1.2524                 1.3546                 1.3433
 Frc consts  --     1.2072                 1.3186                 1.3227
 IR Inten    --     6.0985                34.5625                13.0969
 Raman Activ --     3.3869                 1.1815                 5.4251

                    88                     89                     90
                     A                      A                      A
 Frequencies --  1306.4847              1316.7196              1325.6590
 Red. masses --     1.3548                 1.3488                 1.2590
 Frc consts  --     1.3625                 1.3778                 1.3036
 IR Inten    --     8.4657                23.2436                56.6948
 Raman Activ --     2.9139                 2.3920                11.9744

                    91                     92                     93
                     A                      A                      A
 Frequencies --  1330.7502              1336.8331              1346.2276
 Red. masses --     1.1910                 1.2304                 1.2289
 Frc consts  --     1.2427                 1.2956                 1.3122
 IR Inten    --    22.8993                 8.3850                47.4165
 Raman Activ --     3.6574                 1.9736                 1.3424

                    94                     95                     96
                     A                      A                      A
 Frequencies --  1348.2105              1363.9275              1365.7251
 Red. masses --     1.4927                 1.2352                 1.5834
 Frc consts  --     1.5986                 1.3538                 1.7401
 IR Inten    --     7.8675                28.8054                22.4470
 Raman Activ --    10.0055                 2.7602                 5.9986

                    97                     98                     99
                     A                      A                      A
 Frequencies --  1375.2237              1380.2782              1392.0092
 Red. masses --     1.5289                 1.4030                 1.4674
 Frc consts  --     1.7037                 1.5748                 1.6753
 IR Inten    --     8.4502                 1.4809                 1.2374
 Raman Activ --     5.2785                 4.3799                 5.0156

                   100                    101                    102
                     A                      A                      A
 Frequencies --  1436.2703              1445.7527              1462.4552
 Red. masses --     1.3075                 1.3215                 1.3924
 Frc consts  --     1.5892                 1.6274                 1.7546
 IR Inten    --    44.9381                28.1757                32.5898
 Raman Activ --     1.1595                 2.5116                 2.5803

                   103                    104                    105
                     A                      A                      A
 Frequencies --  1464.9092              1469.7864              1471.0437
 Red. masses --     1.0824                 1.0982                 1.3879
 Frc consts  --     1.3685                 1.3977                 1.7695
 IR Inten    --     4.0652                14.8426                27.3489
 Raman Activ --     4.6856                 5.3736                 0.6110

                   106                    107                    108
                     A                      A                      A
 Frequencies --  1501.0737              1504.0513              3232.3971
 Red. masses --     1.3138                 1.2877                 1.0691
 Frc consts  --     1.7442                 1.7163                 6.5815
 IR Inten    --    49.9932                28.8282               858.4330
 Raman Activ --     3.6899                 0.7645               181.0513

                   109                    110                    111
                     A                      A                      A
 Frequencies --  3253.3155              3255.3000              3260.5830
 Red. masses --     1.0583                 1.0810                 1.0642
 Frc consts  --     6.5994                 6.7491                 6.6657
 IR Inten    --    29.0130               115.5128                19.4990
 Raman Activ --    71.9486                10.4418               285.9997

                   112                    113                    114
                     A                      A                      A
 Frequencies --  3262.0291              3272.1456              3272.9973
 Red. masses --     1.0729                 1.0827                 1.0806
 Frc consts  --     6.7266                 6.8301                 6.8204
 IR Inten    --    11.0825                 9.3687                76.5912
 Raman Activ --    41.8985                39.5496                27.5117

                   115                    116                    117
                     A                      A                      A
 Frequencies --  3276.7563              3282.7114              3284.8290
 Red. masses --     1.0785                 1.0750                 1.0848
 Frc consts  --     6.8224                 6.8256                 6.8964
 IR Inten    --   209.3803               394.3288                18.5404
 Raman Activ --   104.5772               116.2362               107.0287

                   118                    119                    120
                     A                      A                      A
 Frequencies --  3289.6288              3292.4807              3300.0335
 Red. masses --     1.0868                 1.0868                 1.0866
 Frc consts  --     6.9295                 6.9413                 6.9723
 IR Inten    --    20.4692                25.8491                 9.1220
 Raman Activ --    10.7648                 5.3416                12.0282

                   121                    122                    123
                     A                      A                      A
 Frequencies --  3303.5645              3311.2371              3320.5851
 Red. masses --     1.0865                 1.1052                 1.1074
 Frc consts  --     6.9861                 7.1392                 7.1944
 IR Inten    --   106.3866                45.4356                47.5302
 Raman Activ --    50.0734                35.8986                41.6016

                   124                    125                    126
                     A                      A                      A
 Frequencies --  3352.1506              3355.1296              3356.8990
 Red. masses --     1.0669                 1.0657                 1.0671
 Frc consts  --     7.0635                 7.0680                 7.0847
 IR Inten    --    42.7606                32.4620                49.1866
 Raman Activ --   147.6374               129.9543               138.6651

                   127                    128                    129
                     A                      A                      A
 Frequencies --  3360.3585              3875.1938              3876.6024
 Red. masses --     1.0653                 1.0676                 1.0674
 Frc consts  --     7.0877                 9.4460                 9.4514
 IR Inten    --    20.6032                76.2387                69.5702
 Raman Activ --   156.0351                86.8439               127.0512

 - Thermochemistry -
 -------------------
 Temperature   298.150 Kelvin.  Pressure   1.00000 Atm.
 Atom     1 has atomic number  8 and mass  15.99491

 Molecular mass:   342.11621 amu.
 Principal axes and moments of inertia in atomic units:
                           1         2         3
     Eigenvalues --  4428.36122********************
           X            0.99998   0.00702   0.00032
           Y           -0.00702   0.99997   0.00397
           Z           -0.00029  -0.00397   0.99999
 This molecule is an asymmetric top.
 Rotational symmetry number  1.
 Warning -- assumption of classical behavior for rotation
           may cause significant error
 Rotational temperatures (Kelvin)      0.01956     0.00707     0.00530
 Rotational constants (GHZ):           0.40754     0.14735     0.11051
    8 imaginary frequencies ignored.
 Zero-point vibrational energy     973137.9 (Joules/Mol)
                                  232.58553 (Kcal/Mol)
 Warning -- explicit consideration of  30 degrees of freedom as
           vibrations may cause significant error
 Vibrational temperatures:     60.35   112.42   123.63   165.04   233.17
          (Kelvin)            254.18   265.46   305.01   340.48   362.90
                              377.70   400.22   441.34   460.47   469.47
                              477.69   517.80   521.35   558.89   578.23
                              605.70   618.92   640.68   683.77   701.95
                              736.32   744.24   820.29   859.31   875.83
                              907.76   921.76  1000.44  1041.19  1080.59
                             1085.63  1105.74  1159.11  1176.79  1224.02
                             1252.21  1318.05  1377.83  1400.26  1414.41
                             1421.23  1450.76  1454.66  1471.53  1501.97
                             1522.88  1536.78  1540.64  1551.57  1565.71
                             1575.29  1580.00  1595.68  1602.86  1606.81
                             1626.62  1632.30  1641.51  1659.73  1669.66
                             1682.56  1695.62  1724.42  1730.23  1745.44
                             1765.51  1777.75  1789.93  1816.40  1817.25
                             1835.78  1840.25  1849.36  1859.98  1879.74
                             1894.46  1907.33  1914.65  1923.40  1936.92
                             1939.77  1962.38  1964.97  1978.64  1985.91
                             2002.79  2066.47  2080.11  2104.14  2107.67
                             2114.69  2116.50  2159.71  2163.99  4650.69
                             4680.79  4683.64  4691.25  4693.33  4707.88
                             4709.11  4714.52  4723.08  4726.13  4733.04
                             4737.14  4748.01  4753.09  4764.13  4777.58
                             4822.99  4827.28  4829.82  4834.80  5575.53
                             5577.56

 Zero-point correction=                           0.370649 (Hartree/Particle)
 Thermal correction to Energy=                    0.388098
 Thermal correction to Enthalpy=                  0.389042
 Thermal correction to Gibbs Free Energy=         0.326312
 Sum of electronic and zero-point Energies=          -1297.648298
 Sum of electronic and thermal Energies=             -1297.630849
 Sum of electronic and thermal Enthalpies=           -1297.629904
 Sum of electronic and thermal Free Energies=        -1297.692634

                     E (Thermal)             CV                S
                      KCal/Mol        Cal/Mol-Kelvin    Cal/Mol-Kelvin
 Total                  243.535             73.661            132.025
 Electronic               0.000              0.000              0.000
 Translational            0.889              2.981             43.384
 Rotational               0.889              2.981             35.137
 Vibrational            241.757             67.700             53.504
 Vibration     1          0.595              1.980              5.165
 Vibration     2          0.599              1.964              3.937
 Vibration     3          0.601              1.959              3.751
 Vibration     4          0.608              1.937              3.188
 Vibration     5          0.622              1.889              2.526
 Vibration     6          0.628              1.871              2.363
 Vibration     7          0.631              1.861              2.282
 Vibration     8          0.643              1.823              2.026
 Vibration     9          0.656              1.785              1.828
 Vibration    10          0.664              1.759              1.715
 Vibration    11          0.670              1.741              1.645
 Vibration    12          0.679              1.714              1.545
 Vibration    13          0.697              1.661              1.380
 Vibration    14          0.706              1.635              1.310
 Vibration    15          0.710              1.623              1.278
 Vibration    16          0.714              1.612              1.250
 Vibration    17          0.734              1.555              1.123
 Vibration    18          0.736              1.550              1.112
 Vibration    19          0.757              1.495              1.006
 Vibration    20          0.768              1.466              0.956
 Vibration    21          0.783              1.425              0.889
 Vibration    22          0.791              1.405              0.858
 Vibration    23          0.805              1.371              0.810
 Vibration    24          0.832              1.305              0.723
 Vibration    25          0.844              1.277              0.689
 Vibration    26          0.867              1.224              0.629
 Vibration    27          0.872              1.212              0.616
 Vibration    28          0.926              1.096              0.504
 Vibration    29          0.955              1.038              0.454
 Vibration    30          0.968              1.013              0.435

 Normal termination of Gaussian 09 at Fri Feb 12 11:14:49 2016.
