 Gaussian 09, Revision B.01,
 Gaussian 09:  EM64L-G09RevB.01 12-Aug-2010

 -------------------------------------------------
 # freq=raman b3lyp/6-31+g(2d,p) geom=connectivity
 -------------------------------------------------

 -----------------
 450 6165/6165.com
 -----------------
 Symbolic Z-matrix:
 Charge =  0 Multiplicity = 1

                         Standard orientation:
 ---------------------------------------------------------------------
 Center     Atomic      Atomic             Coordinates (Angstroms)
 Number     Number       Type             X           Y           Z
 ---------------------------------------------------------------------
      1          8           0        5.046386   -0.402208   -0.748092
      2          6           0        3.993931    0.044291    0.118874
      3          6           0        3.301323    1.261588   -0.472308
      4          8           0        4.150196    2.367917   -0.134007
      5          1           0        5.094473    2.220498   -0.427407
      6          6           0        1.906141    1.677308   -0.036202
      7          8           0        1.411325    2.811328   -0.764153
      8          1           0        1.925554    3.653080   -0.603388
      9          6           0        3.551351   -2.376243    0.583987
     10          8           0        2.488951   -3.332677    0.709003
     11          1           0        2.892661   -4.162112    1.094069
     12          6           0        2.945347   -1.056748    0.132834
     13          8           0        1.729531   -0.631851    0.766023
     14          6           0        1.094738    0.391593   -0.012273
     15          8           0       -0.179517    0.504427    0.638308
     16          6           0       -1.355655    0.201576   -0.127490
     17          6           0       -1.724997   -1.260253    0.067136
     18          8           0       -0.727900   -2.115769   -0.509775
     19          1           0        0.144947   -2.016658   -0.032079
     20          6           0       -3.107029   -1.525134   -0.508661
     21          8           0       -3.504607   -2.890558   -0.699462
     22          1           0       -2.895271   -3.360589   -1.337664
     23          6           0       -2.307853    2.590026    0.185866
     24          8           0       -3.394711    3.447697    0.562979
     25          1           0       -3.544814    3.609102    1.538346
     26          6           0       -2.490655    1.090522    0.354051
     27          8           0       -3.807612    0.694522   -0.058185
     28          6           0       -4.172233   -0.675452    0.164054
     29          8           0       -5.542799   -0.768610   -0.252569
     30          1           0       -6.099254   -0.294003    0.369288
     31          1           0       -2.089962    2.776658   -0.844955
     32          1           0       -1.452380    2.878940    0.759969
     33          1           0       -2.494407    0.946523    1.414310
     34          1           0       -1.167453    0.389433   -1.163921
     35          1           0       -1.761071   -1.456088    1.118444
     36          1           0       -3.049958   -1.134635   -1.503223
     37          1           0       -4.132264   -0.866863    1.216035
     38          1           0        5.891426   -0.099348   -0.407821
     39          1           0        4.035326   -2.247511    1.529554
     40          1           0        4.260190   -2.715788   -0.142069
     41          1           0        2.683097   -1.209295   -0.893253
     42          1           0        4.359253    0.244437    1.104461
     43          1           0        3.296740    1.154829   -1.536959
     44          1           0        1.989326    1.995875    0.981882
     45          1           0        0.953444    0.041327   -1.013397
 ---------------------------------------------------------------------

 SCF Done:  E(RB3LYP) =  -1297.97332628     A.U. after   13 cycles

 The electronic state is 1-A.
 Alpha  occ. eigenvalues --  -19.19338 -19.18960 -19.17467 -19.17326 -19.17324
 Alpha  occ. eigenvalues --  -19.16877 -19.15427 -19.15235 -19.15218 -19.14696
 Alpha  occ. eigenvalues --  -19.14548 -10.31294 -10.29015 -10.26716 -10.26229
 Alpha  occ. eigenvalues --  -10.25896 -10.25650 -10.24979 -10.24978 -10.24078
 Alpha  occ. eigenvalues --  -10.23944 -10.23864 -10.22817  -1.10029  -1.07439
 Alpha  occ. eigenvalues --   -1.06633  -1.04917  -1.04248  -1.03160  -1.02787
 Alpha  occ. eigenvalues --   -1.02123  -1.01095  -1.00301  -0.99816  -0.82151
 Alpha  occ. eigenvalues --   -0.81614  -0.78833  -0.77904  -0.72139  -0.69920
 Alpha  occ. eigenvalues --   -0.67448  -0.64705  -0.63266  -0.62382  -0.61776
 Alpha  occ. eigenvalues --   -0.59703  -0.57218  -0.56070  -0.54952  -0.54223
 Alpha  occ. eigenvalues --   -0.53782  -0.53317  -0.52817  -0.52324  -0.50945
 Alpha  occ. eigenvalues --   -0.50249  -0.49338  -0.48453  -0.48080  -0.46736
 Alpha  occ. eigenvalues --   -0.46078  -0.45284  -0.44815  -0.43946  -0.43499
 Alpha  occ. eigenvalues --   -0.43050  -0.42336  -0.40850  -0.39637  -0.38759
 Alpha  occ. eigenvalues --   -0.38092  -0.37590  -0.36691  -0.36126  -0.35648
 Alpha  occ. eigenvalues --   -0.35201  -0.34831  -0.34062  -0.33430  -0.33303
 Alpha  occ. eigenvalues --   -0.31551  -0.31032  -0.30965  -0.30012  -0.29927
 Alpha  occ. eigenvalues --   -0.29707  -0.28794  -0.28399  -0.27137  -0.26419
 Alpha  occ. eigenvalues --   -0.26029
 Alpha virt. eigenvalues --   -0.03823  -0.01877  -0.00751  -0.00449   0.00411
 Alpha virt. eigenvalues --    0.01196   0.01526   0.01903   0.02526   0.02996
 Alpha virt. eigenvalues --    0.03762   0.04414   0.05012   0.05186   0.05897

 Mulliken atomic charges:
              1
     1  O   -0.534420
     2  C   -0.236349
     3  C    0.572863
     4  O   -0.600327
     5  H    0.326048
     6  C   -0.321983
     7  O   -0.558480
     8  H    0.361498
     9  C   -0.266497
    10  O   -0.492209
    11  H    0.336752
    12  C    0.151872
    13  O   -0.270258
    14  C    0.214037
    15  O   -0.254795
    16  C    0.260635
    17  C    0.279849
    18  O   -0.586729
    19  H    0.384180
    20  C   -0.069456
    21  O   -0.538842
    22  H    0.344377
    23  C   -0.171931
    24  O   -0.508601
    25  H    0.325057
    26  C   -0.168772
    27  O   -0.250674
    28  C    0.295225
    29  O   -0.504308
    30  H    0.327244
    31  H    0.150616
    32  H    0.157475
    33  H    0.093599
    34  H    0.113340
    35  H    0.119139
    36  H    0.117188
    37  H    0.106056
    38  H    0.330869
    39  H    0.133612
    40  H    0.170146
    41  H    0.120812
    42  H    0.135771
    43  H    0.137544
    44  H    0.133662
    45  H    0.135166
 Sum of Mulliken atomic charges =   0.00000

 Dipole moment (field-independent basis, Debye):
    X=              9.1591    Y=              0.4788    Z=              2.8728  Tot=              9.6110
 Quadrupole moment (field-independent basis, Debye-Ang):
   XX=           -120.2670   YY=           -140.6452   ZZ=           -134.2046
   XY=             -7.4499   XZ=             -9.0552   YZ=              2.1598

  Exact polarizability: 228.909  -0.389 199.822  -2.000   1.065 147.245
 Approx polarizability: 272.712  -1.843 257.948  -1.238   2.876 243.211

 ******    7 imaginary frequencies (negative Signs) ******

                     1                      2                      3
                     A                      A                      A
 Frequencies --  -285.0501              -213.2210              -194.7406
 Red. masses --     1.0998                 1.6859                 2.0250
 Frc consts  --     0.0526                 0.0452                 0.0452
 IR Inten    --   120.1515                 5.9816                 4.2429
 Raman Activ --     1.5073                 0.1785                 0.2208

                     4                      5                      6
                     A                      A                      A
 Frequencies --  -144.9345               -80.3210               -46.2197
 Red. masses --     1.2966                 6.1462                 6.1497
 Frc consts  --     0.0160                 0.0234                 0.0077
 IR Inten    --    97.6815                 1.7599                 0.5268
 Raman Activ --     0.8589                 0.0656                 0.0514

                     7                      8                      9
                     A                      A                      A
 Frequencies --   -45.1467                34.6230                52.8861
 Red. masses --     5.9137                 7.1712                 6.3316
 Frc consts  --     0.0071                 0.0051                 0.0104
 IR Inten    --     2.9630                 0.1543                 0.3710
 Raman Activ --     0.0528                 0.0340                 0.0875

                    10                     11                     12
                     A                      A                      A
 Frequencies --    64.1883                99.6440               109.2072
 Red. masses --     6.3015                 6.1693                 6.6202
 Frc consts  --     0.0153                 0.0361                 0.0465
 IR Inten    --     0.1738                 6.0241                 1.0710
 Raman Activ --     0.1189                 0.2517                 0.3510

                    13                     14                     15
                     A                      A                      A
 Frequencies --   127.8101               135.4559               169.8605
 Red. masses --     6.0321                 6.5371                 6.7029
 Frc consts  --     0.0581                 0.0707                 0.1139
 IR Inten    --     1.5192                 0.8821                 1.3401
 Raman Activ --     0.1312                 0.3341                 0.7110

                    16                     17                     18
                     A                      A                      A
 Frequencies --   195.8436               213.9765               255.3013
 Red. masses --     5.7598                 6.1564                 5.3098
 Frc consts  --     0.1302                 0.1661                 0.2039
 IR Inten    --     3.5045                 1.1170                 5.6855
 Raman Activ --     1.1543                 0.9495                 0.2622

                    19                     20                     21
                     A                      A                      A
 Frequencies --   268.5289               281.7053               287.0441
 Red. masses --     5.7828                 4.2984                 5.4637
 Frc consts  --     0.2457                 0.2010                 0.2652
 IR Inten    --     4.1603                12.4338                 2.2481
 Raman Activ --     0.1983                 0.6901                 0.4469

                    22                     23                     24
                     A                      A                      A
 Frequencies --   298.9937               307.2991               328.4547
 Red. masses --     5.8506                 5.4590                 6.3984
 Frc consts  --     0.3082                 0.3037                 0.4067
 IR Inten    --     3.3427                 0.9135                 2.6289
 Raman Activ --     1.2133                 1.9139                 5.0957

                    25                     26                     27
                     A                      A                      A
 Frequencies --   351.8591               356.3298               375.4703
 Red. masses --     6.3008                 5.9087                 3.9542
 Frc consts  --     0.4596                 0.4420                 0.3284
 IR Inten    --     1.6070                 6.8305                 6.4823
 Raman Activ --     1.0295                 1.8414                 2.4532

                    28                     29                     30
                     A                      A                      A
 Frequencies --   402.7601               418.0763               433.0367
 Red. masses --     7.3965                 5.1760                 3.9044
 Frc consts  --     0.7069                 0.5330                 0.4314
 IR Inten    --     5.9725                 5.9244                13.6499
 Raman Activ --     4.6852                 3.3712                 3.1931

                    31                     32                     33
                     A                      A                      A
 Frequencies --   438.1263               471.9495               485.3576
 Red. masses --     5.9701                 4.3636                 4.5833
 Frc consts  --     0.6752                 0.5726                 0.6361
 IR Inten    --     2.2628                 6.7171                10.2413
 Raman Activ --     1.9467                 0.3104                 1.2221

                    34                     35                     36
                     A                      A                      A
 Frequencies --   518.5346               538.4492               552.2507
 Red. masses --     4.3256                 3.6282                 6.5985
 Frc consts  --     0.6853                 0.6198                 1.1857
 IR Inten    --    21.6605                29.8521                 9.9359
 Raman Activ --     5.7213                 1.1591                 3.7237

                    37                     38                     39
                     A                      A                      A
 Frequencies --   575.8904               581.8651               616.0542
 Red. masses --     2.9668                 3.2923                 2.3818
 Frc consts  --     0.5797                 0.6567                 0.5326
 IR Inten    --    21.5211                42.2418                41.3508
 Raman Activ --     0.7507                 0.2551                 0.3416

                    40                     41                     42
                     A                      A                      A
 Frequencies --   632.0528               643.4000               657.0020
 Red. masses --     2.1744                 2.4823                 1.1371
 Frc consts  --     0.5118                 0.6054                 0.2892
 IR Inten    --    89.6748                46.5316                74.2765
 Raman Activ --     1.1648                 0.2440                 1.8792

                    43                     44                     45
                     A                      A                      A
 Frequencies --   660.3766               681.9242               722.9524
 Red. masses --     1.8382                 1.0856                 1.0635
 Frc consts  --     0.4723                 0.2974                 0.3275
 IR Inten    --    15.1004               102.2210                49.7303
 Raman Activ --     0.9039                 1.4170                 2.5180

                    46                     47                     48
                     A                      A                      A
 Frequencies --   724.4177               794.1360               831.2521
 Red. masses --     1.0956                 1.0594                 2.4974
 Frc consts  --     0.3388                 0.3936                 1.0167
 IR Inten    --   142.4605                93.5092                 8.0804
 Raman Activ --     1.2357                 2.0473                 1.4674

                    49                     50                     51
                     A                      A                      A
 Frequencies --   844.8727               938.9916               942.6046
 Red. masses --     2.4595                 6.4737                 6.1626
 Frc consts  --     1.0344                 3.3630                 3.2261
 IR Inten    --     7.1275               187.3232               107.2802
 Raman Activ --     5.4508                 2.4023                 3.8600

                    52                     53                     54
                     A                      A                      A
 Frequencies --   968.3749               974.8678               991.6852
 Red. masses --     4.4842                 6.6934                 5.4310
 Frc consts  --     2.4776                 3.7479                 3.1469
 IR Inten    --   147.3165               180.2417                83.1965
 Raman Activ --     1.2980                 2.6987                 0.8702

                    55                     56                     57
                     A                      A                      A
 Frequencies --   996.7527              1005.1380              1009.6917
 Red. masses --     5.4059                 6.1379                 4.6695
 Frc consts  --     3.1644                 3.6536                 2.8048
 IR Inten    --    24.7648               109.8206               158.4742
 Raman Activ --     4.5098                 1.4919                 2.0387

                    58                     59                     60
                     A                      A                      A
 Frequencies --  1037.4015              1047.5041              1050.2862
 Red. masses --     3.7615                 4.7461                 3.4612
 Frc consts  --     2.3851                 3.0683                 2.2495
 IR Inten    --   357.1222                43.0701                39.1855
 Raman Activ --     3.0352                16.1917                 1.3409

                    61                     62                     63
                     A                      A                      A
 Frequencies --  1053.8045              1058.4919              1072.1775
 Red. masses --     3.4259                 3.8647                 3.3328
 Frc consts  --     2.2415                 2.5512                 2.2573
 IR Inten    --   104.8246                27.3173                62.4000
 Raman Activ --     3.5214                 8.3281                11.3125

                    64                     65                     66
                     A                      A                      A
 Frequencies --  1089.0648              1104.7578              1114.5601
 Red. masses --     2.4526                 3.4074                 2.5594
 Frc consts  --     1.7139                 2.4502                 1.8732
 IR Inten    --    29.7560                 2.0537                29.3408
 Raman Activ --     5.5282                 2.2939                 2.3012

                    67                     68                     69
                     A                      A                      A
 Frequencies --  1115.0179              1119.6083              1137.9393
 Red. masses --     2.8132                 2.4892                 2.7869
 Frc consts  --     2.0607                 1.8384                 2.1262
 IR Inten    --    31.5737                28.0626                84.6907
 Raman Activ --     4.5534                 1.6669                 6.1325

                    70                     71                     72
                     A                      A                      A
 Frequencies --  1142.7361              1147.1552              1158.7123
 Red. masses --     2.1584                 3.9556                 1.5469
 Frc consts  --     1.6606                 3.0670                 1.2237
 IR Inten    --    17.6392               107.8095                 8.9777
 Raman Activ --     2.7961                 1.1312                 0.5052

                    73                     74                     75
                     A                      A                      A
 Frequencies --  1165.7653              1177.6727              1178.9570
 Red. masses --     1.9229                 2.1071                 2.0641
 Frc consts  --     1.5397                 1.7218                 1.6904
 IR Inten    --    19.3172                 6.6582                13.8854
 Raman Activ --     2.7175                 2.6101                 1.4686

                    76                     77                     78
                     A                      A                      A
 Frequencies --  1193.7694              1203.4620              1226.2977
 Red. masses --     1.3123                 1.3168                 1.3020
 Frc consts  --     1.1018                 1.1237                 1.1536
 IR Inten    --     1.5695                 3.8669                 9.5676
 Raman Activ --     1.0158                 3.7302                 1.0244

                    79                     80                     81
                     A                      A                      A
 Frequencies --  1242.9223              1249.1641              1259.1460
 Red. masses --     1.2262                 1.2896                 1.1666
 Frc consts  --     1.1161                 1.1856                 1.0898
 IR Inten    --     2.2851                10.8114                11.4568
 Raman Activ --     2.7268                 4.6148                 4.6180

                    82                     83                     84
                     A                      A                      A
 Frequencies --  1265.2942              1280.6075              1283.6298
 Red. masses --     1.1758                 1.1792                 1.2914
 Frc consts  --     1.1091                 1.1394                 1.2537
 IR Inten    --    13.5863                 6.3980                16.9257
 Raman Activ --     4.2778                 1.4882                 2.4409

                    85                     86                     87
                     A                      A                      A
 Frequencies --  1294.0216              1302.6282              1304.8142
 Red. masses --     1.2257                 1.2637                 1.2816
 Frc consts  --     1.2093                 1.2633                 1.2856
 IR Inten    --     8.8806                15.0889                 7.7844
 Raman Activ --     1.5804                 0.7720                 1.6928

                    88                     89                     90
                     A                      A                      A
 Frequencies --  1320.8327              1330.1931              1333.8425
 Red. masses --     1.4245                 1.3000                 1.4530
 Frc consts  --     1.4642                 1.3553                 1.5230
 IR Inten    --    19.0259                20.3584                60.1341
 Raman Activ --     3.4725                 6.5384                 3.4083

                    91                     92                     93
                     A                      A                      A
 Frequencies --  1341.2588              1343.2716              1349.0961
 Red. masses --     1.2315                 1.4487                 1.2094
 Frc consts  --     1.3053                 1.5402                 1.2969
 IR Inten    --    19.1787                 8.6299                23.1931
 Raman Activ --     2.2853                 3.2980                 2.9941

                    94                     95                     96
                     A                      A                      A
 Frequencies --  1371.5290              1378.4595              1382.2951
 Red. masses --     1.2441                 1.2088                 1.5404
 Frc consts  --     1.3788                 1.3533                 1.7342
 IR Inten    --     2.5872                24.3835                 2.9560
 Raman Activ --    11.4711                 3.1515                 2.7935

                    97                     98                     99
                     A                      A                      A
 Frequencies --  1384.7749              1388.3776              1405.0733
 Red. masses --     1.2295                 1.4000                 1.3047
 Frc consts  --     1.3891                 1.5900                 1.5176
 IR Inten    --    54.5847                22.2727                 6.4628
 Raman Activ --     2.9651                 2.1701                 4.8911

                   100                    101                    102
                     A                      A                      A
 Frequencies --  1407.2074              1408.0499              1429.1212
 Red. masses --     1.3400                 1.3623                 1.4645
 Frc consts  --     1.5634                 1.5913                 1.7623
 IR Inten    --    25.6305                 0.9462                37.3376
 Raman Activ --     1.5235                 4.8998                 4.3298

                   103                    104                    105
                     A                      A                      A
 Frequencies --  1431.2092              1446.3905              1455.8324
 Red. masses --     1.4333                 1.0847                 1.5189
 Frc consts  --     1.7297                 1.3370                 1.8967
 IR Inten    --    14.1688                 3.8549                41.5200
 Raman Activ --     3.2346                 5.7165                 4.6898

                   106                    107                    108
                     A                      A                      A
 Frequencies --  1468.1122              1471.4064              3245.1984
 Red. masses --     1.3516                 1.0970                 1.0803
 Frc consts  --     1.7164                 1.3994                 6.7032
 IR Inten    --    18.7361                 2.8629                19.9207
 Raman Activ --     2.1778                 4.2935                45.5114

                   109                    110                    111
                     A                      A                      A
 Frequencies --  3255.5799              3256.3874              3262.5450
 Red. masses --     1.0797                 1.0672                 1.0707
 Frc consts  --     6.7422                 6.6678                 6.7149
 IR Inten    --     7.3770                23.0324                26.6871
 Raman Activ --   139.0073               130.0282                 9.8985

                   112                    113                    114
                     A                      A                      A
 Frequencies --  3265.5128              3270.9357              3274.0726
 Red. masses --     1.0836                 1.0585                 1.0821
 Frc consts  --     6.8082                 6.6721                 6.8345
 IR Inten    --    24.7745                30.8560                 2.0879
 Raman Activ --     4.9157                87.8998                35.1278

                   115                    116                    117
                     A                      A                      A
 Frequencies --  3278.5295              3281.0047              3291.5201
 Red. masses --     1.0835                 1.0840                 1.0860
 Frc consts  --     6.8615                 6.8752                 6.9324
 IR Inten    --    16.0345                 6.7084                 5.8718
 Raman Activ --   193.1331                 4.7840                22.0646

                   118                    119                    120
                     A                      A                      A
 Frequencies --  3295.1138              3302.7606              3325.4416
 Red. masses --     1.0862                 1.0873                 1.1084
 Frc consts  --     6.9488                 6.9880                 7.2220
 IR Inten    --    61.8756                53.3340                27.0690
 Raman Activ --    19.0124                 8.3099                55.5509

                   121                    122                    123
                     A                      A                      A
 Frequencies --  3328.9163              3350.6583              3364.3724
 Red. masses --     1.1037                 1.0678                 1.0663
 Frc consts  --     7.2063                 7.0629                 7.1110
 IR Inten    --    33.7861               245.1550                18.4890
 Raman Activ --    52.2417               152.2482               147.0075

                   124                    125                    126
                     A                      A                      A
 Frequencies --  3366.9350              3374.4521              3378.3649
 Red. masses --     1.0713                 1.0665                 1.0669
 Frc consts  --     7.1555                 7.1553                 7.1743
 IR Inten    --    29.7428                34.8626                51.5356
 Raman Activ --    91.2649               180.6522                89.1731

                   127                    128                    129
                     A                      A                      A
 Frequencies --  3386.5837              3883.6844              3891.7545
 Red. masses --     1.0673                 1.0674                 1.0670
 Frc consts  --     7.2119                 9.4859                 9.5214
 IR Inten    --    88.8132                55.2523                76.8004
 Raman Activ --   114.5564               116.5319               109.4619

 - Thermochemistry -
 -------------------
 Temperature   298.150 Kelvin.  Pressure   1.00000 Atm.
 Atom     1 has atomic number  8 and mass  15.99491

 Molecular mass:   342.11621 amu.
 Principal axes and moments of inertia in atomic units:
                           1         2         3
     Eigenvalues --  4665.07612********************
           X            0.99998  -0.00639  -0.00193
           Y            0.00639   0.99998   0.00050
           Z            0.00193  -0.00051   1.00000
 This molecule is an asymmetric top.
 Rotational symmetry number  1.
 Warning -- assumption of classical behavior for rotation
           may cause significant error
 Rotational temperatures (Kelvin)      0.01857     0.00697     0.00528
 Rotational constants (GHZ):           0.38686     0.14514     0.11006
    7 imaginary frequencies ignored.
 Zero-point vibrational energy     970299.2 (Joules/Mol)
                                  231.90706 (Kcal/Mol)
 Warning -- explicit consideration of  32 degrees of freedom as
           vibrations may cause significant error
 Vibrational temperatures:     49.81    76.09    92.35   143.37   157.12
          (Kelvin)            183.89   194.89   244.39   281.77   307.86
                              367.32   386.35   405.31   412.99   430.18
                              442.13   472.57   506.25   512.68   540.22
                              579.48   601.52   623.04   630.37   679.03
                              698.32   746.05   774.71   794.56   828.58
                              837.17   886.36   909.38   925.71   945.28
                              950.13   981.14  1040.17  1042.27  1142.58
                             1195.98  1215.58  1351.00  1356.20  1393.27
                             1402.62  1426.81  1434.10  1446.17  1452.72
                             1492.59  1507.12  1511.13  1516.19  1522.93
                             1542.62  1566.92  1589.50  1603.60  1604.26
                             1610.86  1637.24  1644.14  1650.50  1667.13
                             1677.27  1694.41  1696.25  1717.57  1731.51
                             1764.37  1788.29  1797.27  1811.63  1820.47
                             1842.51  1846.85  1861.81  1874.19  1877.33
                             1900.38  1913.85  1919.10  1929.77  1932.67
                             1941.05  1973.32  1983.29  1988.81  1992.38
                             1997.56  2021.58  2024.66  2025.87  2056.18
                             2059.19  2081.03  2094.62  2112.28  2117.02
                             4669.11  4684.05  4685.21  4694.07  4698.34
                             4706.14  4710.65  4717.07  4720.63  4735.76
                             4740.93  4751.93  4784.56  4789.56  4820.84
                             4840.58  4844.26  4855.08  4860.71  4872.53
                             5587.75  5599.36

 Zero-point correction=                           0.369567 (Hartree/Particle)
 Thermal correction to Energy=                    0.388394
 Thermal correction to Enthalpy=                  0.389338
 Thermal correction to Gibbs Free Energy=         0.322900
 Sum of electronic and zero-point Energies=          -1297.603759
 Sum of electronic and thermal Energies=             -1297.584932
 Sum of electronic and thermal Enthalpies=           -1297.583988
 Sum of electronic and thermal Free Energies=        -1297.650426

                     E (Thermal)             CV                S
                      KCal/Mol        Cal/Mol-Kelvin    Cal/Mol-Kelvin
 Total                  243.721             77.007            139.832
 Electronic               0.000              0.000              0.000
 Translational            0.889              2.981             43.384
 Rotational               0.889              2.981             35.208
 Vibrational            241.944             71.045             61.240
 Vibration     1          0.594              1.983              5.545
 Vibration     2          0.596              1.976              4.706
 Vibration     3          0.597              1.971              4.324
 Vibration     4          0.604              1.949              3.461
 Vibration     5          0.606              1.942              3.283
 Vibration     6          0.611              1.925              2.979
 Vibration     7          0.613              1.918              2.867
 Vibration     8          0.625              1.880              2.437
 Vibration     9          0.636              1.846              2.172
 Vibration    10          0.644              1.820              2.009
 Vibration    11          0.666              1.754              1.694
 Vibration    12          0.673              1.731              1.606
 Vibration    13          0.681              1.708              1.523
 Vibration    14          0.684              1.698              1.491
 Vibration    15          0.692              1.676              1.423
 Vibration    16          0.697              1.660              1.377
 Vibration    17          0.712              1.619              1.268
 Vibration    18          0.728              1.571              1.158
 Vibration    19          0.732              1.562              1.138
 Vibration    20          0.746              1.522              1.057
 Vibration    21          0.768              1.464              0.953
 Vibration    22          0.781              1.431              0.899
 Vibration    23          0.794              1.398              0.849
 Vibration    24          0.798              1.387              0.833
 Vibration    25          0.829              1.312              0.732
 Vibration    26          0.841              1.283              0.696
 Vibration    27          0.874              1.209              0.613
 Vibration    28          0.893              1.165              0.569
 Vibration    29          0.908              1.135              0.540
 Vibration    30          0.932              1.083              0.493
 Vibration    31          0.939              1.071              0.482
 Vibration    32          0.976              0.998              0.423

 Normal termination of Gaussian 09 at Mon Mar 28 09:33:19 2016.
