 Gaussian 09, Revision B.01,
 Gaussian 09:  EM64L-G09RevB.01 12-Aug-2010

 ----------------------------------------------------------------------
 # freq=raman b3lyp/6-31+g(2df,p) scrf=(smd,solvent=water) geom=connect
 ivity
 ----------------------------------------------------------------------

 ---------------------------------
 alpha-d-glucose raman unoptimized
 ---------------------------------
 Symbolic Z-matrix:
 Charge =  0 Multiplicity = 1

                         Standard orientation:
 ---------------------------------------------------------------------
 Center     Atomic      Atomic             Coordinates (Angstroms)
 Number     Number       Type             X           Y           Z
 ---------------------------------------------------------------------
      1          8           0       -0.834698   -1.088170   -0.591460
      2          8           0       -0.480283    2.344026    0.706025
      3          8           0        2.123541    1.784121   -0.370365
      4          8           0        2.813560   -1.018097   -0.154107
      5          8           0        0.525569   -2.072715    1.082054
      6          8           0       -3.450113   -0.640219    0.008537
      7          6           0       -0.197759    1.226217   -0.132587
      8          6           0        1.240854    0.781731    0.139122
      9          6           0       -1.191131    0.089091    0.142213
     10          6           0        1.534438   -0.544226   -0.559877
     11          6           0        0.460784   -1.591238   -0.259101
     12          6           0       -2.613233    0.458261   -0.271045
     13          1           0       -0.289288    1.559881   -1.174384
     14          1           0        1.440652    0.714234    1.215228
     15          1           0       -1.209478   -0.156214    1.212321
     16          1           0        1.580930   -0.369113   -1.641630
     17          1           0        0.635762   -2.466762   -0.892885
     18          1           0       -2.677237    0.668419   -1.343929
     19          1           0       -2.979876    1.328439    0.280858
     20          1           0        0.063491    3.089062    0.399942
     21          1           0        2.010876    2.581344    0.174073
     22          1           0        2.778314   -1.197976    0.800748
     23          1           0        0.777618   -1.338523    1.665079
     24          1           0       -3.116089   -1.403379   -0.493241
 ---------------------------------------------------------------------

 SCF Done:  E(RB3LYP) =  -687.294756897     A.U. after   12 cycles

 The electronic state is 1-A.
 Alpha  occ. eigenvalues --  -19.17386 -19.17240 -19.16190 -19.16177 -19.16073
 Alpha  occ. eigenvalues --  -19.15334 -10.29358 -10.24674 -10.24161 -10.24100
 Alpha  occ. eigenvalues --  -10.24071 -10.23002  -1.08679  -1.05131  -1.04360
 Alpha  occ. eigenvalues --   -1.03233  -1.02145  -1.01550  -0.78954  -0.77547
 Alpha  occ. eigenvalues --   -0.69322  -0.65625  -0.62563  -0.58660  -0.56123
 Alpha  occ. eigenvalues --   -0.54611  -0.52263  -0.52036  -0.49803  -0.49289
 Alpha  occ. eigenvalues --   -0.46556  -0.46231  -0.45829  -0.43156  -0.41833
 Alpha  occ. eigenvalues --   -0.40615  -0.38966  -0.37925  -0.36765  -0.35732
 Alpha  occ. eigenvalues --   -0.34726  -0.34167  -0.31997  -0.31319  -0.30865
 Alpha  occ. eigenvalues --   -0.28789  -0.27807  -0.27058
 Alpha virt. eigenvalues --    0.00346   0.00917   0.01590   0.02420   0.03853
 Alpha virt. eigenvalues --    0.04448   0.04892   0.05621   0.06430   0.07631
 Alpha virt. eigenvalues --    0.08135   0.08772   0.09501   0.10794   0.11053

 Mulliken atomic charges:
              1
     1  O   -0.119674
     2  O   -0.525638
     3  O   -0.549366
     4  O   -0.480776
     5  O   -0.501113
     6  O   -0.488958
     7  C   -0.039389
     8  C   -0.005139
     9  C    0.107035
    10  C   -0.078645
    11  C   -0.047478
    12  C   -0.406779
    13  H    0.166659
    14  H    0.172843
    15  H    0.162085
    16  H    0.185932
    17  H    0.166223
    18  H    0.168387
    19  H    0.188833
    20  H    0.386893
    21  H    0.384754
    22  H    0.379386
    23  H    0.389263
    24  H    0.384663
 Sum of Mulliken atomic charges =   0.00000

 Dipole moment (field-independent basis, Debye):
    X=              1.6775    Y=              3.5969    Z=              0.7795  Tot=              4.0447
 Quadrupole moment (field-independent basis, Debye-Ang):
   XX=            -95.8175   YY=            -67.8417   ZZ=            -68.5803
   XY=              1.4484   XZ=             12.6557   YZ=              2.4121

  Exact polarizability: 137.921  -1.783 138.291   0.702  -0.735 128.453
 Approx polarizability: 129.868  -1.009 134.154   0.352   0.503 129.656

 ******    1 imaginary frequencies (negative Signs) ******

                     1                      2                      3
                     A                      A                      A
 Frequencies --   -33.3851                36.2459                99.0728
 Red. masses --     5.7832                 4.7988                 3.9322
 Frc consts  --     0.0038                 0.0037                 0.0227
 IR Inten    --     3.5227                 6.6010                 7.7194
 Raman Activ --     0.0796                 0.0355                 0.1425

                     4                      5                      6
                     A                      A                      A
 Frequencies --   120.3948               201.1042               243.9760
 Red. masses --     6.0861                 3.0736                 3.4562
 Frc consts  --     0.0520                 0.0732                 0.1212
 IR Inten    --     2.3288                 0.7271                28.9376
 Raman Activ --     0.1185                 0.3373                 0.6966

                     7                      8                      9
                     A                      A                      A
 Frequencies --   260.7028               277.3975               307.2029
 Red. masses --     2.9302                 4.1854                 3.1241
 Frc consts  --     0.1173                 0.1898                 0.1737
 IR Inten    --    83.8709                12.3060                33.0125
 Raman Activ --     0.4314                 0.2989                 1.9910

                    10                     11                     12
                     A                      A                      A
 Frequencies --   338.0447               344.9118               357.0225
 Red. masses --     1.9730                 1.9458                 1.3735
 Frc consts  --     0.1328                 0.1364                 0.1031
 IR Inten    --   149.6898                97.9399               384.3207
 Raman Activ --     0.4067                 4.0024                 2.2747

                    13                     14                     15
                     A                      A                      A
 Frequencies --   390.0049               404.5854               426.1675
 Red. masses --     3.6154                 1.9333                 3.3190
 Frc consts  --     0.3240                 0.1865                 0.3552
 IR Inten    --   108.8967                86.3136                49.7774
 Raman Activ --     5.0180                 6.3471                 2.2390

                    16                     17                     18
                     A                      A                      A
 Frequencies --   440.5819               505.2539               538.3491
 Red. masses --     3.9768                 1.4693                 2.3000
 Frc consts  --     0.4548                 0.2210                 0.3927
 IR Inten    --    31.3773                22.1475                14.2653
 Raman Activ --     1.3079                 3.1829                 8.8551

                    19                     20                     21
                     A                      A                      A
 Frequencies --   540.6015               600.9251               615.5212
 Red. masses --     4.7180                 1.9790                 2.6753
 Frc consts  --     0.8124                 0.4211                 0.5972
 IR Inten    --    55.7623                86.6893                56.8492
 Raman Activ --     4.8358                 4.1490                 2.8228

                    22                     23                     24
                     A                      A                      A
 Frequencies --   664.6635               755.5933               843.6264
 Red. masses --     2.3355                 4.4759                 2.4022
 Frc consts  --     0.6079                 1.5056                 1.0073
 IR Inten    --    60.0820                25.4572                81.2205
 Raman Activ --     2.8717                 2.5241                14.5500

                    25                     26                     27
                     A                      A                      A
 Frequencies --   882.9051               975.8697              1013.8183
 Red. masses --     3.3284                 5.2710                 5.7755
 Frc consts  --     1.5287                 2.9575                 3.4975
 IR Inten    --   203.4947               243.0705                88.7536
 Raman Activ --     9.9822                 3.4878                 1.7702

                    28                     29                     30
                     A                      A                      A
 Frequencies --  1024.8467              1035.9535              1063.5953
 Red. masses --     2.7589                 5.0830                 3.1856
 Frc consts  --     1.7073                 3.2140                 2.1232
 IR Inten    --   105.3774               302.9135                94.4328
 Raman Activ --     2.7585                 3.1399                 8.0247

                    31                     32                     33
                     A                      A                      A
 Frequencies --  1085.7892              1091.4736              1098.0267
 Red. masses --     3.4155                 3.6933                 2.4537
 Frc consts  --     2.3724                 2.5923                 1.7430
 IR Inten    --    76.3595                98.8523                90.5012
 Raman Activ --    13.8097                15.8654                18.9175

                    34                     35                     36
                     A                      A                      A
 Frequencies --  1133.2459              1145.3792              1192.5736
 Red. masses --     2.5456                 2.9415                 1.2501
 Frc consts  --     1.9262                 2.2736                 1.0475
 IR Inten    --    75.5512                79.9396                25.8432
 Raman Activ --     9.0798                 9.3569                 7.1131

                    37                     38                     39
                     A                      A                      A
 Frequencies --  1215.7045              1247.8201              1262.2480
 Red. masses --     1.3172                 1.2498                 1.1759
 Frc consts  --     1.1470                 1.1466                 1.1039
 IR Inten    --   128.8011                23.1824                21.8534
 Raman Activ --     8.4012                 2.3173                 3.6574

                    40                     41                     42
                     A                      A                      A
 Frequencies --  1280.4168              1305.8685              1321.1388
 Red. masses --     1.2192                 2.3329                 1.2976
 Frc consts  --     1.1776                 2.3440                 1.3344
 IR Inten    --    48.3689                60.0683                 9.9957
 Raman Activ --    12.5853                12.7583                 7.8833

                    43                     44                     45
                     A                      A                      A
 Frequencies --  1345.9280              1357.8931              1370.1091
 Red. masses --     1.2786                 1.4413                 1.2333
 Frc consts  --     1.3646                 1.5658                 1.3640
 IR Inten    --    18.4142                31.3053                18.5314
 Raman Activ --     4.7554                11.7891                 7.0333

                    46                     47                     48
                     A                      A                      A
 Frequencies --  1385.1011              1386.9439              1399.1770
 Red. masses --     1.3117                 1.3651                 1.1847
 Frc consts  --     1.4827                 1.5471                 1.3665
 IR Inten    --    70.6269                22.0612                21.5973
 Raman Activ --     4.1833                 2.7137                28.1060

                    49                     50                     51
                     A                      A                      A
 Frequencies --  1416.3712              1436.4345              1442.0054
 Red. masses --     1.1441                 1.5235                 1.3960
 Frc consts  --     1.3523                 1.8521                 1.7103
 IR Inten    --    12.4984                24.6250               105.2609
 Raman Activ --     9.8333                17.7048                 3.5043

                    52                     53                     54
                     A                      A                      A
 Frequencies --  1450.7502              1465.9100              1494.3700
 Red. masses --     1.4102                 1.3423                 1.1731
 Frc consts  --     1.7487                 1.6995                 1.5434
 IR Inten    --    32.5216                78.7721                12.3187
 Raman Activ --     9.1543                 5.7174                15.1639

                    55                     56                     57
                     A                      A                      A
 Frequencies --  3025.1030              3031.4655              3039.8972
 Red. masses --     1.0822                 1.0829                 1.0833
 Frc consts  --     5.8351                 5.8632                 5.8979
 IR Inten    --     4.3911                12.5077                50.3546
 Raman Activ --   736.4767               106.6027               232.6741

                    58                     59                     60
                     A                      A                      A
 Frequencies --  3047.2834              3067.6201              3088.4938
 Red. masses --     1.0664                 1.0864                 1.0891
 Frc consts  --     5.8344                 6.0234                 6.1210
 IR Inten    --   130.9265                31.6423                37.9230
 Raman Activ --   193.9229               155.6277               378.9314

                    61                     62                     63
                     A                      A                      A
 Frequencies --  3115.0701              3700.8213              3706.5116
 Red. masses --     1.1032                 1.0660                 1.0668
 Frc consts  --     6.3073                 8.6021                 8.6350
 IR Inten    --    31.2378               116.0325                49.8514
 Raman Activ --   187.9088               124.9487                77.8032

                    64                     65                     66
                     A                      A                      A
 Frequencies --  3707.6122              3723.8125              3727.2122
 Red. masses --     1.0660                 1.0666                 1.0656
 Frc consts  --     8.6338                 8.7140                 8.7221
 IR Inten    --    81.9034               107.6851               132.6598
 Raman Activ --   101.4790               159.1009               256.0994

 - Thermochemistry -
 -------------------
 Temperature   298.150 Kelvin.  Pressure   1.00000 Atm.
 Atom     1 has atomic number  8 and mass  15.99491

 Molecular mass:   180.06339 amu.
 Principal axes and moments of inertia in atomic units:
                           1         2         3
     Eigenvalues --  1425.285142345.410123380.70746
           X            0.99992  -0.00676   0.01024
           Y            0.00675   0.99998   0.00103
           Z           -0.01024  -0.00096   0.99995
 This molecule is an asymmetric top.
 Rotational symmetry number  1.
 Warning -- assumption of classical behavior for rotation
           may cause significant error
 Rotational temperatures (Kelvin)      0.06077     0.03693     0.02562
 Rotational constants (GHZ):           1.26623     0.76948     0.53384
    1 imaginary frequencies ignored.
 Zero-point vibrational energy     518105.8 (Joules/Mol)
                                  123.83025 (Kcal/Mol)
 Warning -- explicit consideration of  20 degrees of freedom as
           vibrations may cause significant error
 Vibrational temperatures:     52.15   142.54   173.22   289.34   351.03
          (Kelvin)            375.09   399.11   442.00   486.37   496.25
                              513.68   561.13   582.11   613.16   633.90
                              726.95   774.56   777.80   864.60   885.60
                              956.30  1087.13  1213.79  1270.30  1404.06
                             1458.66  1474.52  1490.50  1530.27  1562.21
                             1570.39  1579.81  1630.49  1647.94  1715.85
                             1749.13  1795.33  1816.09  1842.23  1878.85
                             1900.82  1936.49  1953.70  1971.28  1992.85
                             1995.50  2013.10  2037.84  2066.71  2074.72
                             2087.30  2109.11  2150.06  4352.44  4361.60
                             4373.73  4384.36  4413.62  4443.65  4481.89
                             5324.65  5332.84  5334.42  5357.73  5362.62

 Zero-point correction=                           0.197336 (Hartree/Particle)
 Thermal correction to Energy=                    0.208865
 Thermal correction to Enthalpy=                  0.209809
 Thermal correction to Gibbs Free Energy=         0.160062
 Sum of electronic and zero-point Energies=           -687.097421
 Sum of electronic and thermal Energies=              -687.085892
 Sum of electronic and thermal Enthalpies=            -687.084948
 Sum of electronic and thermal Free Energies=         -687.134694

                     E (Thermal)             CV                S
                      KCal/Mol        Cal/Mol-Kelvin    Cal/Mol-Kelvin
 Total                  131.065             44.919            104.700
 Electronic               0.000              0.000              0.000
 Translational            0.889              2.981             41.471
 Rotational               0.889              2.981             30.803
 Vibrational            129.287             38.957             32.426
 Vibration     1          0.594              1.982              5.454
 Vibration     2          0.604              1.950              3.472
 Vibration     3          0.609              1.932              3.094
 Vibration     4          0.638              1.838              2.123
 Vibration     5          0.659              1.773              1.774
 Vibration     6          0.669              1.745              1.657
 Vibration     7          0.678              1.715              1.550
 Vibration     8          0.697              1.660              1.377
 Vibration     9          0.718              1.599              1.221
 Vibration    10          0.723              1.586              1.189
 Vibration    11          0.732              1.561              1.135
 Vibration    12          0.758              1.492              1.000
 Vibration    13          0.770              1.460              0.946
 Vibration    14          0.788              1.413              0.871
 Vibration    15          0.800              1.382              0.825
 Vibration    16          0.861              1.238              0.645
 Vibration    17          0.893              1.165              0.569
 Vibration    18          0.896              1.160              0.564
 Vibration    19          0.959              1.030              0.448
 Vibration    20          0.975              0.999              0.424

 Normal termination of Gaussian 09 at Wed Apr  1 22:28:03 2015.
