 Gaussian 09, Revision B.01,
 Gaussian 09:  EM64L-G09RevB.01 12-Aug-2010

 -------------------------------------------------
 # freq=raman b3lyp/6-31+g(2d,p) geom=connectivity
 -------------------------------------------------

 -----------------
 483 7158/7158.com
 -----------------
 Symbolic Z-matrix:
 Charge =  0 Multiplicity = 1

                         Standard orientation:
 ---------------------------------------------------------------------
 Center     Atomic      Atomic             Coordinates (Angstroms)
 Number     Number       Type             X           Y           Z
 ---------------------------------------------------------------------
      1          8           0        4.998588   -0.335669   -0.448989
      2          6           0        3.746815   -0.137158    0.224610
      3          6           0        3.304069    1.277184   -0.110841
      4          8           0        4.256966    2.215819    0.410375
      5          1           0        5.112023    1.898804    0.001812
      6          6           0        1.828046    1.480287    0.188479
      7          8           0        1.346647    2.698604   -0.397648
      8          1           0        0.349443    2.747930   -0.344388
      9          6           0        2.963436   -2.537844    0.190894
     10          8           0        4.219621   -3.069580   -0.254896
     11          1           0        4.167951   -4.066806   -0.202059
     12          6           0        2.669336   -1.108064   -0.232483
     13          8           0        1.310764   -0.921653    0.189124
     14          6           0        0.934037    0.363409   -0.326527
     15          8           0       -0.232847    0.454518    0.503495
     16          6           0       -1.541349    0.221585   -0.039569
     17          6           0       -1.999664   -1.178245    0.334047
     18          8           0       -1.002857   -2.157724    0.009038
     19          1           0       -0.188527   -1.589001    0.117769
     20          6           0       -3.372881   -1.507755   -0.230133
     21          8           0       -3.851295   -2.724595    0.360865
     22          1           0       -4.632311   -3.077955   -0.153400
     23          6           0       -2.443184    2.670500   -0.028337
     24          8           0       -1.181106    3.345663    0.071835
     25          1           0       -1.230350    4.294121   -0.240979
     26          6           0       -2.596377    1.221291    0.405369
     27          8           0       -3.846663    0.876542   -0.208478
     28          6           0       -4.330178   -0.409879    0.203977
     29          8           0       -5.442585   -0.574389   -0.687101
     30          1           0       -6.242064   -0.722987   -0.176854
     31          1           0       -3.147753    3.241580    0.539422
     32          1           0       -2.743279    2.721927   -1.054105
     33          1           0       -2.699427    1.178317    1.469528
     34          1           0       -1.468793    0.272368   -1.105898
     35          1           0       -2.099919   -1.190333    1.399271
     36          1           0       -3.340237   -1.587011   -1.296694
     37          1           0       -4.604679   -0.457056    1.237091
     38          1           0        5.690940   -0.483580    0.199371
     39          1           0        2.182623   -3.165098   -0.185647
     40          1           0        2.942977   -2.580669    1.259841
     41          1           0        2.669926   -1.087755   -1.302290
     42          1           0        3.888539   -0.228419    1.281249
     43          1           0        3.385593    1.358049   -1.174662
     44          1           0        1.706957    1.545815    1.249584
     45          1           0        0.725880    0.385599   -1.375849
 ---------------------------------------------------------------------

 SCF Done:  E(RB3LYP) =  -1297.97093252     A.U. after   13 cycles

 The electronic state is 1-A.
 Alpha  occ. eigenvalues --  -19.19010 -19.18645 -19.17864 -19.17476 -19.17414
 Alpha  occ. eigenvalues --  -19.16914 -19.16019 -19.15716 -19.15062 -19.13114
 Alpha  occ. eigenvalues --  -19.13037 -10.31022 -10.30161 -10.26311 -10.25529
 Alpha  occ. eigenvalues --  -10.25280 -10.25052 -10.24965 -10.24394 -10.24318
 Alpha  occ. eigenvalues --  -10.23599 -10.23447 -10.23403  -1.11378  -1.09319
 Alpha  occ. eigenvalues --   -1.05376  -1.05250  -1.03836  -1.03338  -1.02384
 Alpha  occ. eigenvalues --   -1.02095  -1.01661  -1.00435  -0.99833  -0.82027
 Alpha  occ. eigenvalues --   -0.80453  -0.79338  -0.77689  -0.71884  -0.69519
 Alpha  occ. eigenvalues --   -0.67314  -0.64934  -0.63254  -0.62482  -0.61326
 Alpha  occ. eigenvalues --   -0.60073  -0.56431  -0.56060  -0.55130  -0.54397
 Alpha  occ. eigenvalues --   -0.54268  -0.53262  -0.52318  -0.51691  -0.50870
 Alpha  occ. eigenvalues --   -0.50339  -0.49974  -0.49288  -0.48677  -0.47078
 Alpha  occ. eigenvalues --   -0.46061  -0.44905  -0.43689  -0.43128  -0.42798
 Alpha  occ. eigenvalues --   -0.42647  -0.41131  -0.40869  -0.40121  -0.39919
 Alpha  occ. eigenvalues --   -0.38925  -0.37858  -0.37526  -0.36208  -0.35739
 Alpha  occ. eigenvalues --   -0.35180  -0.35015  -0.34481  -0.34206  -0.33058
 Alpha  occ. eigenvalues --   -0.32537  -0.31348  -0.31150  -0.30439  -0.29747
 Alpha  occ. eigenvalues --   -0.28908  -0.28263  -0.28087  -0.27326  -0.26578
 Alpha  occ. eigenvalues --   -0.25961
 Alpha virt. eigenvalues --   -0.02034  -0.01526  -0.01382  -0.00035   0.00265
 Alpha virt. eigenvalues --    0.01151   0.02017   0.02311   0.02792   0.03060
 Alpha virt. eigenvalues --    0.03791   0.04486   0.04583   0.05433   0.05828

 Mulliken atomic charges:
              1
     1  O   -0.551733
     2  C    0.023963
     3  C    0.044373
     4  O   -0.562764
     5  H    0.342889
     6  C    0.202960
     7  O   -0.587034
     8  H    0.415750
     9  C   -0.143382
    10  O   -0.534105
    11  H    0.341508
    12  C    0.066674
    13  O   -0.203046
    14  C   -0.025660
    15  O   -0.259032
    16  C    0.182130
    17  C    0.193202
    18  O   -0.600452
    19  H    0.438710
    20  C    0.037712
    21  O   -0.538669
    22  H    0.334924
    23  C   -0.249228
    24  O   -0.563285
    25  H    0.360149
    26  C   -0.127589
    27  O   -0.209231
    28  C    0.162668
    29  O   -0.535868
    30  H    0.328242
    31  H    0.149111
    32  H    0.154040
    33  H    0.120689
    34  H    0.112474
    35  H    0.113535
    36  H    0.136244
    37  H    0.143339
    38  H    0.345706
    39  H    0.147683
    40  H    0.139833
    41  H    0.114125
    42  H    0.125273
    43  H    0.124979
    44  H    0.134799
    45  H    0.153396
 Sum of Mulliken atomic charges =   0.00000

 Dipole moment (field-independent basis, Debye):
    X=             -2.8902    Y=             -0.1044    Z=              0.7360  Tot=              2.9843
 Quadrupole moment (field-independent basis, Debye-Ang):
   XX=           -116.4631   YY=           -136.0464   ZZ=           -138.5357
   XY=            -14.9438   XZ=             -0.2964   YZ=             -1.4613

  Exact polarizability: 235.613   2.935 196.097   0.146  -1.242 143.299
 Approx polarizability: 276.031   4.268 256.017  -0.113  -2.992 239.798

 ******    7 imaginary frequencies (negative Signs) ******

                     1                      2                      3
                     A                      A                      A
 Frequencies --  -282.8549              -251.1468              -250.2784
 Red. masses --     1.8071                 1.5577                 1.1689
 Frc consts  --     0.0852                 0.0579                 0.0431
 IR Inten    --     2.4598                22.9953               126.7528
 Raman Activ --     0.0872                 0.4723                 0.9229

                     4                      5                      6
                     A                      A                      A
 Frequencies --  -221.1259               -76.0591               -46.9419
 Red. masses --     1.3510                 6.5834                 6.6046
 Frc consts  --     0.0389                 0.0224                 0.0086
 IR Inten    --    74.1513                 1.5233                 0.0479
 Raman Activ --     0.5659                 0.0152                 0.0080

                     7                      8                      9
                     A                      A                      A
 Frequencies --   -36.8140                48.0909                66.6335
 Red. masses --     6.0643                 6.8907                 6.2311
 Frc consts  --     0.0048                 0.0094                 0.0163
 IR Inten    --     3.6069                 0.4584                 0.9560
 Raman Activ --     0.0580                 0.0861                 0.0466

                    10                     11                     12
                     A                      A                      A
 Frequencies --    84.9162                92.1492               115.5551
 Red. masses --     6.2691                 5.9689                 5.6099
 Frc consts  --     0.0266                 0.0299                 0.0441
 IR Inten    --     1.6533                 5.5001                 0.8941
 Raman Activ --     0.2275                 0.0815                 0.0707

                    13                     14                     15
                     A                      A                      A
 Frequencies --   156.7108               180.5987               191.9328
 Red. masses --     5.5775                 6.1713                 7.5283
 Frc consts  --     0.0807                 0.1186                 0.1634
 IR Inten    --     5.0106                 0.8480                 0.1373
 Raman Activ --     0.2183                 0.3513                 0.8810

                    16                     17                     18
                     A                      A                      A
 Frequencies --   205.7907               234.1122               275.0046
 Red. masses --     7.0721                 6.1741                 4.5716
 Frc consts  --     0.1765                 0.1994                 0.2037
 IR Inten    --     0.6620                 1.2327                12.9469
 Raman Activ --     3.0044                 0.3511                 0.6109

                    19                     20                     21
                     A                      A                      A
 Frequencies --   277.7879               295.7722               310.1709
 Red. masses --     5.1097                 4.9261                 6.5677
 Frc consts  --     0.2323                 0.2539                 0.3723
 IR Inten    --     0.9050                 0.5517                 3.3199
 Raman Activ --     0.2044                 0.0570                 0.8966

                    22                     23                     24
                     A                      A                      A
 Frequencies --   318.7568               325.9106               331.1923
 Red. masses --     5.2459                 5.5785                 6.0320
 Frc consts  --     0.3140                 0.3491                 0.3898
 IR Inten    --     4.1017                 0.3331                 8.9500
 Raman Activ --     0.4415                 1.2026                 2.9263

                    25                     26                     27
                     A                      A                      A
 Frequencies --   340.3525               375.0458               380.2401
 Red. masses --     6.3324                 4.5639                 6.4130
 Frc consts  --     0.4322                 0.3782                 0.5463
 IR Inten    --    10.1913                 2.9255                 0.5768
 Raman Activ --     0.7431                 3.1169                 1.6937

                    28                     29                     30
                     A                      A                      A
 Frequencies --   415.2537               424.7293               443.0714
 Red. masses --     3.9737                 5.8974                 4.8573
 Frc consts  --     0.4037                 0.6268                 0.5618
 IR Inten    --    12.3912                 2.0231                 7.2268
 Raman Activ --     0.9690                 6.7139                 0.9566

                    31                     32                     33
                     A                      A                      A
 Frequencies --   454.5949               483.0419               498.1655
 Red. masses --     6.0627                 4.1558                 5.3833
 Frc consts  --     0.7382                 0.5713                 0.7871
 IR Inten    --     1.5931                 2.9967                 5.1482
 Raman Activ --     1.8305                 4.0336                 0.9803

                    34                     35                     36
                     A                      A                      A
 Frequencies --   515.4470               524.5643               577.3917
 Red. masses --     3.0974                 3.0911                 3.7531
 Frc consts  --     0.4849                 0.5011                 0.7372
 IR Inten    --    20.0529                 7.2992                 9.4716
 Raman Activ --     2.1174                 5.6134                 1.9561

                    37                     38                     39
                     A                      A                      A
 Frequencies --   601.1183               613.2743               636.1981
 Red. masses --     2.6575                 6.4711                 5.3921
 Frc consts  --     0.5658                 1.4340                 1.2859
 IR Inten    --    36.4862                 4.4282                11.6475
 Raman Activ --     0.1174                 0.5867                 0.2634

                    40                     41                     42
                     A                      A                      A
 Frequencies --   643.3722               705.8631               713.8544
 Red. masses --     4.3448                 1.1235                 1.3198
 Frc consts  --     1.0596                 0.3298                 0.3963
 IR Inten    --    45.9428                83.3597                69.8077
 Raman Activ --     2.1098                 1.5935                 1.7287

                    43                     44                     45
                     A                      A                      A
 Frequencies --   717.1975               722.5623               768.4136
 Red. masses --     1.2291                 1.9931                 1.0797
 Frc consts  --     0.3725                 0.6131                 0.3756
 IR Inten    --    19.8443               116.8396                86.9772
 Raman Activ --     0.7956                 4.8762                 1.4493

                    46                     47                     48
                     A                      A                      A
 Frequencies --   809.5344               815.4906               856.6304
 Red. masses --     1.1082                 1.0749                 1.7111
 Frc consts  --     0.4279                 0.4212                 0.7398
 IR Inten    --    38.4429               123.7725                 5.4551
 Raman Activ --     0.7790                 0.5062                 1.0342

                    49                     50                     51
                     A                      A                      A
 Frequencies --   869.6495               909.3887               943.8357
 Red. masses --     1.7349                 5.5443                 5.1086
 Frc consts  --     0.7731                 2.7014                 2.6813
 IR Inten    --    12.1544                67.8010                41.1303
 Raman Activ --     1.3094                 3.2948                 1.0628

                    52                     53                     54
                     A                      A                      A
 Frequencies --   981.4456               988.7334               989.3192
 Red. masses --     6.1497                 5.1477                 5.7364
 Frc consts  --     3.4901                 2.9650                 3.3080
 IR Inten    --   225.1921               117.0995               120.8532
 Raman Activ --     4.6080                 0.3319                 1.7867

                    55                     56                     57
                     A                      A                      A
 Frequencies --  1004.4344              1006.5962              1012.7672
 Red. masses --     5.3467                 6.2166                 6.1712
 Frc consts  --     3.1782                 3.7112                 3.7294
 IR Inten    --    55.6455               213.3424                86.9660
 Raman Activ --     0.7602                 2.5034                 7.8178

                    58                     59                     60
                     A                      A                      A
 Frequencies --  1040.0324              1054.7880              1061.7809
 Red. masses --     4.6022                 4.7888                 3.4083
 Frc consts  --     2.9330                 3.1391                 2.2639
 IR Inten    --   172.7398               155.4038                 2.9147
 Raman Activ --     3.7353                 6.3321                 5.5035

                    61                     62                     63
                     A                      A                      A
 Frequencies --  1062.8895              1069.2052              1077.0329
 Red. masses --     5.0693                 2.8867                 4.8444
 Frc consts  --     3.3742                 1.9444                 3.3109
 IR Inten    --   102.7331                24.6306                53.7739
 Raman Activ --     0.8482                34.0840                 2.8181

                    64                     65                     66
                     A                      A                      A
 Frequencies --  1091.8841              1095.1109              1109.7838
 Red. masses --     2.4424                 2.6749                 2.4832
 Frc consts  --     1.7156                 1.8901                 1.8020
 IR Inten    --    68.9369                29.3532                30.2384
 Raman Activ --     2.9229                 2.4919                 2.7193

                    67                     68                     69
                     A                      A                      A
 Frequencies --  1111.4757              1124.8795              1130.8286
 Red. masses --     3.2667                 2.1991                 2.8714
 Frc consts  --     2.3777                 1.6395                 2.1634
 IR Inten    --    17.0863                23.3861                25.8662
 Raman Activ --     5.9038                 2.0757                 8.9409

                    70                     71                     72
                     A                      A                      A
 Frequencies --  1138.7916              1140.3802              1150.1187
 Red. masses --     1.9140                 2.1811                 2.0866
 Frc consts  --     1.4625                 1.6712                 1.6262
 IR Inten    --    21.8253                19.2207                35.2830
 Raman Activ --     7.6706                 7.2712                 4.0622

                    73                     74                     75
                     A                      A                      A
 Frequencies --  1164.2411              1177.1892              1186.1093
 Red. masses --     2.1856                 1.7491                 1.8417
 Frc consts  --     1.7454                 1.4281                 1.5266
 IR Inten    --    33.8473                 6.3648                27.0345
 Raman Activ --     3.4826                 0.9749                 3.8332

                    76                     77                     78
                     A                      A                      A
 Frequencies --  1197.1200              1203.1656              1205.9534
 Red. masses --     1.4065                 1.2396                 1.2953
 Frc consts  --     1.1876                 1.0573                 1.1099
 IR Inten    --    19.8891                 0.4513                32.5430
 Raman Activ --     3.1593                 1.7498                 1.8917

                    79                     80                     81
                     A                      A                      A
 Frequencies --  1214.5644              1227.0720              1246.2355
 Red. masses --     1.2302                 1.3784                 1.3026
 Frc consts  --     1.0692                 1.2228                 1.1920
 IR Inten    --    19.2189                 1.8277                15.7020
 Raman Activ --     2.2089                 0.5970                 1.9398

                    82                     83                     84
                     A                      A                      A
 Frequencies --  1271.1343              1277.5339              1285.2592
 Red. masses --     1.2356                 1.3815                 1.3218
 Frc consts  --     1.1763                 1.3284                 1.2865
 IR Inten    --     3.9440                37.3447                 7.3124
 Raman Activ --     1.1863                 1.0870                 3.3054

                    85                     86                     87
                     A                      A                      A
 Frequencies --  1290.8232              1294.5870              1298.9589
 Red. masses --     1.3640                 1.2286                 1.3175
 Frc consts  --     1.3391                 1.2132                 1.3097
 IR Inten    --    12.9539                12.0299                14.1099
 Raman Activ --     3.0252                 2.1049                 3.6791

                    88                     89                     90
                     A                      A                      A
 Frequencies --  1311.2482              1314.0917              1323.6615
 Red. masses --     1.2368                 1.3581                 1.2688
 Frc consts  --     1.2529                 1.3817                 1.3098
 IR Inten    --    22.5995                27.7446                 1.2035
 Raman Activ --     5.8027                 2.8260                 8.6546

                    91                     92                     93
                     A                      A                      A
 Frequencies --  1331.7174              1335.0659              1340.9127
 Red. masses --     1.2526                 1.2958                 1.2061
 Frc consts  --     1.3089                 1.3608                 1.2777
 IR Inten    --    21.3130                38.8537                24.1117
 Raman Activ --     1.4853                 7.0365                 3.7986

                    94                     95                     96
                     A                      A                      A
 Frequencies --  1353.6509              1360.4533              1362.4627
 Red. masses --     1.4420                 1.3619                 1.5648
 Frc consts  --     1.5568                 1.4851                 1.7114
 IR Inten    --     2.1533                 3.4957                11.8035
 Raman Activ --    12.2694                 2.0177                 3.6754

                    97                     98                     99
                     A                      A                      A
 Frequencies --  1373.3316              1390.2464              1400.1379
 Red. masses --     1.2273                 1.6329                 1.4783
 Frc consts  --     1.3638                 1.8595                 1.7075
 IR Inten    --    57.6866                 5.3688                 2.3809
 Raman Activ --     5.1153                 6.3941                 6.8090

                   100                    101                    102
                     A                      A                      A
 Frequencies --  1419.0792              1456.5548              1466.3855
 Red. masses --     1.3937                 1.3937                 1.3201
 Frc consts  --     1.6536                 1.7421                 1.6724
 IR Inten    --    32.6963                26.4768                26.0108
 Raman Activ --     1.8349                 0.8634                 2.4683

                   103                    104                    105
                     A                      A                      A
 Frequencies --  1472.4038              1477.0102              1477.5450
 Red. masses --     1.3263                 1.1336                 1.0838
 Frc consts  --     1.6941                 1.4571                 1.3941
 IR Inten    --    22.2757                 4.2834                 1.8766
 Raman Activ --     2.1012                 2.7702                 4.5423

                   106                    107                    108
                     A                      A                      A
 Frequencies --  1506.6712              1534.7626              3245.3546
 Red. masses --     1.2738                 1.2546                 1.0689
 Frc consts  --     1.7037                 1.7411                 6.6330
 IR Inten    --    56.6622                87.8562               693.1799
 Raman Activ --     2.2666                 2.6104               161.2095

                   109                    110                    111
                     A                      A                      A
 Frequencies --  3256.5437              3260.4077              3264.2834
 Red. masses --     1.0577                 1.0795                 1.0637
 Frc consts  --     6.6088                 6.7614                 6.6780
 IR Inten    --    14.4162               152.4592                 8.2099
 Raman Activ --    71.9993                83.8563               185.4118

                   112                    113                    114
                     A                      A                      A
 Frequencies --  3266.3036              3269.7880              3271.5391
 Red. masses --     1.0776                 1.0810                 1.0824
 Frc consts  --     6.7736                 6.8096                 6.8259
 IR Inten    --    44.1640                25.4340                 1.4030
 Raman Activ --    30.6978               143.3099                66.7652

                   115                    116                    117
                     A                      A                      A
 Frequencies --  3285.5031              3286.7980              3296.2260
 Red. masses --     1.0861                 1.0844                 1.0867
 Frc consts  --     6.9078                 6.9021                 6.9565
 IR Inten    --    41.3004                 2.2381                37.3217
 Raman Activ --    21.6081                12.9789                29.2301

                   118                    119                    120
                     A                      A                      A
 Frequencies --  3299.5203              3303.5947              3309.4737
 Red. masses --     1.0869                 1.0696                 1.0877
 Frc consts  --     6.9716                 6.8778                 7.0188
 IR Inten    --     0.2934               835.8606                32.9670
 Raman Activ --   107.2201                92.5409                 9.6320

                   121                    122                    123
                     A                      A                      A
 Frequencies --  3314.1955              3315.7413              3316.9533
 Red. masses --     1.1007                 1.1029                 1.0924
 Frc consts  --     7.1234                 7.1443                 7.0810
 IR Inten    --    24.5277                32.9722               196.5946
 Raman Activ --    43.4748                71.7949                54.7146

                   124                    125                    126
                     A                      A                      A
 Frequencies --  3367.8723              3371.9288              3375.0845
 Red. masses --     1.0675                 1.0646                 1.0670
 Frc consts  --     7.1339                 7.1316                 7.1609
 IR Inten    --    33.4019                44.0145               102.2341
 Raman Activ --   162.4285                97.3449                92.1025

                   127                    128                    129
                     A                      A                      A
 Frequencies --  3375.5706              3889.7650              3890.1663
 Red. masses --     1.0666                 1.0676                 1.0674
 Frc consts  --     7.1603                 9.5169                 9.5171
 IR Inten    --    16.0223                92.2179                47.7008
 Raman Activ --   213.4117                73.4572               151.1150

 - Thermochemistry -
 -------------------
 Temperature   298.150 Kelvin.  Pressure   1.00000 Atm.
 Atom     1 has atomic number  8 and mass  15.99491

 Molecular mass:   342.11621 amu.
 Principal axes and moments of inertia in atomic units:
                           1         2         3
     Eigenvalues --  4292.86044********************
           X            0.99997  -0.00764  -0.00035
           Y            0.00764   0.99997  -0.00220
           Z            0.00036   0.00220   1.00000
 This molecule is an asymmetric top.
 Rotational symmetry number  1.
 Warning -- assumption of classical behavior for rotation
           may cause significant error
 Rotational temperatures (Kelvin)      0.02018     0.00702     0.00533
 Rotational constants (GHZ):           0.42041     0.14622     0.11100
    7 imaginary frequencies ignored.
 Zero-point vibrational energy     975504.4 (Joules/Mol)
                                  233.15114 (Kcal/Mol)
 Warning -- explicit consideration of  31 degrees of freedom as
           vibrations may cause significant error
 Vibrational temperatures:     69.19    95.87   122.18   132.58   166.26
          (Kelvin)            225.47   259.84   276.15   296.09   336.83
                              395.67   399.67   425.55   446.27   458.62
                              468.91   476.51   489.69   539.61   547.08
                              597.46   611.09   637.48   654.06   694.99
                              716.75   741.61   754.73   830.74   864.87
                              882.36   915.35   925.67  1015.58  1027.08
                             1031.89  1039.60  1105.57  1164.74  1173.31
                             1232.50  1251.23  1308.41  1357.97  1412.08
                             1422.57  1423.41  1445.16  1448.27  1457.14
                             1496.37  1517.60  1527.66  1529.26  1538.35
                             1549.61  1570.98  1575.62  1596.73  1599.16
                             1618.45  1627.01  1638.47  1640.75  1654.76
                             1675.08  1693.71  1706.54  1722.39  1731.08
                             1735.10  1747.49  1765.48  1793.05  1828.88
                             1838.08  1849.20  1857.20  1862.62  1868.91
                             1886.59  1890.68  1904.45  1916.04  1920.86
                             1929.27  1947.60  1957.39  1960.28  1975.92
                             2000.25  2014.48  2041.74  2095.65  2109.80
                             2118.46  2125.09  2125.86  2167.76  2208.18
                             4669.34  4685.43  4690.99  4696.57  4699.48
                             4704.49  4707.01  4727.10  4728.96  4742.53
                             4747.27  4753.13  4761.59  4768.38  4770.61
                             4772.35  4845.61  4851.45  4855.99  4856.69
                             5596.50  5597.07

 Zero-point correction=                           0.371550 (Hartree/Particle)
 Thermal correction to Energy=                    0.389660
 Thermal correction to Enthalpy=                  0.390605
 Thermal correction to Gibbs Free Energy=         0.326354
 Sum of electronic and zero-point Energies=          -1297.599383
 Sum of electronic and thermal Energies=             -1297.581272
 Sum of electronic and thermal Enthalpies=           -1297.580328
 Sum of electronic and thermal Free Energies=        -1297.644578

                     E (Thermal)             CV                S
                      KCal/Mol        Cal/Mol-Kelvin    Cal/Mol-Kelvin
 Total                  244.516             75.485            135.226
 Electronic               0.000              0.000              0.000
 Translational            0.889              2.981             43.384
 Rotational               0.889              2.981             35.109
 Vibrational            242.738             69.523             56.733
 Vibration     1          0.595              1.978              4.894
 Vibration     2          0.598              1.970              4.250
 Vibration     3          0.601              1.960              3.774
 Vibration     4          0.602              1.955              3.614
 Vibration     5          0.608              1.937              3.173
 Vibration     6          0.620              1.895              2.589
 Vibration     7          0.630              1.866              2.322
 Vibration     8          0.634              1.851              2.209
 Vibration     9          0.640              1.832              2.081
 Vibration    10          0.654              1.789              1.847
 Vibration    11          0.677              1.720              1.565
 Vibration    12          0.679              1.715              1.547
 Vibration    13          0.690              1.682              1.441
 Vibration    14          0.699              1.654              1.361
 Vibration    15          0.705              1.638              1.316
 Vibration    16          0.710              1.624              1.280
 Vibration    17          0.714              1.613              1.254
 Vibration    18          0.720              1.595              1.211
 Vibration    19          0.746              1.523              1.059
 Vibration    20          0.750              1.512              1.038
 Vibration    21          0.779              1.437              0.908
 Vibration    22          0.787              1.416              0.876
 Vibration    23          0.803              1.376              0.817
 Vibration    24          0.813              1.351              0.782
 Vibration    25          0.839              1.288              0.702
 Vibration    26          0.854              1.254              0.663
 Vibration    27          0.870              1.216              0.621
 Vibration    28          0.880              1.196              0.599
 Vibration    29          0.934              1.080              0.490
 Vibration    30          0.959              1.029              0.448
 Vibration    31          0.973              1.004              0.427

 Normal termination of Gaussian 09 at Tue Mar 29 22:27:44 2016.
