 Gaussian 09, Revision B.01,
 Gaussian 09:  EM64L-G09RevB.01 12-Aug-2010

 -------------------------------------------------
 # freq=raman b3lyp/6-31+g(2d,p) geom=connectivity
 -------------------------------------------------

 -----------------
 493 7124/7124.com
 -----------------
 Symbolic Z-matrix:
 Charge =  0 Multiplicity = 1

                         Standard orientation:
 ---------------------------------------------------------------------
 Center     Atomic      Atomic             Coordinates (Angstroms)
 Number     Number       Type             X           Y           Z
 ---------------------------------------------------------------------
      1          8           0       -5.056899   -0.311150    0.484689
      2          6           0       -3.812077   -0.081888   -0.190076
      3          6           0       -3.317713    1.298282    0.212597
      4          8           0       -4.234144    2.326024   -0.191278
      5          1           0       -5.158440    2.101500    0.118617
      6          6           0       -1.864826    1.501902   -0.184611
      7          8           0       -1.340839    2.488183    0.716550
      8          1           0       -0.699945    3.002715    0.146924
      9          6           0       -3.072183   -2.548040   -0.255938
     10          8           0       -4.153539   -3.394840    0.160519
     11          1           0       -3.920813   -4.366905    0.180276
     12          6           0       -2.817488   -1.140556    0.256984
     13          8           0       -1.516014   -0.840382   -0.269390
     14          6           0       -0.920681    0.376326    0.205076
     15          8           0        0.281096    0.466644   -0.574531
     16          6           0        1.590539    0.199447   -0.053377
     17          6           0        2.118076   -1.176677   -0.422901
     18          8           0        1.041377   -2.097163   -0.191229
     19          1           0        0.220997   -1.571571   -0.416617
     20          6           0        3.456363   -1.520869    0.209835
     21          8           0        3.968780   -2.817196   -0.129943
     22          1           0        4.928449   -2.878468    0.146539
     23          6           0        2.255448    2.653820   -0.069352
     24          8           0        1.060894    3.370496   -0.413065
     25          1           0        1.218501    4.358280   -0.437869
     26          6           0        2.682155    1.219068   -0.335813
     27          8           0        3.902536    0.921532    0.357507
     28          6           0        4.404727   -0.361448   -0.044587
     29          8           0        5.606979   -0.476681    0.731626
     30          1           0        6.352271   -0.630251    0.146342
     31          1           0        4.656374   -0.332600   -1.084174
     32          1           0        3.288942   -1.540850    1.266467
     33          1           0        2.283210   -1.164927   -1.480017
     34          1           0        1.475178    0.190156    1.010345
     35          1           0        2.898881    1.152825   -1.381538
     36          1           0        3.041956    3.241557   -0.494640
     37          1           0        2.318480    2.749834    0.994466
     38          1           0       -2.175587   -3.098746   -0.061676
     39          1           0       -3.157880   -2.462762   -1.319086
     40          1           0       -2.772783   -1.155626    1.325943
     41          1           0       -5.737251   -0.517638   -0.160357
     42          1           0       -3.951953   -0.129851   -1.249809
     43          1           0       -3.327135    1.309804    1.282494
     44          1           0       -1.752702    1.793811   -1.207899
     45          1           0       -0.724607    0.349766    1.256622
 ---------------------------------------------------------------------

 SCF Done:  E(RB3LYP) =  -1297.95267564     A.U. after   13 cycles

 The electronic state is 1-A.
 Alpha  occ. eigenvalues --  -19.19122 -19.18557 -19.18443 -19.18387 -19.17177
 Alpha  occ. eigenvalues --  -19.16862 -19.16563 -19.15482 -19.15333 -19.13683
 Alpha  occ. eigenvalues --  -19.13524 -10.31347 -10.30640 -10.26692 -10.25703
 Alpha  occ. eigenvalues --  -10.25321 -10.25316 -10.25135 -10.24518 -10.24291
 Alpha  occ. eigenvalues --  -10.24232 -10.23950 -10.23463  -1.10053  -1.09514
 Alpha  occ. eigenvalues --   -1.05144  -1.04920  -1.03970  -1.03724  -1.02948
 Alpha  occ. eigenvalues --   -1.02310  -1.01642  -1.00858  -1.00304  -0.82460
 Alpha  occ. eigenvalues --   -0.79879  -0.79736  -0.78187  -0.72167  -0.69778
 Alpha  occ. eigenvalues --   -0.67425  -0.65012  -0.63273  -0.62395  -0.61498
 Alpha  occ. eigenvalues --   -0.60116  -0.56514  -0.55836  -0.55281  -0.55051
 Alpha  occ. eigenvalues --   -0.53796  -0.53574  -0.52704  -0.51733  -0.51296
 Alpha  occ. eigenvalues --   -0.50752  -0.49967  -0.48964  -0.48121  -0.46934
 Alpha  occ. eigenvalues --   -0.46364  -0.45489  -0.44336  -0.43407  -0.43034
 Alpha  occ. eigenvalues --   -0.42516  -0.42066  -0.41287  -0.40173  -0.39744
 Alpha  occ. eigenvalues --   -0.38166  -0.38000  -0.37088  -0.35916  -0.35674
 Alpha  occ. eigenvalues --   -0.35397  -0.34157  -0.34046  -0.33573  -0.33237
 Alpha  occ. eigenvalues --   -0.33095  -0.31513  -0.31089  -0.30452  -0.30034
 Alpha  occ. eigenvalues --   -0.29065  -0.28426  -0.28072  -0.27269  -0.26419
 Alpha  occ. eigenvalues --   -0.26283
 Alpha virt. eigenvalues --   -0.02614  -0.02321  -0.01402  -0.00004   0.00190
 Alpha virt. eigenvalues --    0.01232   0.02085   0.02267   0.03054   0.03467
 Alpha virt. eigenvalues --    0.03677   0.03955   0.04491   0.05667   0.05738

 Mulliken atomic charges:
              1
     1  O   -0.542425
     2  C   -0.047765
     3  C    0.183019
     4  O   -0.586619
     5  H    0.346792
     6  C    0.064183
     7  O   -0.513961
     8  H    0.372966
     9  C   -0.300061
    10  O   -0.560504
    11  H    0.341128
    12  C    0.329302
    13  O   -0.225802
    14  C    0.136614
    15  O   -0.263366
    16  C    0.110344
    17  C    0.311898
    18  O   -0.573748
    19  H    0.399023
    20  C   -0.004831
    21  O   -0.536694
    22  H    0.334303
    23  C   -0.393062
    24  O   -0.578102
    25  H    0.366721
    26  C   -0.048668
    27  O   -0.237088
    28  C    0.154197
    29  O   -0.530071
    30  H    0.334879
    31  H    0.124508
    32  H    0.128247
    33  H    0.108844
    34  H    0.114215
    35  H    0.115805
    36  H    0.138693
    37  H    0.157057
    38  H    0.149175
    39  H    0.137593
    40  H    0.113464
    41  H    0.336601
    42  H    0.118512
    43  H    0.126227
    44  H    0.142192
    45  H    0.146263
 Sum of Mulliken atomic charges =   0.00000

 Dipole moment (field-independent basis, Debye):
    X=              2.7734    Y=              1.4446    Z=             -2.5593  Tot=              4.0409
 Quadrupole moment (field-independent basis, Debye-Ang):
   XX=           -115.5930   YY=           -134.0804   ZZ=           -140.8194
   XY=              9.7270   XZ=             -2.5345   YZ=             -3.5997

  Exact polarizability: 236.637  -2.813 198.452  -0.142  -0.118 144.094
 Approx polarizability: 277.330  -2.353 256.905  -0.672  -0.115 239.597

 ******    8 imaginary frequencies (negative Signs) ******

                     1                      2                      3
                     A                      A                      A
 Frequencies --  -381.2688              -312.4988              -221.6072
 Red. masses --     1.6256                 1.6745                 1.2211
 Frc consts  --     0.1392                 0.0963                 0.0353
 IR Inten    --     2.4081                 5.5164                96.5632
 Raman Activ --     0.0157                 0.0832                 0.7045

                     4                      5                      6
                     A                      A                      A
 Frequencies --  -202.4131               -71.6907               -62.7603
 Red. masses --     1.1689                 6.7294                 6.4045
 Frc consts  --     0.0282                 0.0204                 0.0149
 IR Inten    --   108.6997                 1.5710                 0.5840
 Raman Activ --     0.8344                 0.0208                 0.0498

                     7                      8                      9
                     A                      A                      A
 Frequencies --   -39.3133                -4.9873                63.8085
 Red. masses --     6.2019                 7.0222                 6.1413
 Frc consts  --     0.0056                 0.0001                 0.0147
 IR Inten    --     0.9958                 0.5341                 3.3298
 Raman Activ --     0.0219                 0.0590                 0.1828

                    10                     11                     12
                     A                      A                      A
 Frequencies --    78.5524                91.7803               111.6014
 Red. masses --     6.9733                 6.6798                 5.9615
 Frc consts  --     0.0254                 0.0332                 0.0437
 IR Inten    --     0.3670                 1.7591                 0.8913
 Raman Activ --     0.0395                 0.1222                 0.0598

                    13                     14                     15
                     A                      A                      A
 Frequencies --   149.5904               165.0844               173.1478
 Red. masses --     6.6164                 6.9158                 6.5210
 Frc consts  --     0.0872                 0.1110                 0.1152
 IR Inten    --     3.1593                 0.7064                 0.6752
 Raman Activ --     0.2845                 0.8440                 1.4995

                    16                     17                     18
                     A                      A                      A
 Frequencies --   189.7262               224.6922               250.5043
 Red. masses --     6.6826                 6.1967                 4.6473
 Frc consts  --     0.1417                 0.1843                 0.1718
 IR Inten    --     1.3797                 1.2891                19.8385
 Raman Activ --     0.5877                 0.5018                 0.5568

                    19                     20                     21
                     A                      A                      A
 Frequencies --   273.6968               286.2814               293.1942
 Red. masses --     4.9452                 4.8343                 5.5031
 Frc consts  --     0.2183                 0.2334                 0.2787
 IR Inten    --     0.8678                 2.9684                 3.3295
 Raman Activ --     0.2192                 0.1032                 0.4068

                    22                     23                     24
                     A                      A                      A
 Frequencies --   301.8215               304.9762               318.3261
 Red. masses --     5.9738                 4.7371                 4.8599
 Frc consts  --     0.3206                 0.2596                 0.2902
 IR Inten    --     1.6488                10.2406                 3.2253
 Raman Activ --     4.6360                 0.2703                 2.0966

                    25                     26                     27
                     A                      A                      A
 Frequencies --   327.5877               364.5503               371.9734
 Red. masses --     7.0028                 5.4149                 7.7029
 Frc consts  --     0.4428                 0.4240                 0.6280
 IR Inten    --     4.9170                 6.0500                 2.5124
 Raman Activ --     7.5302                 0.0553                 1.5822

                    28                     29                     30
                     A                      A                      A
 Frequencies --   397.9763               406.6950               430.7862
 Red. masses --     4.2115                 6.4731                 4.4026
 Frc consts  --     0.3930                 0.6308                 0.4814
 IR Inten    --    13.7827                 1.8545                 2.6022
 Raman Activ --     1.7460                 5.8452                 1.9155

                    31                     32                     33
                     A                      A                      A
 Frequencies --   437.8564               472.5616               477.5218
 Red. masses --     5.8958                 4.0780                 4.5065
 Frc consts  --     0.6660                 0.5366                 0.6054
 IR Inten    --     1.8681                 5.4599                13.2533
 Raman Activ --     1.7580                 3.0120                 0.1857

                    34                     35                     36
                     A                      A                      A
 Frequencies --   504.4049               528.9321               557.3195
 Red. masses --     4.1218                 3.3085                 4.2445
 Frc consts  --     0.6179                 0.5454                 0.7768
 IR Inten    --    11.1343                13.5958                16.6883
 Raman Activ --     3.7484                 3.2946                 1.5713

                    37                     38                     39
                     A                      A                      A
 Frequencies --   567.3047               587.8581               607.4700
 Red. masses --     2.8019                 3.4704                 3.7247
 Frc consts  --     0.5313                 0.7066                 0.8098
 IR Inten    --    43.0254                 9.5479                28.8593
 Raman Activ --     0.7993                 0.4140                 0.7380

                    40                     41                     42
                     A                      A                      A
 Frequencies --   629.6342               647.8470               652.4342
 Red. masses --     1.2613                 1.0856                 5.7933
 Frc consts  --     0.2946                 0.2684                 1.4529
 IR Inten    --    79.2340               123.9192                 7.4648
 Raman Activ --     2.0029                 1.2954                 0.6978

                    43                     44                     45
                     A                      A                      A
 Frequencies --   679.8128               702.1152               723.3973
 Red. masses --     4.8109                 1.0646                 1.0530
 Frc consts  --     1.3100                 0.3092                 0.3246
 IR Inten    --    11.3438                85.6533                97.3702
 Raman Activ --     1.6853                 1.9043                 1.7639

                    46                     47                     48
                     A                      A                      A
 Frequencies --   764.1285               827.7646               835.6051
 Red. masses --     1.1172                 1.1398                 1.7795
 Frc consts  --     0.3843                 0.4602                 0.7321
 IR Inten    --   157.9338                61.6770                 7.3192
 Raman Activ --     2.2275                 1.8413                 0.4651

                    49                     50                     51
                     A                      A                      A
 Frequencies --   851.1626               893.3249               952.3353
 Red. masses --     1.7502                 5.0592                 5.6448
 Frc consts  --     0.7471                 2.3788                 3.0163
 IR Inten    --     4.6320               144.2785                51.4740
 Raman Activ --     1.0645                 2.0683                 0.1224

                    52                     53                     54
                     A                      A                      A
 Frequencies --   960.9206               973.4193               986.1253
 Red. masses --     5.7223                 4.8138                 6.7494
 Frc consts  --     3.1131                 2.6874                 3.8671
 IR Inten    --    98.8661                30.9008               640.2480
 Raman Activ --     2.6359                 2.7313                 2.0683

                    55                     56                     57
                     A                      A                      A
 Frequencies --  1000.8163              1004.3302              1012.6209
 Red. masses --     7.0573                 6.5609                 6.0560
 Frc consts  --     4.1648                 3.8991                 3.6587
 IR Inten    --    48.4537                65.0052               169.8706
 Raman Activ --     5.1710                 1.8829                 3.3006

                    58                     59                     60
                     A                      A                      A
 Frequencies --  1030.9960              1049.4773              1058.3473
 Red. masses --     6.2724                 5.6831                 3.3572
 Frc consts  --     3.9282                 3.6879                 2.2155
 IR Inten    --   227.6891                30.7567                17.9685
 Raman Activ --     0.9620                 8.0681                11.8442

                    61                     62                     63
                     A                      A                      A
 Frequencies --  1063.9013              1076.3999              1079.7520
 Red. masses --     4.6296                 5.8308                 3.3858
 Frc consts  --     3.0874                 3.9804                 2.3257
 IR Inten    --    28.8898               178.7575                 8.3646
 Raman Activ --     1.1787                 3.0218                 9.2275

                    64                     65                     66
                     A                      A                      A
 Frequencies --  1089.1088              1109.2217              1114.9024
 Red. masses --     4.2425                 2.4006                 2.3941
 Frc consts  --     2.9649                 1.7402                 1.7533
 IR Inten    --    52.9383                34.9879                42.8550
 Raman Activ --    14.0046                 2.6061                 3.3839

                    67                     68                     69
                     A                      A                      A
 Frequencies --  1117.8973              1125.0454              1140.0570
 Red. masses --     2.7876                 2.3069                 4.4793
 Frc consts  --     2.0525                 1.7204                 3.4302
 IR Inten    --     7.3356                25.5575                19.9463
 Raman Activ --     4.0523                 3.8633                 7.8863

                    70                     71                     72
                     A                      A                      A
 Frequencies --  1142.4325              1146.1822              1163.1297
 Red. masses --     2.6621                 1.8560                 3.1934
 Frc consts  --     2.0471                 1.4366                 2.5454
 IR Inten    --    42.1884                22.7196                35.4364
 Raman Activ --    11.5539                 3.8621                 4.0327

                    73                     74                     75
                     A                      A                      A
 Frequencies --  1165.0676              1172.8174              1194.0611
 Red. masses --     1.6442                 1.4648                 1.2149
 Frc consts  --     1.3149                 1.1871                 1.0206
 IR Inten    --     2.3630                 1.7221                29.9585
 Raman Activ --     1.6770                 0.7553                 1.0338

                    76                     77                     78
                     A                      A                      A
 Frequencies --  1204.1789              1213.2173              1217.7956
 Red. masses --     2.0692                 1.4758                 1.3371
 Frc consts  --     1.7678                 1.2798                 1.1683
 IR Inten    --     9.3237                 4.1727                14.9021
 Raman Activ --     1.9398                 0.6450                 1.7358

                    79                     80                     81
                     A                      A                      A
 Frequencies --  1226.5297              1257.3632              1262.3149
 Red. masses --     1.1823                 1.2647                 1.2518
 Frc consts  --     1.0479                 1.1781                 1.1752
 IR Inten    --     1.7465                 2.7986                12.0171
 Raman Activ --     3.5722                 0.9405                 1.9340

                    82                     83                     84
                     A                      A                      A
 Frequencies --  1280.5595              1288.9879              1296.1234
 Red. masses --     1.2294                 1.3440                 1.2915
 Frc consts  --     1.1878                 1.3157                 1.2783
 IR Inten    --    27.5294                14.5949                 6.8767
 Raman Activ --     0.8128                 2.5715                 3.4635

                    85                     86                     87
                     A                      A                      A
 Frequencies --  1297.7774              1311.2428              1315.6513
 Red. masses --     1.2993                 1.2227                 1.3963
 Frc consts  --     1.2893                 1.2386                 1.4240
 IR Inten    --    52.5210                23.3403                18.2680
 Raman Activ --     5.0819                 7.7654                 2.6178

                    88                     89                     90
                     A                      A                      A
 Frequencies --  1332.1953              1333.2752              1338.6431
 Red. masses --     1.2858                 1.2158                 1.2152
 Frc consts  --     1.3445                 1.2733                 1.2830
 IR Inten    --    13.6314                22.0244                28.2661
 Raman Activ --     2.7322                 2.5473                12.1065

                    91                     92                     93
                     A                      A                      A
 Frequencies --  1346.2885              1351.5954              1355.1624
 Red. masses --     1.2782                 1.2282                 1.1092
 Frc consts  --     1.3650                 1.3219                 1.2002
 IR Inten    --    42.0212                13.4323                30.5013
 Raman Activ --     3.4059                 4.7832                 4.1275

                    94                     95                     96
                     A                      A                      A
 Frequencies --  1366.5854              1375.9837              1379.0142
 Red. masses --     1.5367                 1.2847                 1.2491
 Frc consts  --     1.6909                 1.4332                 1.3996
 IR Inten    --    10.3021                20.9673                19.5202
 Raman Activ --     6.4048                 4.1749                 1.3536

                    97                     98                     99
                     A                      A                      A
 Frequencies --  1388.5684              1393.8036              1408.6427
 Red. masses --     1.5859                 1.1863                 1.4519
 Frc consts  --     1.8016                 1.3579                 1.6974
 IR Inten    --     5.4169                 2.4884                15.1391
 Raman Activ --     2.9203                 8.8784                 2.1024

                   100                    101                    102
                     A                      A                      A
 Frequencies --  1422.2320              1424.4499              1444.8515
 Red. masses --     1.4936                 1.4667                 1.3050
 Frc consts  --     1.7800                 1.7534                 1.6051
 IR Inten    --    49.9705                 9.5451                14.5208
 Raman Activ --     0.6211                 2.4711                 2.1932

                   103                    104                    105
                     A                      A                      A
 Frequencies --  1457.6882              1465.9338              1478.0708
 Red. masses --     1.0882                 1.1060                 1.2871
 Frc consts  --     1.3623                 1.4003                 1.6567
 IR Inten    --    11.8295                 2.6125                19.5972
 Raman Activ --     4.6752                 3.1769                 0.7098

                   106                    107                    108
                     A                      A                      A
 Frequencies --  1491.9282              1513.6569              3249.1239
 Red. masses --     1.2974                 1.2042                 1.0583
 Frc consts  --     1.7015                 1.6256                 6.5828
 IR Inten    --    74.1840                33.8618                43.5169
 Raman Activ --     5.0643                 1.0437                78.9719

                   109                    110                    111
                     A                      A                      A
 Frequencies --  3251.6155              3255.9941              3256.3018
 Red. masses --     1.0813                 1.0595                 1.0785
 Frc consts  --     6.7358                 6.6181                 6.7380
 IR Inten    --    10.1369                21.1156                30.5953
 Raman Activ --     5.5810                64.7960               169.8774

                   112                    113                    114
                     A                      A                      A
 Frequencies --  3270.1879              3271.5535              3275.4182
 Red. masses --     1.0818                 1.0826                 1.0849
 Frc consts  --     6.8165                 6.8270                 6.8577
 IR Inten    --     8.8977                 8.8497                 2.1777
 Raman Activ --   119.4709                73.3979                25.0430

                   115                    116                    117
                     A                      A                      A
 Frequencies --  3279.6040              3290.6664              3295.2731
 Red. masses --     1.0830                 1.0870                 1.0879
 Frc consts  --     6.8628                 6.9349                 6.9603
 IR Inten    --    15.0279               104.9953                18.9320
 Raman Activ --    95.7707                 7.6329                10.5345

                   118                    119                    120
                     A                      A                      A
 Frequencies --  3303.2276              3305.9405              3309.6209
 Red. masses --     1.0861                 1.1027                 1.0995
 Frc consts  --     6.9823                 7.1007                 7.0958
 IR Inten    --    12.0709                49.5218                21.8746
 Raman Activ --    48.3699                57.0508                22.5667

                   121                    122                    123
                     A                      A                      A
 Frequencies --  3311.7542              3318.5282              3327.8076
 Red. masses --     1.0874                 1.0695                 1.0672
 Frc consts  --     7.0268                 6.9392                 6.9630
 IR Inten    --    95.1092               269.9310               593.0984
 Raman Activ --    12.5997               229.1471                95.3551

                   124                    125                    126
                     A                      A                      A
 Frequencies --  3362.7478              3363.6418              3365.6038
 Red. masses --     1.0681                 1.0660                 1.0658
 Frc consts  --     7.1163                 7.1063                 7.1129
 IR Inten    --    85.4641                30.6037                45.6207
 Raman Activ --   123.2549               148.9548               122.0406

                   127                    128                    129
                     A                      A                      A
 Frequencies --  3372.5741              3889.0121              3891.4702
 Red. masses --     1.0694                 1.0675                 1.0675
 Frc consts  --     7.1666                 9.5126                 9.5246
 IR Inten    --    61.1035                71.2368                74.9288
 Raman Activ --   154.3186                92.4351               116.0556

 - Thermochemistry -
 -------------------
 Temperature   298.150 Kelvin.  Pressure   1.00000 Atm.
 Atom     1 has atomic number  8 and mass  15.99491

 Molecular mass:   342.11621 amu.
 Principal axes and moments of inertia in atomic units:
                           1         2         3
     Eigenvalues --  4440.84447********************
           X            0.99998   0.00639  -0.00085
           Y           -0.00639   0.99998   0.00008
           Z            0.00085  -0.00007   1.00000
 This molecule is an asymmetric top.
 Rotational symmetry number  1.
 Warning -- assumption of classical behavior for rotation
           may cause significant error
 Rotational temperatures (Kelvin)      0.01950     0.00680     0.00517
 Rotational constants (GHZ):           0.40640     0.14169     0.10778
    8 imaginary frequencies ignored.
 Zero-point vibrational energy     972038.5 (Joules/Mol)
                                  232.32278 (Kcal/Mol)
 Warning -- explicit consideration of  31 degrees of freedom as
           vibrations may cause significant error
 Vibrational temperatures:     91.81   113.02   132.05   160.57   215.23
          (Kelvin)            237.52   249.12   272.97   323.28   360.42
                              393.79   411.89   421.84   434.25   438.79
                              458.00   471.33   524.51   535.19   572.60
                              585.14   619.80   629.98   679.91   687.05
                              725.73   761.01   801.86   816.22   845.80
                              874.01   905.90   932.11   938.71   978.10
                             1010.19  1040.81  1099.41  1190.97  1202.25
                             1224.63  1285.29  1370.20  1382.55  1400.53
                             1418.81  1439.95  1445.01  1456.93  1483.37
                             1509.96  1522.72  1530.71  1548.70  1553.52
                             1566.98  1595.92  1604.09  1608.40  1618.69
                             1640.29  1643.70  1649.10  1673.48  1676.27
                             1687.42  1717.99  1732.54  1745.55  1752.13
                             1764.70  1809.06  1816.19  1842.44  1854.56
                             1864.83  1867.21  1886.58  1892.93  1916.73
                             1918.28  1926.01  1937.01  1944.64  1949.77
                             1966.21  1979.73  1984.09  1997.84  2005.37
                             2026.72  2046.27  2049.46  2078.82  2097.29
                             2109.15  2126.61  2146.55  2177.81  4674.76
                             4678.34  4684.64  4685.09  4705.07  4707.03
                             4712.59  4718.61  4734.53  4741.16  4752.60
                             4756.51  4761.80  4764.87  4774.62  4787.97
                             4838.24  4839.52  4842.35  4852.38  5595.41
                             5598.95

 Zero-point correction=                           0.370230 (Hartree/Particle)
 Thermal correction to Energy=                    0.388060
 Thermal correction to Enthalpy=                  0.389004
 Thermal correction to Gibbs Free Energy=         0.325822
 Sum of electronic and zero-point Energies=          -1297.582446
 Sum of electronic and thermal Energies=             -1297.564616
 Sum of electronic and thermal Enthalpies=           -1297.563672
 Sum of electronic and thermal Free Energies=        -1297.626854

                     E (Thermal)             CV                S
                      KCal/Mol        Cal/Mol-Kelvin    Cal/Mol-Kelvin
 Total                  243.511             74.787            132.978
 Electronic               0.000              0.000              0.000
 Translational            0.889              2.981             43.384
 Rotational               0.889              2.981             35.203
 Vibrational            241.734             68.825             54.391
 Vibration     1          0.597              1.972              4.336
 Vibration     2          0.600              1.964              3.927
 Vibration     3          0.602              1.955              3.622
 Vibration     4          0.607              1.940              3.241
 Vibration     5          0.618              1.903              2.677
 Vibration     6          0.623              1.885              2.491
 Vibration     7          0.627              1.876              2.401
 Vibration     8          0.633              1.854              2.231
 Vibration     9          0.649              1.803              1.921
 Vibration    10          0.663              1.762              1.727
 Vibration    11          0.676              1.722              1.573
 Vibration    12          0.684              1.699              1.496
 Vibration    13          0.688              1.686              1.455
 Vibration    14          0.694              1.670              1.407
 Vibration    15          0.696              1.664              1.389
 Vibration    16          0.705              1.639              1.319
 Vibration    17          0.711              1.620              1.272
 Vibration    18          0.738              1.545              1.103
 Vibration    19          0.744              1.530              1.072
 Vibration    20          0.764              1.474              0.970
 Vibration    21          0.771              1.456              0.938
 Vibration    22          0.792              1.403              0.856
 Vibration    23          0.798              1.388              0.833
 Vibration    24          0.829              1.311              0.730
 Vibration    25          0.834              1.300              0.717
 Vibration    26          0.860              1.240              0.647
 Vibration    27          0.884              1.186              0.590
 Vibration    28          0.913              1.124              0.529
 Vibration    29          0.923              1.102              0.509
 Vibration    30          0.945              1.058              0.471
 Vibration    31          0.966              1.016              0.437

 Normal termination of Gaussian 09 at Fri Apr  1 09:20:24 2016.
