 Gaussian 09, Revision B.01,
 Gaussian 09:  EM64L-G09RevB.01 12-Aug-2010

 ------------------------------------------------
 # freq=raman b3lyp/6-31+g(d,p) geom=connectivity
 ------------------------------------------------

 ------------
 310 6000.com
 ------------
 Symbolic Z-matrix:
 Charge =  0 Multiplicity = 1

                         Standard orientation:
 ---------------------------------------------------------------------
 Center     Atomic      Atomic             Coordinates (Angstroms)
 Number     Number       Type             X           Y           Z
 ---------------------------------------------------------------------
      1          8           0       -5.035446   -0.441823    0.392340
      2          6           0       -3.766212   -0.055722   -0.155361
      3          6           0       -3.295801    1.323537    0.277760
      4          8           0       -4.154721    2.396382   -0.136717
      5          1           0       -5.069803    2.172157    0.199328
      6          6           0       -1.870730    1.598448   -0.173398
      7          8           0       -1.252381    2.841011    0.191779
      8          1           0       -0.318084    2.889245   -0.161605
      9          6           0       -2.966454   -2.528151   -0.344763
     10          8           0       -4.004170   -3.371558    0.175005
     11          1           0       -3.891083   -4.270994   -0.248422
     12          6           0       -2.804760   -1.150581    0.277358
     13          8           0       -1.469927   -0.786789   -0.102227
     14          6           0       -0.945304    0.488016    0.297079
     15          8           0        0.251250    0.485826   -0.495245
     16          6           0        1.475147    0.225603    0.206743
     17          6           0        1.971016   -1.142419   -0.230725
     18          8           0        0.913655   -2.092758   -0.034358
     19          1           0        0.082207   -1.664363   -0.390409
     20          6           0        3.346612   -1.508769    0.301552
     21          8           0        3.625008   -2.754815   -0.354483
     22          1           0        4.508803   -3.044605    0.012039
     23          6           0        2.479883    2.587254    0.125395
     24          8           0        1.287811    3.220887   -0.360403
     25          1           0        1.533087    4.190098   -0.321090
     26          6           0        2.594932    1.127998   -0.286007
     27          8           0        3.937127    0.885964    0.161808
     28          6           0        4.351588   -0.455150   -0.135098
     29          8           0        5.542773   -0.686229    0.630014
     30          1           0        6.284691   -0.817785    0.035160
     31          1           0       -5.647612   -0.632521   -0.322143
     32          1           0       -2.037509   -3.047482   -0.234054
     33          1           0       -3.147428   -2.394773   -1.390879
     34          1           0       -2.848267   -1.245730    1.342231
     35          1           0       -3.838618   -0.068817   -1.222828
     36          1           0       -3.290013    1.326468    1.347740
     37          1           0       -1.878895    1.564181   -1.242818
     38          1           0       -0.740086    0.534627    1.346180
     39          1           0        3.328640    3.117957   -0.252583
     40          1           0        2.594516    1.086773   -1.355212
     41          1           0        1.351772    0.283590    1.268023
     42          1           0        2.487153    2.643821    1.193874
     43          1           0        2.094217   -1.074051   -1.291407
     44          1           0        3.334815   -1.622595    1.365415
     45          1           0        4.560155   -0.554366   -1.179873
 ---------------------------------------------------------------------

 SCF Done:  E(RB3LYP) =  -1297.94350235     A.U. after   13 cycles

 The electronic state is 1-A.
 Alpha  occ. eigenvalues --  -19.19657 -19.19262 -19.19115 -19.19110 -19.18220
 Alpha  occ. eigenvalues --  -19.17677 -19.17384 -19.16719 -19.16537 -19.13594
 Alpha  occ. eigenvalues --  -19.13537 -10.31225 -10.30876 -10.26085 -10.25939
 Alpha  occ. eigenvalues --  -10.25621 -10.25586 -10.25417 -10.25214 -10.25073
 Alpha  occ. eigenvalues --  -10.24437 -10.24168 -10.23901  -1.10164  -1.09393
 Alpha  occ. eigenvalues --   -1.05879  -1.05230  -1.04020  -1.03714  -1.03096
 Alpha  occ. eigenvalues --   -1.02413  -1.02199  -1.00051  -0.99468  -0.82451
 Alpha  occ. eigenvalues --   -0.80181  -0.79367  -0.78538  -0.71694  -0.69681
 Alpha  occ. eigenvalues --   -0.67438  -0.65051  -0.63023  -0.62561  -0.61392
 Alpha  occ. eigenvalues --   -0.60107  -0.56602  -0.56212  -0.55157  -0.54630
 Alpha  occ. eigenvalues --   -0.53907  -0.53254  -0.53044  -0.51564  -0.51136
 Alpha  occ. eigenvalues --   -0.50611  -0.49990  -0.49638  -0.48179  -0.46963
 Alpha  occ. eigenvalues --   -0.45314  -0.44995  -0.44389  -0.44008  -0.43053
 Alpha  occ. eigenvalues --   -0.42509  -0.41513  -0.40938  -0.40521  -0.39384
 Alpha  occ. eigenvalues --   -0.38616  -0.38240  -0.37886  -0.36364  -0.36167
 Alpha  occ. eigenvalues --   -0.36003  -0.35430  -0.34775  -0.33325  -0.33113
 Alpha  occ. eigenvalues --   -0.32516  -0.31522  -0.30910  -0.30579  -0.29690
 Alpha  occ. eigenvalues --   -0.29256  -0.28615  -0.28355  -0.27370  -0.26258
 Alpha  occ. eigenvalues --   -0.25801
 Alpha virt. eigenvalues --   -0.02023  -0.01874  -0.01670  -0.00060   0.00294
 Alpha virt. eigenvalues --    0.00887   0.01715   0.02138   0.02842   0.03303
 Alpha virt. eigenvalues --    0.03781   0.04332   0.04890   0.05343   0.05787

 Mulliken atomic charges:
              1
     1  O   -0.518369
     2  C   -0.079055
     3  C    0.176289
     4  O   -0.488959
     5  H    0.351402
     6  C   -0.196820
     7  O   -0.559528
     8  H    0.462077
     9  C   -0.058546
    10  O   -0.529004
    11  H    0.349661
    12  C    0.045755
    13  O   -0.410514
    14  C    0.339977
    15  O   -0.349086
    16  C    0.180236
    17  C   -0.197518
    18  O   -0.522526
    19  H    0.418174
    20  C    0.203346
    21  O   -0.482408
    22  H    0.342378
    23  C   -0.037259
    24  O   -0.608419
    25  H    0.385630
    26  C   -0.215301
    27  O   -0.291060
    28  C    0.192630
    29  O   -0.550133
    30  H    0.361272
    31  H    0.362948
    32  H    0.151041
    33  H    0.124904
    34  H    0.141978
    35  H    0.128891
    36  H    0.128690
    37  H    0.139697
    38  H    0.126961
    39  H    0.139255
    40  H    0.140267
    41  H    0.129179
    42  H    0.152179
    43  H    0.129166
    44  H    0.153466
    45  H    0.137057
 Sum of Mulliken atomic charges =   0.00000

 Dipole moment (field-independent basis, Debye):
    X=              2.9962    Y=              0.0845    Z=             -2.1849  Tot=              3.7092
 Quadrupole moment (field-independent basis, Debye-Ang):
   XX=           -114.6817   YY=           -139.7821   ZZ=           -137.9426
   XY=             11.7153   XZ=              1.9592   YZ=              4.2622

  Exact polarizability: 229.304  -0.105 192.439   0.831   1.460 140.945
 Approx polarizability: 266.200   2.254 247.358   1.333   2.043 230.307

 ******    8 imaginary frequencies (negative Signs) ******

                     1                      2                      3
                     A                      A                      A
 Frequencies --  -310.1287              -260.0984              -239.6807
 Red. masses --     1.2003                 1.6854                 1.1787
 Frc consts  --     0.0680                 0.0672                 0.0399
 IR Inten    --   107.4573                10.3440               114.5149
 Raman Activ --     0.9225                 0.3055                 1.2022

                     4                      5                      6
                     A                      A                      A
 Frequencies --  -216.9034               -91.0541               -68.8884
 Red. masses --     1.9548                 6.8976                 6.2774
 Frc consts  --     0.0542                 0.0337                 0.0176
 IR Inten    --     1.2785                 0.3886                 1.6785
 Raman Activ --     0.0743                 0.0513                 0.0120

                     7                      8                      9
                     A                      A                      A
 Frequencies --   -50.8037               -31.6675                27.6118
 Red. masses --     6.1596                 6.1692                 6.2788
 Frc consts  --     0.0094                 0.0036                 0.0028
 IR Inten    --     0.7088                 0.7393                 0.4175
 Raman Activ --     0.0212                 0.0345                 0.0330

                    10                     11                     12
                     A                      A                      A
 Frequencies --    74.2328                83.9159               106.9655
 Red. masses --     6.4057                 6.7566                 5.5587
 Frc consts  --     0.0208                 0.0280                 0.0375
 IR Inten    --     1.7427                 0.7286                 1.2515
 Raman Activ --     0.1365                 0.1327                 0.0803

                    13                     14                     15
                     A                      A                      A
 Frequencies --   160.2011               173.6791               182.6400
 Red. masses --     6.1817                 5.5470                 7.9793
 Frc consts  --     0.0935                 0.0986                 0.1568
 IR Inten    --     2.9281                 3.0400                 2.6510
 Raman Activ --     0.3466                 0.1707                 0.8018

                    16                     17                     18
                     A                      A                      A
 Frequencies --   212.4801               234.9880               248.1120
 Red. masses --     7.3123                 5.5168                 4.4854
 Frc consts  --     0.1945                 0.1795                 0.1627
 IR Inten    --     0.1252                 2.1065                20.0219
 Raman Activ --     3.0393                 0.0615                 0.2933

                    19                     20                     21
                     A                      A                      A
 Frequencies --   259.5945               275.8868               304.8739
 Red. masses --     4.8529                 4.8771                 4.9559
 Frc consts  --     0.1927                 0.2187                 0.2714
 IR Inten    --     1.3289                 2.6393                 3.7510
 Raman Activ --     0.1390                 0.1555                 0.1545

                    22                     23                     24
                     A                      A                      A
 Frequencies --   319.5871               325.3128               331.5916
 Red. masses --     5.6036                 4.7683                 5.9831
 Frc consts  --     0.3372                 0.2973                 0.3876
 IR Inten    --     0.5032                 2.2311                 1.9861
 Raman Activ --     2.7741                 0.8626                 2.4629

                    25                     26                     27
                     A                      A                      A
 Frequencies --   359.7725               362.3013               387.8905
 Red. masses --     6.1733                 4.8987                 6.5832
 Frc consts  --     0.4708                 0.3788                 0.5836
 IR Inten    --    12.0494                 1.4405                 1.6790
 Raman Activ --     1.5434                 1.8990                 1.1136

                    28                     29                     30
                     A                      A                      A
 Frequencies --   402.6177               421.0739               431.3041
 Red. masses --     4.3124                 5.6540                 6.9543
 Frc consts  --     0.4119                 0.5906                 0.7622
 IR Inten    --    13.3788                 2.3090                 0.1743
 Raman Activ --     2.0606                 9.2104                 1.6961

                    31                     32                     33
                     A                      A                      A
 Frequencies --   445.6170               475.9951               487.3596
 Red. masses --     4.5689                 4.6196                 3.3940
 Frc consts  --     0.5345                 0.6167                 0.4750
 IR Inten    --     1.7972                 3.3413                16.1102
 Raman Activ --     1.5285                 2.5155                 1.1419

                    34                     35                     36
                     A                      A                      A
 Frequencies --   512.6530               519.6310               571.8267
 Red. masses --     3.2665                 4.1259                 3.5266
 Frc consts  --     0.5058                 0.6564                 0.6794
 IR Inten    --     1.8710                13.6576                34.4281
 Raman Activ --     4.9444                 1.2734                 1.5171

                    37                     38                     39
                     A                      A                      A
 Frequencies --   598.7388               610.3748               631.6151
 Red. masses --     3.1722                 6.0033                 5.1920
 Frc consts  --     0.6700                 1.3177                 1.2204
 IR Inten    --    32.3744                13.8098                37.0757
 Raman Activ --     0.4272                 0.6184                 0.8334

                    40                     41                     42
                     A                      A                      A
 Frequencies --   642.7168               697.0951               702.2359
 Red. masses --     3.9576                 4.9004                 1.0961
 Frc consts  --     0.9632                 1.4030                 0.3185
 IR Inten    --    20.3380                12.4796               110.8233
 Raman Activ --     1.1240                 1.3652                 1.8477

                    43                     44                     45
                     A                      A                      A
 Frequencies --   733.8327               735.8181               748.8792
 Red. masses --     1.1068                 1.0768                 1.0995
 Frc consts  --     0.3512                 0.3435                 0.3633
 IR Inten    --    93.7420               116.9526               114.0656
 Raman Activ --     1.8398                 2.1162                 1.9117

                    46                     47                     48
                     A                      A                      A
 Frequencies --   798.0353               810.0755               852.3086
 Red. masses --     1.1018                 1.0607                 1.8240
 Frc consts  --     0.4134                 0.4101                 0.7807
 IR Inten    --   157.8160                77.0588                 2.4030
 Raman Activ --     3.7931                 1.8314                 0.9951

                    49                     50                     51
                     A                      A                      A
 Frequencies --   872.8211               927.6636               967.4157
 Red. masses --     1.6183                 5.4112                 5.3419
 Frc consts  --     0.7264                 2.7436                 2.9456
 IR Inten    --     4.2405                87.4067                93.6804
 Raman Activ --     1.0062                 2.0139                 0.6658

                    52                     53                     54
                     A                      A                      A
 Frequencies --   983.9739               988.6858               996.2310
 Red. masses --     6.1085                 4.2752                 3.9993
 Frc consts  --     3.4846                 2.4622                 2.3386
 IR Inten    --    92.8324                30.2464                37.1724
 Raman Activ --     1.7146                 1.3397                 4.0404

                    55                     56                     57
                     A                      A                      A
 Frequencies --  1017.3211              1023.2041              1034.9075
 Red. masses --     6.2451                 4.6465                 6.5459
 Frc consts  --     3.8081                 2.8662                 4.1307
 IR Inten    --    39.3686               354.4992                85.9700
 Raman Activ --     3.7304                 2.1377                 2.1537

                    58                     59                     60
                     A                      A                      A
 Frequencies --  1051.7769              1065.9788              1076.3141
 Red. masses --     3.0184                 4.0302                 3.3841
 Frc consts  --     1.9673                 2.6982                 2.3098
 IR Inten    --   178.0166               274.7708                17.2041
 Raman Activ --     4.6294                 8.0564                 3.4151

                    61                     62                     63
                     A                      A                      A
 Frequencies --  1078.7468              1089.1438              1097.9249
 Red. masses --     3.1589                 4.3738                 2.7736
 Frc consts  --     2.1658                 3.0569                 1.9699
 IR Inten    --    56.2449                53.3010               130.1665
 Raman Activ --    11.9620                 1.1969                 5.0526

                    64                     65                     66
                     A                      A                      A
 Frequencies --  1100.3098              1102.7677              1116.0314
 Red. masses --     3.9587                 2.6928                 2.7879
 Frc consts  --     2.8238                 1.9294                 2.0459
 IR Inten    --    37.0466                31.5442                 9.1235
 Raman Activ --     4.2142                19.7885                 7.8795

                    67                     68                     69
                     A                      A                      A
 Frequencies --  1119.1949              1122.9133              1135.3499
 Red. masses --     2.4635                 2.7426                 2.2729
 Frc consts  --     1.8180                 2.0375                 1.7262
 IR Inten    --   147.3446                36.8996                76.2893
 Raman Activ --     4.0862                 1.8173                 6.4276

                    70                     71                     72
                     A                      A                      A
 Frequencies --  1142.1178              1150.8708              1155.4057
 Red. masses --     2.8510                 3.1534                 1.8256
 Frc consts  --     2.1911                 2.4608                 1.4359
 IR Inten    --    44.8974                 0.3520                29.8014
 Raman Activ --     2.0012                 6.9903                 6.2039

                    73                     74                     75
                     A                      A                      A
 Frequencies --  1164.4350              1173.2714              1182.8908
 Red. masses --     1.7406                 1.7309                 1.7145
 Frc consts  --     1.3905                 1.4039                 1.4134
 IR Inten    --     8.7355                17.6487                15.7598
 Raman Activ --     1.2668                 3.0616                 1.6700

                    76                     77                     78
                     A                      A                      A
 Frequencies --  1203.0743              1205.1799              1218.8852
 Red. masses --     1.4584                 1.5402                 1.2374
 Frc consts  --     1.2437                 1.3180                 1.0831
 IR Inten    --     3.8476                14.3766                 7.0023
 Raman Activ --     1.0227                 3.1261                 1.6099

                    79                     80                     81
                     A                      A                      A
 Frequencies --  1232.6079              1240.5589              1249.0587
 Red. masses --     1.4074                 1.3767                 1.2436
 Frc consts  --     1.2599                 1.2483                 1.1431
 IR Inten    --    10.7636                19.2073                10.1227
 Raman Activ --     2.7294                 1.8058                 0.5365

                    82                     83                     84
                     A                      A                      A
 Frequencies --  1267.3933              1268.1958              1281.3809
 Red. masses --     1.2421                 1.2730                 1.2646
 Frc consts  --     1.1755                 1.2063                 1.2234
 IR Inten    --     7.3162                 6.6875                11.8878
 Raman Activ --     2.7143                 6.0470                 1.1379

                    85                     86                     87
                     A                      A                      A
 Frequencies --  1285.7123              1287.5547              1299.5534
 Red. masses --     1.2356                 1.3060                 1.3341
 Frc consts  --     1.2034                 1.2756                 1.3275
 IR Inten    --     8.8128                19.4758                10.3062
 Raman Activ --     4.4761                 2.2620                 4.9159

                    88                     89                     90
                     A                      A                      A
 Frequencies --  1314.3716              1325.1769              1330.6951
 Red. masses --     1.3574                 1.3241                 1.1680
 Frc consts  --     1.3817                 1.3700                 1.2186
 IR Inten    --    11.8900                30.9160                58.4587
 Raman Activ --     2.7507                 2.0613                 6.5458

                    91                     92                     93
                     A                      A                      A
 Frequencies --  1338.7802              1342.3821              1354.6449
 Red. masses --     1.2980                 1.2473                 1.2379
 Frc consts  --     1.3707                 1.3243                 1.3384
 IR Inten    --    18.4379                14.5086                55.0968
 Raman Activ --    10.3706                 3.2376                 2.3990

                    94                     95                     96
                     A                      A                      A
 Frequencies --  1358.5363              1371.8357              1376.3919
 Red. masses --     1.5141                 1.1675                 1.6467
 Frc consts  --     1.6465                 1.2945                 1.8381
 IR Inten    --     4.8221                26.6446                29.4787
 Raman Activ --    11.4649                 2.4083                 6.4947

                    97                     98                     99
                     A                      A                      A
 Frequencies --  1378.7641              1387.7267              1402.5282
 Red. masses --     1.5599                 1.4269                 1.4896
 Frc consts  --     1.7471                 1.6191                 1.7265
 IR Inten    --    17.8415                 1.1822                 1.7398
 Raman Activ --     7.9880                 4.3553                 5.5075

                   100                    101                    102
                     A                      A                      A
 Frequencies --  1430.5833              1436.5240              1462.2578
 Red. masses --     1.3552                 1.3654                 1.4891
 Frc consts  --     1.6341                 1.6601                 1.8760
 IR Inten    --    43.3969                24.7176                33.6461
 Raman Activ --     1.0248                 2.7923                 2.1224

                   103                    104                    105
                     A                      A                      A
 Frequencies --  1467.1545              1481.2960              1483.6743
 Red. masses --     1.4140                 1.0903                 1.0763
 Frc consts  --     1.7933                 1.4096                 1.3959
 IR Inten    --    17.1584                 5.0399                 4.8242
 Raman Activ --     1.8715                 4.1092                 6.3419

                   106                    107                    108
                     A                      A                      A
 Frequencies --  1497.2707              1500.6595              3265.0145
 Red. masses --     1.3427                 1.3133                 1.0673
 Frc consts  --     1.7735                 1.7425                 6.7035
 IR Inten    --    44.4186                33.3170               565.5449
 Raman Activ --     3.7846                 0.2460                81.7098

                   109                    110                    111
                     A                      A                      A
 Frequencies --  3266.8632              3271.2758              3276.5049
 Red. masses --     1.0585                 1.0817                 1.0704
 Frc consts  --     6.6559                 6.8201                 6.7705
 IR Inten    --    32.3045               147.0230                18.3846
 Raman Activ --    74.7193                11.3852               302.5694

                   112                    113                    114
                     A                      A                      A
 Frequencies --  3280.6017              3289.7290              3290.9052
 Red. masses --     1.0726                 1.0833                 1.0832
 Frc consts  --     6.8014                 6.9077                 6.9118
 IR Inten    --   178.4176                38.8137                29.0607
 Raman Activ --    93.9782                60.4995                28.6110

                   115                    116                    117
                     A                      A                      A
 Frequencies --  3296.0581              3302.9130              3306.8866
 Red. masses --     1.0836                 1.0863                 1.0873
 Frc consts  --     6.9363                 6.9822                 7.0055
 IR Inten    --    11.1775                20.8011                54.3478
 Raman Activ --   108.8456               138.5886                12.1547

                   118                    119                    120
                     A                      A                      A
 Frequencies --  3310.3319              3315.4541              3319.1630
 Red. masses --     1.0873                 1.0780                 1.0846
 Frc consts  --     7.0202                 6.9818                 7.0403
 IR Inten    --    16.2463               303.7414               117.4416
 Raman Activ --     4.2338                30.8770                15.5546

                   121                    122                    123
                     A                      A                      A
 Frequencies --  3324.0338              3326.0026              3336.5624
 Red. masses --     1.0824                 1.1019                 1.1090
 Frc consts  --     7.0466                 7.1821                 7.2738
 IR Inten    --   259.4775               133.4547                48.5809
 Raman Activ --    88.9284                69.9448                45.2712

                   124                    125                    126
                     A                      A                      A
 Frequencies --  3383.8560              3388.0636              3390.3834
 Red. masses --     1.0670                 1.0659                 1.0664
 Frc consts  --     7.1982                 7.2086                 7.2224
 IR Inten    --    38.9150                30.2599                49.6894
 Raman Activ --   152.4191               132.1133               137.6809

                   127                    128                    129
                     A                      A                      A
 Frequencies --  3393.1012              3919.5809              3919.9509
 Red. masses --     1.0655                 1.0678                 1.0676
 Frc consts  --     7.2277                 9.6651                 9.6656
 IR Inten    --    18.0887                82.2300                57.8721
 Raman Activ --   160.4339                75.5003               142.2205

 - Thermochemistry -
 -------------------
 Temperature   298.150 Kelvin.  Pressure   1.00000 Atm.
 Atom     1 has atomic number  8 and mass  15.99491

 Molecular mass:   342.11621 amu.
 Principal axes and moments of inertia in atomic units:
                           1         2         3
     Eigenvalues --  4428.36122********************
           X            0.99998   0.00702   0.00032
           Y           -0.00702   0.99997   0.00397
           Z           -0.00029  -0.00397   0.99999
 This molecule is an asymmetric top.
 Rotational symmetry number  1.
 Warning -- assumption of classical behavior for rotation
           may cause significant error
 Rotational temperatures (Kelvin)      0.01956     0.00707     0.00530
 Rotational constants (GHZ):           0.40754     0.14735     0.11051
    8 imaginary frequencies ignored.
 Zero-point vibrational energy     977664.6 (Joules/Mol)
                                  233.66744 (Kcal/Mol)
 Warning -- explicit consideration of  30 degrees of freedom as
           vibrations may cause significant error
 Vibrational temperatures:     39.73   106.80   120.74   153.90   230.49
          (Kelvin)            249.89   262.78   305.71   338.09   356.98
                              373.50   396.94   438.64   459.81   468.05
                              477.09   517.63   521.27   558.09   579.28
                              605.83   620.55   641.14   684.85   701.20
                              737.59   747.63   822.73   861.45   878.19
                              908.75   924.73  1002.96  1010.36  1055.82
                             1058.68  1077.47  1148.19  1165.52  1226.28
                             1255.79  1334.70  1391.89  1415.72  1422.50
                             1433.35  1463.70  1472.16  1489.00  1513.27
                             1533.70  1548.57  1552.07  1567.03  1579.67
                             1583.10  1586.63  1605.72  1610.27  1615.62
                             1633.51  1643.25  1655.84  1662.37  1675.36
                             1688.07  1701.91  1730.95  1733.98  1753.70
                             1773.45  1784.89  1797.11  1823.49  1824.65
                             1843.62  1849.85  1852.50  1869.77  1891.09
                             1906.63  1914.57  1926.20  1931.39  1949.03
                             1954.63  1973.76  1980.32  1983.73  1996.63
                             2017.92  2058.29  2066.84  2103.86  2110.91
                             2131.25  2134.67  2154.24  2159.11  4697.62
                             4700.28  4706.63  4714.15  4720.05  4733.18
                             4734.87  4742.29  4752.15  4757.87  4762.82
                             4770.19  4775.53  4782.54  4785.37  4800.56
                             4868.61  4874.66  4878.00  4881.91  5639.40
                             5639.93

 Zero-point correction=                           0.372373 (Hartree/Particle)
 Thermal correction to Energy=                    0.389901
 Thermal correction to Enthalpy=                  0.390845
 Thermal correction to Gibbs Free Energy=         0.327518
 Sum of electronic and zero-point Energies=          -1297.571130
 Sum of electronic and thermal Energies=             -1297.553601
 Sum of electronic and thermal Enthalpies=           -1297.552657
 Sum of electronic and thermal Free Energies=        -1297.615984

                     E (Thermal)             CV                S
                      KCal/Mol        Cal/Mol-Kelvin    Cal/Mol-Kelvin
 Total                  244.667             73.576            133.283
 Electronic               0.000              0.000              0.000
 Translational            0.889              2.981             43.384
 Rotational               0.889              2.981             35.137
 Vibrational            242.889             67.614             54.762
 Vibration     1          0.593              1.984              5.994
 Vibration     2          0.599              1.966              4.038
 Vibration     3          0.601              1.960              3.797
 Vibration     4          0.606              1.944              3.323
 Vibration     5          0.622              1.891              2.547
 Vibration     6          0.627              1.875              2.395
 Vibration     7          0.630              1.863              2.301
 Vibration     8          0.644              1.822              2.022
 Vibration     9          0.655              1.787              1.841
 Vibration    10          0.662              1.766              1.744
 Vibration    11          0.668              1.747              1.665
 Vibration    12          0.678              1.718              1.559
 Vibration    13          0.696              1.664              1.390
 Vibration    14          0.706              1.636              1.312
 Vibration    15          0.709              1.625              1.283
 Vibration    16          0.714              1.612              1.252
 Vibration    17          0.734              1.555              1.123
 Vibration    18          0.736              1.550              1.112
 Vibration    19          0.756              1.496              1.008
 Vibration    20          0.768              1.464              0.953
 Vibration    21          0.784              1.424              0.888
 Vibration    22          0.792              1.402              0.854
 Vibration    23          0.805              1.371              0.809
 Vibration    24          0.833              1.303              0.721
 Vibration    25          0.843              1.278              0.690
 Vibration    26          0.868              1.222              0.627
 Vibration    27          0.875              1.207              0.611
 Vibration    28          0.928              1.092              0.501
 Vibration    29          0.957              1.034              0.452
 Vibration    30          0.969              1.010              0.432

 Normal termination of Gaussian 09 at Thu Jan 21 05:03:06 2016.
