 Gaussian 09, Revision B.01,
 Gaussian 09:  EM64L-G09RevB.01 12-Aug-2010

 -------------------------------------------------
 # freq=raman b3lyp/6-31+g(2d,p) geom=connectivity
 -------------------------------------------------

 -----------------
 350 6692/6692.com
 -----------------
 Symbolic Z-matrix:
 Charge =  0 Multiplicity = 1

                         Standard orientation:
 ---------------------------------------------------------------------
 Center     Atomic      Atomic             Coordinates (Angstroms)
 Number     Number       Type             X           Y           Z
 ---------------------------------------------------------------------
      1          8           0        4.982662   -0.405314   -0.550252
      2          6           0        3.802915   -0.117085    0.213914
      3          6           0        3.251897    1.210922   -0.280515
      4          8           0        4.180550    2.275151   -0.027972
      5          1           0        4.884728    1.969292   -0.669219
      6          6           0        1.856672    1.539017    0.225371
      7          8           0        1.345234    2.798484   -0.234817
      8          1           0        0.436697    2.897030    0.171305
      9          6           0        3.089906   -2.475170    0.197633
     10          8           0        4.307156   -3.147652   -0.156197
     11          1           0        4.102067   -4.115623   -0.009843
     12          6           0        2.751262   -1.082874   -0.309836
     13          8           0        1.465248   -0.831287    0.273892
     14          6           0        0.868268    0.425432   -0.080442
     15          8           0       -0.316522    0.460936    0.728421
     16          6           0       -1.526437    0.155228    0.020419
     17          6           0       -2.056189   -1.203190    0.452791
     18          8           0       -1.023854   -2.190620    0.321445
     19          1           0       -0.071477   -1.903622    0.422309
     20          6           0       -3.364386   -1.540569   -0.243054
     21          8           0       -3.954198   -2.797302    0.119369
     22          1           0       -4.899588   -2.840918   -0.204848
     23          6           0       -2.343328    2.631489   -0.133292
     24          8           0       -1.260668    3.365613    0.457691
     25          1           0       -1.297060    4.359340    0.349399
     26          6           0       -2.616741    1.187854    0.257320
     27          8           0       -3.801501    0.860466   -0.483440
     28          6           0       -4.326281   -0.386811   -0.005538
     29          8           0       -5.555435   -0.582647   -0.719462
     30          1           0       -6.266222   -0.743835   -0.094641
     31          1           0       -3.238680    3.182990    0.064420
     32          1           0       -2.187474    2.643995   -1.191807
     33          1           0       -2.861823    1.170325    1.298727
     34          1           0       -1.309939    0.120731   -1.026881
     35          1           0       -2.277058   -1.129153    1.497126
     36          1           0       -3.164065   -1.577673   -1.293480
     37          1           0       -4.532825   -0.307022    1.041302
     38          1           0        2.287601   -3.114917   -0.105567
     39          1           0        3.067362   -2.425260    1.266231
     40          1           0        2.702226   -1.062982   -1.378527
     41          1           0        5.700385   -0.636205    0.044023
     42          1           0        3.943322   -0.163220    1.273658
     43          1           0        3.172470    1.125713   -1.344155
     44          1           0        1.925366    1.606428    1.291033
     45          1           0        0.609279    0.432515   -1.118601
 ---------------------------------------------------------------------

 SCF Done:  E(RB3LYP) =  -1297.98496917     A.U. after   13 cycles

 The electronic state is 1-A.
 Alpha  occ. eigenvalues --  -19.18593 -19.18584 -19.18571 -19.18476 -19.18461
 Alpha  occ. eigenvalues --  -19.16976 -19.16320 -19.16296 -19.15064 -19.13746
 Alpha  occ. eigenvalues --  -19.13439 -10.31030 -10.30677 -10.26433 -10.25856
 Alpha  occ. eigenvalues --  -10.25465 -10.25457 -10.25071 -10.25067 -10.24766
 Alpha  occ. eigenvalues --  -10.24266 -10.24112 -10.23736  -1.10281  -1.09620
 Alpha  occ. eigenvalues --   -1.05636  -1.05014  -1.04205  -1.03936  -1.02858
 Alpha  occ. eigenvalues --   -1.02614  -1.02214  -1.00497  -0.99954  -0.82405
 Alpha  occ. eigenvalues --   -0.80542  -0.79918  -0.78522  -0.72002  -0.69847
 Alpha  occ. eigenvalues --   -0.67343  -0.65218  -0.63528  -0.62198  -0.61980
 Alpha  occ. eigenvalues --   -0.60507  -0.56720  -0.55968  -0.55621  -0.54704
 Alpha  occ. eigenvalues --   -0.53915  -0.53304  -0.53134  -0.51587  -0.51447
 Alpha  occ. eigenvalues --   -0.50924  -0.50108  -0.49233  -0.48439  -0.46679
 Alpha  occ. eigenvalues --   -0.46355  -0.45175  -0.45059  -0.43756  -0.43523
 Alpha  occ. eigenvalues --   -0.42622  -0.41768  -0.41408  -0.40138  -0.39807
 Alpha  occ. eigenvalues --   -0.39474  -0.38034  -0.37257  -0.36907  -0.36213
 Alpha  occ. eigenvalues --   -0.35815  -0.35324  -0.34737  -0.34021  -0.33292
 Alpha  occ. eigenvalues --   -0.33255  -0.31274  -0.31063  -0.30438  -0.29965
 Alpha  occ. eigenvalues --   -0.29580  -0.28716  -0.28165  -0.27258  -0.26641
 Alpha  occ. eigenvalues --   -0.26405
 Alpha virt. eigenvalues --   -0.02270  -0.01947  -0.01592  -0.00066   0.00364
 Alpha virt. eigenvalues --    0.00832   0.01847   0.02047   0.03421   0.03498
 Alpha virt. eigenvalues --    0.03663   0.04270   0.04770   0.05139   0.05643

 Mulliken atomic charges:
              1
     1  O   -0.539349
     2  C    0.061861
     3  C    0.095517
     4  O   -0.526795
     5  H    0.340298
     6  C   -0.209606
     7  O   -0.557099
     8  H    0.408707
     9  C   -0.286322
    10  O   -0.541149
    11  H    0.337204
    12  C    0.210906
    13  O   -0.273083
    14  C    0.375614
    15  O   -0.199024
    16  C    0.266140
    17  C    0.191718
    18  O   -0.598948
    19  H    0.392070
    20  C    0.034818
    21  O   -0.540785
    22  H    0.338253
    23  C   -0.277964
    24  O   -0.581520
    25  H    0.364535
    26  C   -0.113478
    27  O   -0.238433
    28  C    0.147552
    29  O   -0.556139
    30  H    0.339528
    31  H    0.150148
    32  H    0.156488
    33  H    0.119956
    34  H    0.105808
    35  H    0.112981
    36  H    0.125854
    37  H    0.125150
    38  H    0.137361
    39  H    0.141787
    40  H    0.124820
    41  H    0.340836
    42  H    0.134403
    43  H    0.115389
    44  H    0.125619
    45  H    0.118373
 Sum of Mulliken atomic charges =   0.00000

 Dipole moment (field-independent basis, Debye):
    X=             -2.5456    Y=              0.2849    Z=              1.2588  Tot=              2.8541
 Quadrupole moment (field-independent basis, Debye-Ang):
   XX=           -118.8393   YY=           -139.0861   ZZ=           -139.3526
   XY=            -16.6783   XZ=             -3.5753   YZ=             -0.3842

  Exact polarizability: 234.407   1.338 196.864  -0.330  -0.853 143.155
 Approx polarizability: 275.583   1.002 256.032  -1.209  -0.900 239.686

 ******    6 imaginary frequencies (negative Signs) ******

                     1                      2                      3
                     A                      A                      A
 Frequencies --  -295.9053              -279.4086              -266.9826
 Red. masses --     1.3920                 1.7744                 1.3236
 Frc consts  --     0.0718                 0.0816                 0.0556
 IR Inten    --    55.5892                 5.7995                50.8062
 Raman Activ --     0.3009                 0.0502                 0.4046

                     4                      5                      6
                     A                      A                      A
 Frequencies --  -191.3486               -73.0746               -43.8391
 Red. masses --     1.2541                 7.3529                 6.3167
 Frc consts  --     0.0271                 0.0231                 0.0072
 IR Inten    --   109.2965                 2.1761                 0.8368
 Raman Activ --     0.6917                 0.0522                 0.0196

                     7                      8                      9
                     A                      A                      A
 Frequencies --    43.6228                54.2030                72.4209
 Red. masses --     6.6901                 6.9445                 7.5447
 Frc consts  --     0.0075                 0.0120                 0.0233
 IR Inten    --     1.0831                 0.1971                 0.9157
 Raman Activ --     0.0261                 0.0822                 0.0127

                    10                     11                     12
                     A                      A                      A
 Frequencies --    83.6272               105.6286               136.2128
 Red. masses --     6.1504                 5.9207                 5.8958
 Frc consts  --     0.0253                 0.0389                 0.0645
 IR Inten    --     1.9197                 1.0622                 3.3658
 Raman Activ --     0.2060                 0.0356                 0.0828

                    13                     14                     15
                     A                      A                      A
 Frequencies --   152.0794               185.0276               189.8384
 Red. masses --     6.2809                 7.4525                 5.9256
 Frc consts  --     0.0856                 0.1503                 0.1258
 IR Inten    --     3.7879                 1.5682                 2.4038
 Raman Activ --     0.4084                 1.4283                 0.4018

                    16                     17                     18
                     A                      A                      A
 Frequencies --   202.2835               237.1758               267.2517
 Red. masses --     6.4421                 6.1828                 5.6113
 Frc consts  --     0.1553                 0.2049                 0.2361
 IR Inten    --     1.1501                 3.3227                 3.9487
 Raman Activ --     0.9485                 1.0934                 0.1805

                    19                     20                     21
                     A                      A                      A
 Frequencies --   276.9772               292.5825               303.6395
 Red. masses --     4.3399                 5.5108                 4.0551
 Frc consts  --     0.1962                 0.2779                 0.2203
 IR Inten    --     8.3558                 1.9047                 6.0452
 Raman Activ --     0.3983                 0.2744                 0.4899

                    22                     23                     24
                     A                      A                      A
 Frequencies --   306.3342               316.5807               327.3292
 Red. masses --     6.3665                 4.5874                 6.1419
 Frc consts  --     0.3520                 0.2709                 0.3877
 IR Inten    --    10.9865                 4.3268                 4.6095
 Raman Activ --     1.3874                 1.2555                 2.9992

                    25                     26                     27
                     A                      A                      A
 Frequencies --   337.0861               357.0495               380.7469
 Red. masses --     6.5438                 4.8995                 8.4345
 Frc consts  --     0.4381                 0.3680                 0.7204
 IR Inten    --     7.2690                 5.0873                 0.7000
 Raman Activ --     4.4695                 0.9135                 2.3235

                    28                     29                     30
                     A                      A                      A
 Frequencies --   408.6830               416.5913               426.0287
 Red. masses --     6.3660                 5.6028                 3.8433
 Frc consts  --     0.6265                 0.5729                 0.4110
 IR Inten    --     8.1946                 6.8343                13.1590
 Raman Activ --     3.7472                 0.3760                 6.5627

                    31                     32                     33
                     A                      A                      A
 Frequencies --   429.5823               486.1534               496.7793
 Red. masses --     4.4840                 3.8460                 4.6200
 Frc consts  --     0.4875                 0.5356                 0.6718
 IR Inten    --     2.1603                22.3092                10.7809
 Raman Activ --     1.5122                 0.3444                 0.7039

                    34                     35                     36
                     A                      A                      A
 Frequencies --   502.7218               529.9427               569.5719
 Red. masses --     4.3146                 3.0039                 4.2446
 Frc consts  --     0.6425                 0.4970                 0.8113
 IR Inten    --     1.2783                13.5459                 7.7573
 Raman Activ --     6.0601                 2.7696                 1.2018

                    37                     38                     39
                     A                      A                      A
 Frequencies --   579.5465               592.5343               615.2943
 Red. masses --     2.8090                 5.6426                 5.8202
 Frc consts  --     0.5559                 1.1672                 1.2982
 IR Inten    --    34.9467                 2.8672                17.1620
 Raman Activ --     0.5597                 0.7385                 0.9098

                    40                     41                     42
                     A                      A                      A
 Frequencies --   635.9787               660.1037               687.1522
 Red. masses --     3.6590                 1.0782                 5.6292
 Frc consts  --     0.8720                 0.2768                 1.5660
 IR Inten    --    25.7389               115.6064                 7.6790
 Raman Activ --     0.7055                 1.6904                 0.7656

                    43                     44                     45
                     A                      A                      A
 Frequencies --   692.3482               722.9093               724.8436
 Red. masses --     1.0935                 1.0749                 1.0533
 Frc consts  --     0.3088                 0.3310                 0.3261
 IR Inten    --    70.1140                87.8745               109.3153
 Raman Activ --     1.2819                 1.5266                 1.9843

                    46                     47                     48
                     A                      A                      A
 Frequencies --   751.4457               843.4443               856.0330
 Red. masses --     1.1637                 1.2973                 1.6821
 Frc consts  --     0.3871                 0.5438                 0.7262
 IR Inten    --    94.6518                50.9746                 3.7768
 Raman Activ --     1.4633                 1.2719                 0.6961

                    49                     50                     51
                     A                      A                      A
 Frequencies --   871.7880               925.9120               953.8695
 Red. masses --     1.3712                 6.2523                 6.2346
 Frc consts  --     0.6140                 3.1581                 3.3422
 IR Inten    --    24.4180               132.3662                74.3120
 Raman Activ --     0.5514                 2.8669                 0.8540

                    52                     53                     54
                     A                      A                      A
 Frequencies --   964.2256               980.4349               989.5000
 Red. masses --     4.2366                 6.5717                 6.1019
 Frc consts  --     2.3207                 3.7219                 3.5200
 IR Inten    --    23.9609                40.2134               461.9906
 Raman Activ --     1.0974                 2.4798                 1.6364

                    55                     56                     57
                     A                      A                      A
 Frequencies --   991.6254              1013.0800              1023.4004
 Red. masses --     5.1450                 5.7805                 6.1369
 Frc consts  --     2.9808                 3.4954                 3.7870
 IR Inten    --    36.8147               143.9146               121.2295
 Raman Activ --     1.4197                 1.8127                 3.1491

                    58                     59                     60
                     A                      A                      A
 Frequencies --  1035.4906              1051.6594              1060.0399
 Red. masses --     6.5979                 5.8105                 4.0345
 Frc consts  --     4.1682                 3.7863                 2.6711
 IR Inten    --   324.7012                65.6177                38.8200
 Raman Activ --     1.4661                 4.8216                 4.9021

                    61                     62                     63
                     A                      A                      A
 Frequencies --  1063.4407              1072.1266              1078.6450
 Red. masses --     4.9589                 4.4869                 3.3184
 Frc consts  --     3.3042                 3.0387                 2.2748
 IR Inten    --    17.6237                17.1800               137.6735
 Raman Activ --     1.7200                 7.3544                26.4542

                    64                     65                     66
                     A                      A                      A
 Frequencies --  1091.5484              1104.9528              1107.3804
 Red. masses --     2.2427                 2.7814                 2.9572
 Frc consts  --     1.5744                 2.0008                 2.1366
 IR Inten    --     5.0189                84.7013                28.2255
 Raman Activ --     5.2052                 3.2901                11.4688

                    67                     68                     69
                     A                      A                      A
 Frequencies --  1116.4101              1128.6012              1132.3275
 Red. masses --     2.8830                 2.4066                 2.1178
 Frc consts  --     2.1171                 1.8060                 1.5999
 IR Inten    --    23.2266                18.8019                79.4628
 Raman Activ --     6.3564                 1.1282                 1.6344

                    70                     71                     72
                     A                      A                      A
 Frequencies --  1142.2086              1148.8970              1154.2584
 Red. masses --     2.5658                 2.8557                 2.1848
 Frc consts  --     1.9723                 2.2208                 1.7150
 IR Inten    --    34.1510                21.0556                16.0439
 Raman Activ --     3.8665                 6.1970                 4.0432

                    73                     74                     75
                     A                      A                      A
 Frequencies --  1159.6834              1174.1162              1185.6251
 Red. masses --     1.6436                 1.8909                 1.7265
 Frc consts  --     1.3023                 1.5358                 1.4299
 IR Inten    --    17.2616                 0.6414                32.5280
 Raman Activ --     0.9786                 3.4381                 0.9912

                    76                     77                     78
                     A                      A                      A
 Frequencies --  1189.7691              1216.3695              1231.8835
 Red. masses --     1.6073                 1.4119                 1.3915
 Frc consts  --     1.3405                 1.2308                 1.2441
 IR Inten    --    20.1297                 4.4664                 0.6846
 Raman Activ --     0.9106                 1.7692                 1.1163

                    79                     80                     81
                     A                      A                      A
 Frequencies --  1249.8907              1250.6323              1272.1085
 Red. masses --     1.2646                 1.2169                 1.2830
 Frc consts  --     1.1640                 1.1214                 1.2233
 IR Inten    --     1.6398                13.7032                17.1398
 Raman Activ --     1.4872                 1.6006                 1.8885

                    82                     83                     84
                     A                      A                      A
 Frequencies --  1276.2205              1284.6660              1285.9974
 Red. masses --     1.2591                 1.2150                 1.2873
 Frc consts  --     1.2082                 1.1814                 1.2544
 IR Inten    --     2.6581                41.6632                43.6317
 Raman Activ --     2.0458                 5.0834                 2.5325

                    85                     86                     87
                     A                      A                      A
 Frequencies --  1294.5938              1305.4242              1310.1154
 Red. masses --     1.3600                 1.2059                 1.3166
 Frc consts  --     1.3430                 1.2107                 1.3314
 IR Inten    --     6.4034                 5.7081                13.7965
 Raman Activ --     2.2422                 4.7784                 2.9832

                    88                     89                     90
                     A                      A                      A
 Frequencies --  1315.1274              1326.6991              1336.1286
 Red. masses --     1.2438                 1.2131                 1.2974
 Frc consts  --     1.2675                 1.2580                 1.3646
 IR Inten    --     5.2275                53.2560                14.0409
 Raman Activ --     4.3976                 4.7740                 9.9446

                    91                     92                     93
                     A                      A                      A
 Frequencies --  1340.7247              1348.8992              1350.9628
 Red. masses --     1.2330                 1.3268                 1.1990
 Frc consts  --     1.3059                 1.4224                 1.2893
 IR Inten    --    13.8035                13.2673                33.4028
 Raman Activ --     5.3051                 7.1302                 2.2842

                    94                     95                     96
                     A                      A                      A
 Frequencies --  1360.3708              1375.8948              1380.3746
 Red. masses --     1.3283                 1.3317                 1.4680
 Frc consts  --     1.4484                 1.4853                 1.6480
 IR Inten    --    18.2234                 2.5108                 7.4892
 Raman Activ --     5.4321                 2.9669                 7.5004

                    97                     98                     99
                     A                      A                      A
 Frequencies --  1383.5134              1395.4145              1400.6804
 Red. masses --     1.1319                 1.4592                 1.4159
 Frc consts  --     1.2765                 1.6741                 1.6366
 IR Inten    --    32.7536                 3.2125                34.2991
 Raman Activ --     2.2954                 2.1655                 3.5122

                   100                    101                    102
                     A                      A                      A
 Frequencies --  1408.2852              1423.0509              1439.4823
 Red. masses --     1.3544                 1.5657                 1.4217
 Frc consts  --     1.5827                 1.8680                 1.7357
 IR Inten    --     2.4214                41.0801                10.9558
 Raman Activ --     7.0156                 1.9940                 0.8018

                   103                    104                    105
                     A                      A                      A
 Frequencies --  1474.2732              1474.9209              1493.7871
 Red. masses --     1.0831                 1.0732                 1.3338
 Frc consts  --     1.3870                 1.3755                 1.7536
 IR Inten    --     3.7161                 4.8609                23.8878
 Raman Activ --     4.2102                 4.8737                 0.4215

                   106                    107                    108
                     A                      A                      A
 Frequencies --  1502.4606              1523.8610              3252.3132
 Red. masses --     1.1977                 1.3277                 1.0578
 Frc consts  --     1.5929                 1.8165                 6.5926
 IR Inten    --    28.0812                64.0247                33.9136
 Raman Activ --     1.2631                 1.8466                86.1931

                   109                    110                    111
                     A                      A                      A
 Frequencies --  3256.6084              3261.3085              3262.5068
 Red. masses --     1.0679                 1.0807                 1.0742
 Frc consts  --     6.6728                 6.7725                 6.7364
 IR Inten    --   228.5611                67.6108                86.4192
 Raman Activ --    41.9469                 7.7900               190.2963

                   112                    113                    114
                     A                      A                      A
 Frequencies --  3266.9317              3270.4021              3274.1522
 Red. masses --     1.0819                 1.0708                 1.0825
 Frc consts  --     6.8030                 6.7476                 6.8370
 IR Inten    --    16.2406               207.5272                 5.3184
 Raman Activ --    33.1394               205.2773               141.9403

                   115                    116                    117
                     A                      A                      A
 Frequencies --  3276.4340              3282.8167              3288.2189
 Red. masses --     1.0804                 1.0860                 1.0880
 Frc consts  --     6.8337                 6.8956                 6.9312
 IR Inten    --    70.6752                14.7832                45.7813
 Raman Activ --    71.8770                11.3730                49.4833

                   118                    119                    120
                     A                      A                      A
 Frequencies --  3291.7016              3295.9663              3303.0042
 Red. masses --     1.0863                 1.0835                 1.0948
 Frc consts  --     6.9350                 6.9347                 7.0375
 IR Inten    --    28.0119               268.1081                86.9819
 Raman Activ --    69.0410                 7.9053                11.2834

                   121                    122                    123
                     A                      A                      A
 Frequencies --  3305.7027              3314.6783              3316.7541
 Red. masses --     1.0781                 1.0904                 1.1055
 Frc consts  --     6.9414                 7.0584                 7.1651
 IR Inten    --   481.5001                61.6292                48.5348
 Raman Activ --   174.7926                20.6344                44.5681

                   124                    125                    126
                     A                      A                      A
 Frequencies --  3363.4617              3365.1782              3365.6759
 Red. masses --     1.0658                 1.0653                 1.0662
 Frc consts  --     7.1039                 7.1076                 7.1160
 IR Inten    --    44.4078                30.1795                43.6284
 Raman Activ --   120.2897                54.9594               168.1739

                   127                    128                    129
                     A                      A                      A
 Frequencies --  3370.6534              3891.5038              3894.8402
 Red. masses --     1.0679                 1.0675                 1.0674
 Frc consts  --     7.1484                 9.5246                 9.5400
 IR Inten    --    84.3469                83.3294                78.4502
 Raman Activ --   153.5389               101.6465               103.6008

 - Thermochemistry -
 -------------------
 Temperature   298.150 Kelvin.  Pressure   1.00000 Atm.
 Atom     1 has atomic number  8 and mass  15.99491

 Molecular mass:   342.11621 amu.
 Principal axes and moments of inertia in atomic units:
                           1         2         3
     Eigenvalues --  4405.33177********************
           X            0.99997  -0.00798  -0.00098
           Y            0.00798   0.99997  -0.00209
           Z            0.00100   0.00208   1.00000
 This molecule is an asymmetric top.
 Rotational symmetry number  1.
 Warning -- assumption of classical behavior for rotation
           may cause significant error
 Rotational temperatures (Kelvin)      0.01966     0.00690     0.00524
 Rotational constants (GHZ):           0.40967     0.14387     0.10929
    6 imaginary frequencies ignored.
 Zero-point vibrational energy     974777.2 (Joules/Mol)
                                  232.97735 (Kcal/Mol)
 Warning -- explicit consideration of  33 degrees of freedom as
           vibrations may cause significant error
 Vibrational temperatures:     62.76    77.99   104.20   120.32   151.98
          (Kelvin)            195.98   218.81   266.21   273.13   291.04
                              341.24   384.52   398.51   420.96   436.87
                              440.75   455.49   470.95   484.99   513.71
                              547.81   588.00   599.38   612.96   618.07
                              699.47   714.75   723.30   762.47   819.49
                              833.84   852.52   885.27   915.03   949.74
                              988.66   996.13  1040.10  1042.89  1081.16
                             1213.53  1231.64  1254.31  1332.18  1372.40
                             1387.30  1410.63  1423.67  1426.73  1457.59
                             1472.44  1489.84  1513.10  1525.16  1530.05
                             1542.55  1551.93  1570.49  1589.78  1593.27
                             1606.26  1623.80  1629.16  1643.38  1653.00
                             1660.72  1668.52  1689.29  1705.85  1711.81
                             1750.08  1772.40  1798.31  1799.38  1830.28
                             1836.19  1848.35  1850.26  1862.63  1878.21
                             1884.96  1892.17  1908.82  1922.39  1929.00
                             1940.76  1943.73  1957.27  1979.60  1986.05
                             1990.56  2007.69  2015.26  2026.21  2047.45
                             2071.09  2121.15  2122.08  2149.22  2161.70
                             2192.49  4679.35  4685.53  4692.29  4694.01
                             4700.38  4705.37  4710.77  4714.05  4723.24
                             4731.01  4736.02  4742.15  4752.28  4756.16
                             4769.08  4772.06  4839.27  4841.73  4842.45
                             4849.61  5599.00  5603.80

 Zero-point correction=                           0.371273 (Hartree/Particle)
 Thermal correction to Energy=                    0.390376
 Thermal correction to Enthalpy=                  0.391320
 Thermal correction to Gibbs Free Energy=         0.324673
 Sum of electronic and zero-point Energies=          -1297.613696
 Sum of electronic and thermal Energies=             -1297.594593
 Sum of electronic and thermal Enthalpies=           -1297.593649
 Sum of electronic and thermal Free Energies=        -1297.660296

                     E (Thermal)             CV                S
                      KCal/Mol        Cal/Mol-Kelvin    Cal/Mol-Kelvin
 Total                  244.964             78.040            140.270
 Electronic               0.000              0.000              0.000
 Translational            0.889              2.981             43.384
 Rotational               0.889              2.981             35.166
 Vibrational            243.187             72.078             61.720
 Vibration     1          0.595              1.980              5.087
 Vibration     2          0.596              1.976              4.658
 Vibration     3          0.599              1.967              4.086
 Vibration     4          0.601              1.960              3.804
 Vibration     5          0.605              1.945              3.348
 Vibration     6          0.614              1.917              2.856
 Vibration     7          0.619              1.900              2.646
 Vibration     8          0.631              1.860              2.277
 Vibration     9          0.633              1.854              2.229
 Vibration    10          0.639              1.837              2.112
 Vibration    11          0.656              1.784              1.824
 Vibration    12          0.672              1.733              1.614
 Vibration    13          0.678              1.716              1.552
 Vibration    14          0.688              1.688              1.459
 Vibration    15          0.695              1.667              1.397
 Vibration    16          0.697              1.662              1.382
 Vibration    17          0.703              1.642              1.328
 Vibration    18          0.711              1.621              1.273
 Vibration    19          0.718              1.601              1.226
 Vibration    20          0.732              1.561              1.135
 Vibration    21          0.750              1.511              1.036
 Vibration    22          0.773              1.451              0.931
 Vibration    23          0.780              1.434              0.904
 Vibration    24          0.788              1.414              0.872
 Vibration    25          0.791              1.406              0.860
 Vibration    26          0.842              1.281              0.694
 Vibration    27          0.852              1.257              0.666
 Vibration    28          0.858              1.244              0.651
 Vibration    29          0.885              1.184              0.587
 Vibration    30          0.926              1.097              0.505
 Vibration    31          0.936              1.076              0.486
 Vibration    32          0.950              1.048              0.463
 Vibration    33          0.975              1.000              0.424

 Normal termination of Gaussian 09 at Fri Mar 25 20:44:35 2016.
