 Gaussian 09, Revision B.01,
 Gaussian 09:  EM64L-G09RevB.01 12-Aug-2010

 -------------------------------------------------
 # freq=raman b3lyp/6-31+g(2d,p) geom=connectivity
 -------------------------------------------------

 -----------------
 500 6680/6680.com
 -----------------
 Symbolic Z-matrix:
 Charge =  0 Multiplicity = 1

                         Standard orientation:
 ---------------------------------------------------------------------
 Center     Atomic      Atomic             Coordinates (Angstroms)
 Number     Number       Type             X           Y           Z
 ---------------------------------------------------------------------
      1          8           0        5.106367   -0.515559   -0.468881
      2          6           0        3.922922   -0.107768    0.232181
      3          6           0        3.424846    1.130612   -0.495744
      4          8           0        4.287042    2.239479   -0.201734
      5          1           0        5.255493    1.993544   -0.242866
      6          6           0        2.094678    1.686330   -0.013570
      7          8           0        1.822536    2.827309   -0.839298
      8          1           0        1.855039    3.712392   -0.376018
      9          6           0        3.035083   -2.504004    0.795216
     10          8           0        2.093657   -3.428855    0.230703
     11          1           0        2.302623   -4.399297    0.351137
     12          6           0        2.877396   -1.195164    0.038711
     13          8           0        1.584068   -0.704064    0.419276
     14          6           0        1.096714    0.543075   -0.095113
     15          8           0       -0.115540    0.714016    0.653971
     16          6           0       -1.293799    0.376001   -0.093076
     17          6           0       -1.768774   -1.055052    0.092807
     18          8           0       -0.755437   -1.965114   -0.357482
     19          1           0        0.158761   -1.592038   -0.200913
     20          6           0       -3.104508   -1.559049   -0.429752
     21          8           0       -3.291398   -2.963227   -0.198248
     22          1           0       -2.320378   -3.183544   -0.291361
     23          6           0       -2.327559    2.635340    0.474371
     24          8           0       -3.412456    3.557771    0.652700
     25          1           0       -3.295238    4.360410    0.067216
     26          6           0       -2.528943    1.132503    0.367549
     27          8           0       -3.791133    0.750047   -0.197705
     28          6           0       -4.184451   -0.606708    0.054877
     29          8           0       -5.387232   -0.866460   -0.685129
     30          1           0       -6.139544   -0.850096   -0.089008
     31          1           0       -1.815648    2.937073   -0.415463
     32          1           0       -1.656300    2.794331    1.292316
     33          1           0       -2.625387    0.828698    1.388971
     34          1           0       -1.125254    0.565050   -1.132669
     35          1           0       -1.822480   -1.187858    1.153174
     36          1           0       -3.069324   -1.443805   -1.492945
     37          1           0       -4.358570   -0.750151    1.100825
     38          1           0        2.822614   -2.354079    1.833137
     39          1           0        4.030681   -2.877425    0.675877
     40          1           0        2.844710   -1.427394   -1.005272
     41          1           0        5.835790   -0.589887    0.150810
     42          1           0        4.115803    0.085428    1.266769
     43          1           0        3.393719    0.955661   -1.550885
     44          1           0        2.190233    2.000907    1.004669
     45          1           0        0.837237    0.402643   -1.123632
 ---------------------------------------------------------------------

 SCF Done:  E(RB3LYP) =  -1297.96573643     A.U. after   14 cycles

 The electronic state is 1-A.
 Alpha  occ. eigenvalues --  -19.19242 -19.19043 -19.18745 -19.17395 -19.16907
 Alpha  occ. eigenvalues --  -19.16608 -19.15891 -19.15457 -19.14920 -19.14320
 Alpha  occ. eigenvalues --  -19.13782 -10.31446 -10.28710 -10.27297 -10.26654
 Alpha  occ. eigenvalues --  -10.26446 -10.25906 -10.25429 -10.25421 -10.24363
 Alpha  occ. eigenvalues --  -10.23277 -10.22990 -10.22977  -1.10718  -1.07484
 Alpha  occ. eigenvalues --   -1.06624  -1.05050  -1.04667  -1.02799  -1.02626
 Alpha  occ. eigenvalues --   -1.02314  -1.01461  -1.00543  -0.99678  -0.82581
 Alpha  occ. eigenvalues --   -0.81809  -0.79175  -0.77277  -0.72524  -0.70097
 Alpha  occ. eigenvalues --   -0.67909  -0.64731  -0.64586  -0.62183  -0.61160
 Alpha  occ. eigenvalues --   -0.59695  -0.56920  -0.56292  -0.55602  -0.55231
 Alpha  occ. eigenvalues --   -0.53898  -0.53441  -0.52834  -0.52202  -0.51503
 Alpha  occ. eigenvalues --   -0.50978  -0.49170  -0.47973  -0.47324  -0.46694
 Alpha  occ. eigenvalues --   -0.45938  -0.44676  -0.44272  -0.43963  -0.43536
 Alpha  occ. eigenvalues --   -0.42880  -0.42464  -0.40934  -0.39588  -0.38929
 Alpha  occ. eigenvalues --   -0.38534  -0.37352  -0.36999  -0.36649  -0.35901
 Alpha  occ. eigenvalues --   -0.35419  -0.35321  -0.34768  -0.33988  -0.33211
 Alpha  occ. eigenvalues --   -0.32433  -0.31199  -0.30748  -0.30353  -0.29953
 Alpha  occ. eigenvalues --   -0.29697  -0.28609  -0.28017  -0.27742  -0.26218
 Alpha  occ. eigenvalues --   -0.25552
 Alpha virt. eigenvalues --   -0.03452  -0.01840  -0.01194  -0.00124   0.00086
 Alpha virt. eigenvalues --    0.00887   0.01432   0.01977   0.02684   0.03180
 Alpha virt. eigenvalues --    0.03634   0.04178   0.04520   0.05203   0.05790

 Mulliken atomic charges:
              1
     1  O   -0.540373
     2  C   -0.183587
     3  C    0.412736
     4  O   -0.566998
     5  H    0.338457
     6  C   -0.387113
     7  O   -0.541944
     8  H    0.350524
     9  C   -0.409337
    10  O   -0.527690
    11  H    0.350950
    12  C    0.412847
    13  O   -0.265789
    14  C    0.350464
    15  O   -0.219126
    16  C    0.190946
    17  C    0.327591
    18  O   -0.631582
    19  H    0.413017
    20  C   -0.082326
    21  O   -0.540148
    22  H    0.367639
    23  C   -0.428749
    24  O   -0.516572
    25  H    0.328297
    26  C   -0.003952
    27  O   -0.243892
    28  C    0.269975
    29  O   -0.503574
    30  H    0.323832
    31  H    0.129818
    32  H    0.156388
    33  H    0.104114
    34  H    0.115914
    35  H    0.118051
    36  H    0.126937
    37  H    0.119661
    38  H    0.148971
    39  H    0.141308
    40  H    0.127226
    41  H    0.331236
    42  H    0.130284
    43  H    0.141163
    44  H    0.139459
    45  H    0.124948
 Sum of Mulliken atomic charges =   0.00000

 Dipole moment (field-independent basis, Debye):
    X=              8.6339    Y=              0.9981    Z=              2.9787  Tot=              9.1877
 Quadrupole moment (field-independent basis, Debye-Ang):
   XX=           -124.9843   YY=           -132.3956   ZZ=           -140.7912
   XY=            -12.6409   XZ=              3.9773   YZ=             -6.4069

  Exact polarizability: 227.512   2.543 203.915   1.161  -0.743 144.747
 Approx polarizability: 270.015   2.493 264.239   1.000   0.025 239.586

 ******    7 imaginary frequencies (negative Signs) ******

                     1                      2                      3
                     A                      A                      A
 Frequencies --  -313.1224              -226.1304              -178.4405
 Red. masses --     1.6384                 1.1082                 2.1160
 Frc consts  --     0.0946                 0.0334                 0.0397
 IR Inten    --     1.4798                90.9594                 7.0163
 Raman Activ --     0.1133                 0.9360                 0.0496

                     4                      5                      6
                     A                      A                      A
 Frequencies --  -151.6790               -82.5385               -59.5310
 Red. masses --     1.2820                 7.0708                 6.2829
 Frc consts  --     0.0174                 0.0284                 0.0131
 IR Inten    --   102.8267                 0.3182                 0.5265
 Raman Activ --     0.7720                 0.0318                 0.0587

                     7                      8                      9
                     A                      A                      A
 Frequencies --   -16.3506                32.1505                51.6356
 Red. masses --     6.3803                 6.0993                 6.2161
 Frc consts  --     0.0010                 0.0037                 0.0098
 IR Inten    --     0.3648                 0.5536                 2.1719
 Raman Activ --     0.0621                 0.0228                 0.0866

                    10                     11                     12
                     A                      A                      A
 Frequencies --    61.3532                68.8439               112.4123
 Red. masses --     6.7513                 6.5388                 6.2537
 Frc consts  --     0.0150                 0.0183                 0.0466
 IR Inten    --     0.5392                 1.4007                 1.3250
 Raman Activ --     0.0204                 0.1942                 0.5741

                    13                     14                     15
                     A                      A                      A
 Frequencies --   122.8751               154.8970               164.4185
 Red. masses --     5.8772                 6.0727                 6.2809
 Frc consts  --     0.0523                 0.0858                 0.1000
 IR Inten    --     0.3510                 0.4947                 3.0716
 Raman Activ --     0.1328                 0.4631                 0.2891

                    16                     17                     18
                     A                      A                      A
 Frequencies --   179.2071               205.7094               259.4856
 Red. masses --     5.7404                 6.7877                 4.6573
 Frc consts  --     0.1086                 0.1692                 0.1848
 IR Inten    --     3.9149                 0.5577                 3.5093
 Raman Activ --     0.7784                 2.8005                 0.2972

                    19                     20                     21
                     A                      A                      A
 Frequencies --   264.6493               275.0173               294.8670
 Red. masses --     4.6126                 4.2548                 5.7439
 Frc consts  --     0.1903                 0.1896                 0.2942
 IR Inten    --     9.6100                 1.5493                 3.6135
 Raman Activ --     0.2172                 0.1039                 0.1349

                    22                     23                     24
                     A                      A                      A
 Frequencies --   313.0114               321.1591               339.6146
 Red. masses --     6.1595                 5.8329                 6.4713
 Frc consts  --     0.3556                 0.3545                 0.4398
 IR Inten    --     5.0868                 1.8629                 7.5150
 Raman Activ --     2.2403                 2.1419                 3.7241

                    25                     26                     27
                     A                      A                      A
 Frequencies --   341.2029               366.4642               373.4751
 Red. masses --     5.6450                 4.8556                 6.2895
 Frc consts  --     0.3872                 0.3842                 0.5169
 IR Inten    --     1.4526                 1.9322                 4.1090
 Raman Activ --     2.0387                 1.9438                 0.1805

                    28                     29                     30
                     A                      A                      A
 Frequencies --   412.8223               417.0376               434.6506
 Red. masses --     5.2398                 4.9113                 6.4324
 Frc consts  --     0.5261                 0.5033                 0.7160
 IR Inten    --     3.7659                 2.1065                 0.3559
 Raman Activ --     4.7641                 4.3229                 1.1137

                    31                     32                     33
                     A                      A                      A
 Frequencies --   454.5251               466.9390               500.6375
 Red. masses --     4.7977                 4.2193                 3.5992
 Frc consts  --     0.5840                 0.5420                 0.5315
 IR Inten    --     6.9013                 6.8554                19.4895
 Raman Activ --     1.1280                 0.3394                 1.4972

                    34                     35                     36
                     A                      A                      A
 Frequencies --   512.0773               538.9509               559.1684
 Red. masses --     4.9183                 3.8735                 5.5773
 Frc consts  --     0.7599                 0.6629                 1.0274
 IR Inten    --    13.5167                10.1623                18.6660
 Raman Activ --     7.9034                 0.8532                 4.3441

                    37                     38                     39
                     A                      A                      A
 Frequencies --   581.3410               590.7313               613.4767
 Red. masses --     2.0617                 2.7359                 2.3711
 Frc consts  --     0.4105                 0.5625                 0.5258
 IR Inten    --    20.6861                33.4538               110.7789
 Raman Activ --     1.4713                 0.7457                 0.4434

                    40                     41                     42
                     A                      A                      A
 Frequencies --   617.6132               637.7007               647.0001
 Red. masses --     1.6788                 1.2535                 1.9689
 Frc consts  --     0.3773                 0.3003                 0.4856
 IR Inten    --    29.0725                74.1211                21.3247
 Raman Activ --     0.5720                 0.5534                 0.7302

                    43                     44                     45
                     A                      A                      A
 Frequencies --   658.3381               669.2740               735.1141
 Red. masses --     1.4153                 2.9020                 1.0712
 Frc consts  --     0.3614                 0.7659                 0.3411
 IR Inten    --    45.7654                52.2826                26.7262
 Raman Activ --     1.3506                 0.9788                 1.8459

                    46                     47                     48
                     A                      A                      A
 Frequencies --   737.7799               795.3293               842.4750
 Red. masses --     1.1086                 1.0733                 2.4690
 Frc consts  --     0.3555                 0.4000                 1.0325
 IR Inten    --   177.5607                13.5731                24.5355
 Raman Activ --     1.2703                 0.5802                 0.7194

                    49                     50                     51
                     A                      A                      A
 Frequencies --   847.4039               941.6013               949.9869
 Red. masses --     2.6818                 6.2749                 6.2155
 Frc consts  --     1.1347                 3.2778                 3.3049
 IR Inten    --     6.2551               188.4699               220.6068
 Raman Activ --     4.9489                 2.1772                 0.8209

                    52                     53                     54
                     A                      A                      A
 Frequencies --   970.7410               981.7997               985.3000
 Red. masses --     4.7448                 6.2777                 4.8369
 Frc consts  --     2.6344                 3.5653                 2.7667
 IR Inten    --   103.3536               221.8038                36.0907
 Raman Activ --     4.0288                 1.6101                 2.3235

                    55                     56                     57
                     A                      A                      A
 Frequencies --   999.5898              1003.6635              1016.9649
 Red. masses --     5.8525                 5.7890                 6.4113
 Frc consts  --     3.4454                 3.4358                 3.9067
 IR Inten    --    20.0550               115.0629               326.9041
 Raman Activ --     2.0854                 1.4342                 3.3152

                    58                     59                     60
                     A                      A                      A
 Frequencies --  1031.5146              1039.9316              1051.3740
 Red. masses --     5.2674                 3.7252                 3.1745
 Frc consts  --     3.3021                 2.3736                 2.0675
 IR Inten    --    29.6306               201.3053                41.3932
 Raman Activ --     6.7821                 0.8839                20.0852

                    61                     62                     63
                     A                      A                      A
 Frequencies --  1059.4136              1064.6668              1076.5707
 Red. masses --     4.7280                 3.7161                 4.3061
 Frc consts  --     3.1265                 2.4818                 2.9405
 IR Inten    --    46.8647                68.9807                24.0815
 Raman Activ --    13.4241                 1.1910                 1.7848

                    64                     65                     66
                     A                      A                      A
 Frequencies --  1081.7654              1090.8091              1106.4530
 Red. masses --     2.4429                 2.7231                 2.3361
 Frc consts  --     1.6843                 1.9091                 1.6850
 IR Inten    --    63.0226                13.4444                32.9611
 Raman Activ --     3.2075                 4.1562                 5.4752

                    67                     68                     69
                     A                      A                      A
 Frequencies --  1113.2871              1123.6529              1127.9784
 Red. masses --     3.3216                 3.6147                 2.0385
 Frc consts  --     2.4255                 2.6890                 1.5281
 IR Inten    --    15.1773                27.2736                25.7589
 Raman Activ --     6.5193                 1.4916                 3.1871

                    70                     71                     72
                     A                      A                      A
 Frequencies --  1140.5299              1152.5560              1156.9256
 Red. masses --     2.6390                 1.6001                 1.4755
 Frc consts  --     2.0226                 1.2523                 1.1636
 IR Inten    --    29.0708                 8.6825                 3.0091
 Raman Activ --     3.1763                 2.6901                 1.1429

                    73                     74                     75
                     A                      A                      A
 Frequencies --  1166.5966              1177.4469              1177.6235
 Red. masses --     2.3668                 1.5517                 1.8046
 Frc consts  --     1.8978                 1.2675                 1.4745
 IR Inten    --     3.2444                 7.7175                47.2381
 Raman Activ --     4.0353                 1.1554                 1.8591

                    76                     77                     78
                     A                      A                      A
 Frequencies --  1206.5876              1211.9313              1217.6696
 Red. masses --     1.5670                 1.6784                 1.3294
 Frc consts  --     1.3442                 1.4524                 1.1613
 IR Inten    --     5.8516                24.7587                 7.6458
 Raman Activ --     2.4960                 1.0502                 2.8194

                    79                     80                     81
                     A                      A                      A
 Frequencies --  1221.5838              1259.7252              1265.9391
 Red. masses --     1.5355                 1.2497                 1.2983
 Frc consts  --     1.3500                 1.1684                 1.2259
 IR Inten    --    17.8712                14.0211                 5.6265
 Raman Activ --     3.4910                 1.1294                 1.7952

                    82                     83                     84
                     A                      A                      A
 Frequencies --  1268.2996              1276.6209              1285.1038
 Red. masses --     1.1922                 1.3031                 1.2201
 Frc consts  --     1.1299                 1.2512                 1.1872
 IR Inten    --    13.7871                 2.6251                13.4909
 Raman Activ --     1.2617                 1.4033                 1.3325

                    85                     86                     87
                     A                      A                      A
 Frequencies --  1298.9806              1308.5346              1314.3982
 Red. masses --     1.3139                 1.2475                 1.3463
 Frc consts  --     1.3062                 1.2585                 1.3704
 IR Inten    --    76.1519                15.0939                38.7720
 Raman Activ --     6.3699                 1.7820                 2.6825

                    88                     89                     90
                     A                      A                      A
 Frequencies --  1316.0667              1327.5127              1342.1823
 Red. masses --     1.2805                 1.2259                 1.1944
 Frc consts  --     1.3067                 1.2728                 1.2677
 IR Inten    --     6.9521                12.3281                 3.9741
 Raman Activ --     3.7474                 2.3801                 2.8706

                    91                     92                     93
                     A                      A                      A
 Frequencies --  1347.0025              1347.6238              1350.3678
 Red. masses --     1.3531                 1.5791                 1.1906
 Frc consts  --     1.4465                 1.6896                 1.2792
 IR Inten    --    10.6366                 5.2775                21.1271
 Raman Activ --     9.2466                 6.4229                 2.9648

                    94                     95                     96
                     A                      A                      A
 Frequencies --  1363.6424              1370.7345              1379.5429
 Red. masses --     1.1611                 1.4388                 1.3996
 Frc consts  --     1.2721                 1.5928                 1.5694
 IR Inten    --    13.2016                 1.8557                21.3533
 Raman Activ --     1.0075                 5.5041                 7.0075

                    97                     98                     99
                     A                      A                      A
 Frequencies --  1387.0201              1395.8986              1410.5879
 Red. masses --     1.2718                 1.4069                 1.5318
 Frc consts  --     1.4416                 1.6152                 1.7958
 IR Inten    --    26.7617                24.3773                 9.6011
 Raman Activ --     3.0984                 4.6054                 1.3728

                   100                    101                    102
                     A                      A                      A
 Frequencies --  1413.0616              1418.5781              1433.0178
 Red. masses --     1.1582                 1.3712                 1.4297
 Frc consts  --     1.3625                 1.6257                 1.7298
 IR Inten    --    12.3551                26.2255                29.1900
 Raman Activ --     2.8750                 6.7371                 5.7864

                   103                    104                    105
                     A                      A                      A
 Frequencies --  1454.7036              1455.2899              1464.9514
 Red. masses --     1.1902                 1.1248                 1.1364
 Frc consts  --     1.4840                 1.4035                 1.4369
 IR Inten    --     4.0234                 7.2092                 1.3181
 Raman Activ --     4.4273                 5.3265                 2.1862

                   106                    107                    108
                     A                      A                      A
 Frequencies --  1473.4251              1558.0149              3234.5787
 Red. masses --     1.3156                 1.2664                 1.0808
 Frc consts  --     1.6829                 1.8111                 6.6627
 IR Inten    --    50.0275               121.1896                18.0997
 Raman Activ --     1.5441                 2.0143                18.5437

                   109                    110                    111
                     A                      A                      A
 Frequencies --  3253.4877              3255.5316              3262.9365
 Red. masses --     1.0628                 1.0741                 1.0555
 Frc consts  --     6.6281                 6.7071                 6.6210
 IR Inten    --     1.3525               135.7645                46.9512
 Raman Activ --   162.2669                60.6047               115.6870

                   112                    113                    114
                     A                      A                      A
 Frequencies --  3270.2929              3273.5328              3278.8711
 Red. masses --     1.0821                 1.0819                 1.0766
 Frc consts  --     6.8183                 6.8309                 6.8198
 IR Inten    --     4.7795               143.1529               430.8420
 Raman Activ --    90.4190                26.0187                97.8523

                   115                    116                    117
                     A                      A                      A
 Frequencies --  3285.1596              3286.0045              3291.9229
 Red. masses --     1.0826                 1.0837                 1.0847
 Frc consts  --     6.8841                 6.8944                 6.9253
 IR Inten    --    96.7247               105.7805                10.3503
 Raman Activ --    21.4837               121.0156               115.1965

                   118                    119                    120
                     A                      A                      A
 Frequencies --  3292.7712              3299.0012              3307.3752
 Red. masses --     1.0857                 1.0864                 1.1016
 Frc consts  --     6.9358                 6.9665                 7.0995
 IR Inten    --    85.5959                 0.6276                48.1388
 Raman Activ --    95.8799                 7.8504                28.6939

                   121                    122                    123
                     A                      A                      A
 Frequencies --  3310.0560              3325.6270              3341.6721
 Red. masses --     1.0872                 1.1083                 1.0648
 Frc consts  --     7.0185                 7.2223                 7.0054
 IR Inten    --    72.7870                29.5103                41.8848
 Raman Activ --     6.3203                54.5818                22.1059

                   124                    125                    126
                     A                      A                      A
 Frequencies --  3364.9283              3366.7780              3372.8314
 Red. masses --     1.0698                 1.0661                 1.0687
 Frc consts  --     7.1370                 7.1201                 7.1633
 IR Inten    --    45.0612                24.5202                51.2049
 Raman Activ --   112.6674               147.0786               192.4635

                   127                    128                    129
                     A                      A                      A
 Frequencies --  3385.0399              3886.6556              3889.6990
 Red. masses --     1.0691                 1.0676                 1.0674
 Frc consts  --     7.2175                 9.5018                 9.5147
 IR Inten    --    85.3406                63.7897                66.7623
 Raman Activ --   115.1005               105.8721               136.9026

 - Thermochemistry -
 -------------------
 Temperature   298.150 Kelvin.  Pressure   1.00000 Atm.
 Atom     1 has atomic number  8 and mass  15.99491

 Molecular mass:   342.11621 amu.
 Principal axes and moments of inertia in atomic units:
                           1         2         3
     Eigenvalues --  4754.29563********************
           X            0.99997  -0.00729   0.00029
           Y            0.00729   0.99997  -0.00313
           Z           -0.00027   0.00313   1.00000
 This molecule is an asymmetric top.
 Rotational symmetry number  1.
 Warning -- assumption of classical behavior for rotation
           may cause significant error
 Rotational temperatures (Kelvin)      0.01822     0.00716     0.00533
 Rotational constants (GHZ):           0.37960     0.14923     0.11104
    7 imaginary frequencies ignored.
 Zero-point vibrational energy     971014.4 (Joules/Mol)
                                  232.07801 (Kcal/Mol)
 Warning -- explicit consideration of  33 degrees of freedom as
           vibrations may cause significant error
 Vibrational temperatures:     46.26    74.29    88.27    99.05   161.74
          (Kelvin)            176.79   222.86   236.56   257.84   295.97
                              373.34   380.77   395.69   424.25   450.35
                              462.08   488.63   490.91   527.26   537.35
                              593.96   600.02   625.36   653.96   671.82
                              720.30   736.76   775.43   804.52   836.42
                              849.93   882.66   888.61   917.51   930.89
                              947.20   962.93  1057.66  1061.50  1144.30
                             1212.13  1219.22  1354.75  1366.82  1396.68
                             1412.59  1417.63  1438.19  1444.05  1463.18
                             1484.12  1496.23  1512.69  1524.26  1531.82
                             1548.94  1556.42  1569.43  1591.94  1601.77
                             1616.68  1622.91  1640.97  1658.27  1664.56
                             1678.47  1694.08  1694.34  1736.01  1743.70
                             1751.95  1757.58  1812.46  1821.40  1824.80
                             1836.77  1848.98  1868.94  1882.69  1891.12
                             1893.52  1909.99  1931.10  1938.03  1938.93
                             1942.88  1961.97  1972.18  1984.85  1995.61
                             2008.38  2029.52  2033.08  2041.01  2061.79
                             2092.99  2093.84  2107.74  2119.93  2241.63
                             4653.83  4681.04  4683.98  4694.63  4705.22
                             4709.88  4717.56  4726.61  4727.82  4736.34
                             4737.56  4746.52  4758.57  4762.43  4784.83
                             4807.91  4841.38  4844.04  4852.75  4870.31
                             5592.02  5596.40

 Zero-point correction=                           0.369840 (Hartree/Particle)
 Thermal correction to Energy=                    0.388677
 Thermal correction to Enthalpy=                  0.389621
 Thermal correction to Gibbs Free Energy=         0.322834
 Sum of electronic and zero-point Energies=          -1297.595897
 Sum of electronic and thermal Energies=             -1297.577059
 Sum of electronic and thermal Enthalpies=           -1297.576115
 Sum of electronic and thermal Free Energies=        -1297.642903

                     E (Thermal)             CV                S
                      KCal/Mol        Cal/Mol-Kelvin    Cal/Mol-Kelvin
 Total                  243.899             76.829            140.566
 Electronic               0.000              0.000              0.000
 Translational            0.889              2.981             43.384
 Rotational               0.889              2.981             35.190
 Vibrational            242.121             70.868             61.992
 Vibration     1          0.594              1.983              5.692
 Vibration     2          0.596              1.977              4.754
 Vibration     3          0.597              1.973              4.413
 Vibration     4          0.598              1.969              4.186
 Vibration     5          0.607              1.939              3.227
 Vibration     6          0.610              1.930              3.055
 Vibration     7          0.620              1.897              2.611
 Vibration     8          0.623              1.886              2.498
 Vibration     9          0.629              1.868              2.337
 Vibration    10          0.640              1.832              2.081
 Vibration    11          0.668              1.747              1.665
 Vibration    12          0.671              1.738              1.631
 Vibration    13          0.677              1.720              1.564
 Vibration    14          0.689              1.683              1.446
 Vibration    15          0.701              1.649              1.346
 Vibration    16          0.707              1.633              1.304
 Vibration    17          0.720              1.596              1.214
 Vibration    18          0.721              1.593              1.207
 Vibration    19          0.739              1.541              1.095
 Vibration    20          0.745              1.527              1.065
 Vibration    21          0.777              1.442              0.917
 Vibration    22          0.780              1.433              0.902
 Vibration    23          0.795              1.395              0.844
 Vibration    24          0.813              1.351              0.782
 Vibration    25          0.824              1.323              0.746
 Vibration    26          0.856              1.249              0.657
 Vibration    27          0.867              1.223              0.629
 Vibration    28          0.894              1.164              0.568
 Vibration    29          0.915              1.120              0.525
 Vibration    30          0.938              1.072              0.483
 Vibration    31          0.948              1.052              0.466
 Vibration    32          0.973              1.003              0.427
 Vibration    33          0.977              0.995              0.420

 Normal termination of Gaussian 09 at Fri Apr  1 11:53:36 2016.
