 Gaussian 09, Revision B.01,
 Gaussian 09:  EM64L-G09RevB.01 12-Aug-2010

 -------------------------------------------------
 # freq=raman b3lyp/6-31+g(2d,p) geom=connectivity
 -------------------------------------------------

 -----------------
 400 9855/9855.com
 -----------------
 Symbolic Z-matrix:
 Charge =  0 Multiplicity = 1

                         Standard orientation:
 ---------------------------------------------------------------------
 Center     Atomic      Atomic             Coordinates (Angstroms)
 Number     Number       Type             X           Y           Z
 ---------------------------------------------------------------------
      1          8           0       -5.068323   -0.315930    0.453213
      2          6           0       -3.781533   -0.076679   -0.137222
      3          6           0       -3.194570    1.262502    0.277790
      4          8           0       -4.171487    2.307096    0.159728
      5          1           0       -5.100730    1.955985    0.275436
      6          6           0       -1.827866    1.534787   -0.328559
      7          8           0       -1.303370    2.767036    0.184949
      8          1           0       -0.376779    2.846558   -0.182031
      9          6           0       -3.125634   -2.485384   -0.192213
     10          8           0       -4.206515   -3.227945    0.389588
     11          1           0       -4.268752   -4.158102    0.027642
     12          6           0       -2.706397   -1.086761    0.230516
     13          8           0       -1.430726   -0.856140   -0.384656
     14          6           0       -0.892790    0.399924    0.055197
     15          8           0        0.368623    0.581464   -0.603630
     16          6           0        1.527660    0.210544    0.156113
     17          6           0        1.988516   -1.128346   -0.395613
     18          8           0        0.953691   -2.121137   -0.448443
     19          1           0        0.049002   -1.734870   -0.630635
     20          6           0        3.286950   -1.575610    0.254857
     21          8           0        3.688863   -2.832016   -0.310797
     22          1           0        4.630735   -3.069241   -0.075192
     23          6           0        2.362811    2.565017    0.113094
     24          8           0        1.359143    3.403228   -0.479183
     25          1           0        1.594494    4.306134   -0.118353
     26          6           0        2.676695    1.121315   -0.244073
     27          8           0        3.932291    0.823998    0.385100
     28          6           0        4.348416   -0.507103    0.048567
     29          8           0        5.513499   -0.663291    0.872327
     30          1           0        6.300385   -0.494140    0.349070
     31          1           0        3.284428    3.095461   -0.005865
     32          1           0        2.148180    2.559662    1.161333
     33          1           0        2.805857    1.054790   -1.304163
     34          1           0        1.354530    0.190966    1.211832
     35          1           0        2.240644   -0.937739   -1.417866
     36          1           0        3.123303   -1.704077    1.304436
     37          1           0        4.650583   -0.521833   -0.977775
     38          1           0       -5.751977   -0.196178   -0.210019
     39          1           0       -2.255417   -3.099029   -0.087033
     40          1           0       -3.337794   -2.426318   -1.239303
     41          1           0       -2.578927   -1.075235    1.292833
     42          1           0       -3.895902   -0.079469   -1.201089
     43          1           0       -3.013640    1.173038    1.328581
     44          1           0       -1.909386    1.592054   -1.393911
     45          1           0       -0.751910    0.385450    1.115783
 ---------------------------------------------------------------------

 SCF Done:  E(RB3LYP) =  -1297.97090688     A.U. after   13 cycles

 The electronic state is 1-A.
 Alpha  occ. eigenvalues --  -19.19849 -19.19152 -19.18595 -19.18569 -19.18122
 Alpha  occ. eigenvalues --  -19.17859 -19.16298 -19.15740 -19.14907 -19.14082
 Alpha  occ. eigenvalues --  -19.13167 -10.31235 -10.30962 -10.26412 -10.26255
 Alpha  occ. eigenvalues --  -10.25977 -10.25629 -10.25425 -10.24810 -10.24761
 Alpha  occ. eigenvalues --  -10.24150 -10.24143 -10.23923  -1.11026  -1.09655
 Alpha  occ. eigenvalues --   -1.06097  -1.05443  -1.04969  -1.03399  -1.02833
 Alpha  occ. eigenvalues --   -1.02141  -1.01945  -1.00455  -0.99757  -0.83100
 Alpha  occ. eigenvalues --   -0.81392  -0.79599  -0.78815  -0.71898  -0.69994
 Alpha  occ. eigenvalues --   -0.67667  -0.65168  -0.63228  -0.62742  -0.61927
 Alpha  occ. eigenvalues --   -0.60970  -0.56629  -0.56345  -0.55511  -0.54892
 Alpha  occ. eigenvalues --   -0.54208  -0.53648  -0.53195  -0.51373  -0.51216
 Alpha  occ. eigenvalues --   -0.51019  -0.50608  -0.50034  -0.48919  -0.46833
 Alpha  occ. eigenvalues --   -0.46417  -0.45459  -0.44615  -0.44114  -0.43397
 Alpha  occ. eigenvalues --   -0.42493  -0.42255  -0.41461  -0.40916  -0.40046
 Alpha  occ. eigenvalues --   -0.39477  -0.38109  -0.37120  -0.36765  -0.35979
 Alpha  occ. eigenvalues --   -0.35299  -0.35150  -0.34511  -0.33802  -0.33448
 Alpha  occ. eigenvalues --   -0.33038  -0.31520  -0.30871  -0.30689  -0.30257
 Alpha  occ. eigenvalues --   -0.29747  -0.28316  -0.28165  -0.27589  -0.26916
 Alpha  occ. eigenvalues --   -0.26366
 Alpha virt. eigenvalues --   -0.02348  -0.01992  -0.01961  -0.00409   0.00115
 Alpha virt. eigenvalues --    0.00704   0.01850   0.01996   0.03274   0.03421
 Alpha virt. eigenvalues --    0.04004   0.04359   0.04687   0.05142   0.05714

 Mulliken atomic charges:
              1
     1  O   -0.521887
     2  C   -0.264731
     3  C    0.303421
     4  O   -0.584148
     5  H    0.336375
     6  C    0.019283
     7  O   -0.553566
     8  H    0.410059
     9  C   -0.188208
    10  O   -0.533053
    11  H    0.337633
    12  C    0.252914
    13  O   -0.273742
    14  C    0.036424
    15  O   -0.256842
    16  C    0.250097
    17  C    0.149041
    18  O   -0.619439
    19  H    0.403419
    20  C    0.199079
    21  O   -0.531929
    22  H    0.337122
    23  C   -0.390391
    24  O   -0.538626
    25  H    0.346964
    26  C    0.100719
    27  O   -0.241829
    28  C    0.077559
    29  O   -0.511405
    30  H    0.331897
    31  H    0.141971
    32  H    0.150685
    33  H    0.125176
    34  H    0.121794
    35  H    0.107792
    36  H    0.127698
    37  H    0.126843
    38  H    0.339309
    39  H    0.147730
    40  H    0.132250
    41  H    0.119549
    42  H    0.117805
    43  H    0.107306
    44  H    0.125967
    45  H    0.125913
 Sum of Mulliken atomic charges =   0.00000

 Dipole moment (field-independent basis, Debye):
    X=              2.2578    Y=              0.2285    Z=             -1.8393  Tot=              2.9211
 Quadrupole moment (field-independent basis, Debye-Ang):
   XX=           -110.8892   YY=           -142.3033   ZZ=           -141.0229
   XY=             15.4831   XZ=              5.0372   YZ=              2.3698

  Exact polarizability: 235.540  -0.628 196.697   1.468   1.730 143.271
 Approx polarizability: 277.509   0.972 256.154   1.722   3.038 238.856

 ******    6 imaginary frequencies (negative Signs) ******

                     1                      2                      3
                     A                      A                      A
 Frequencies --  -325.6455              -322.0194              -216.8738
 Red. masses --     1.6881                 1.7557                 1.2828
 Frc consts  --     0.1055                 0.1073                 0.0355
 IR Inten    --     3.3761                 6.2368               104.4691
 Raman Activ --     0.0457                 0.0309                 0.7329

                     4                      5                      6
                     A                      A                      A
 Frequencies --  -180.2761               -68.3625               -23.3277
 Red. masses --     1.1639                 7.1506                 6.4029
 Frc consts  --     0.0223                 0.0197                 0.0021
 IR Inten    --    91.9087                 1.0039                 0.9852
 Raman Activ --     1.3724                 0.0308                 0.0747

                     7                      8                      9
                     A                      A                      A
 Frequencies --    42.2226                51.6517                78.9481
 Red. masses --     5.8438                 6.5065                 6.9909
 Frc consts  --     0.0061                 0.0102                 0.0257
 IR Inten    --     2.2950                 1.5161                 2.9639
 Raman Activ --     0.0650                 0.0526                 0.1008

                    10                     11                     12
                     A                      A                      A
 Frequencies --    90.7485                93.3730               117.8403
 Red. masses --     6.9699                 6.5128                 6.1034
 Frc consts  --     0.0338                 0.0335                 0.0499
 IR Inten    --     0.4662                 1.0108                 1.8082
 Raman Activ --     0.1130                 0.0763                 0.0825

                    13                     14                     15
                     A                      A                      A
 Frequencies --   150.5748               182.6391               196.2079
 Red. masses --     6.4274                 7.2344                 6.0496
 Frc consts  --     0.0859                 0.1422                 0.1372
 IR Inten    --     4.1992                 1.1064                 0.4763
 Raman Activ --     0.3901                 0.2675                 1.5804

                    16                     17                     18
                     A                      A                      A
 Frequencies --   204.9589               234.5892               271.1186
 Red. masses --     6.3213                 6.3864                 4.3155
 Frc consts  --     0.1565                 0.2071                 0.1869
 IR Inten    --     0.7352                 4.9640                16.8756
 Raman Activ --     0.9756                 1.2729                 0.3580

                    19                     20                     21
                     A                      A                      A
 Frequencies --   277.8634               298.3157               305.9461
 Red. masses --     5.0508                 5.2525                 5.3478
 Frc consts  --     0.2298                 0.2754                 0.2949
 IR Inten    --     0.5016                 2.5058                 5.2433
 Raman Activ --     0.2823                 0.1965                 1.9648

                    22                     23                     24
                     A                      A                      A
 Frequencies --   314.8913               323.2862               327.4504
 Red. masses --     6.0642                 4.4289                 4.6789
 Frc consts  --     0.3543                 0.2727                 0.2956
 IR Inten    --     2.4578                 0.5791                14.3145
 Raman Activ --     2.1197                 3.8571                 1.0263

                    25                     26                     27
                     A                      A                      A
 Frequencies --   337.9815               363.2830               382.2535
 Red. masses --     5.5791                 5.4922                 5.8736
 Frc consts  --     0.3755                 0.4271                 0.5057
 IR Inten    --     4.7486                 4.1540                 2.1664
 Raman Activ --     1.6680                 0.2001                 2.6286

                    28                     29                     30
                     A                      A                      A
 Frequencies --   405.9451               422.6299               430.0061
 Red. masses --     6.6826                 5.4136                 5.1606
 Frc consts  --     0.6488                 0.5697                 0.5622
 IR Inten    --     6.4111                 8.0287                15.1785
 Raman Activ --     1.7359                 4.6971                 3.2354

                    31                     32                     33
                     A                      A                      A
 Frequencies --   443.7566               478.7855               483.6886
 Red. masses --     5.0533                 3.6312                 4.8758
 Frc consts  --     0.5863                 0.4904                 0.6721
 IR Inten    --     2.6534                15.5077                 5.0810
 Raman Activ --     3.1784                 0.3967                 4.0547

                    34                     35                     36
                     A                      A                      A
 Frequencies --   510.9433               526.9191               565.2367
 Red. masses --     4.3012                 3.2798                 3.8375
 Frc consts  --     0.6616                 0.5365                 0.7224
 IR Inten    --     4.2480                 3.3920                17.2115
 Raman Activ --     2.5276                 3.8066                 1.5377

                    37                     38                     39
                     A                      A                      A
 Frequencies --   592.0971               598.1457               616.5640
 Red. masses --     3.1467                 5.4856                 5.8052
 Frc consts  --     0.6500                 1.1563                 1.3002
 IR Inten    --    27.4681                12.0890                23.1330
 Raman Activ --     0.6928                 0.4047                 0.9340

                    40                     41                     42
                     A                      A                      A
 Frequencies --   628.0229               643.9509               677.4577
 Red. masses --     3.6949                 1.0539                 4.2945
 Frc consts  --     0.8586                 0.2575                 1.1613
 IR Inten    --    16.5439               119.9426                17.1437
 Raman Activ --     1.1542                 2.2609                 0.7681

                    43                     44                     45
                     A                      A                      A
 Frequencies --   693.2698               701.1240               715.3363
 Red. masses --     1.1050                 1.0565                 1.0848
 Frc consts  --     0.3129                 0.3060                 0.3271
 IR Inten    --    62.0064                98.0997               105.7861
 Raman Activ --     1.6878                 2.1652                 2.4428

                    46                     47                     48
                     A                      A                      A
 Frequencies --   750.8877               850.1058               858.3280
 Red. masses --     1.1063                 1.8156                 1.4732
 Frc consts  --     0.3675                 0.7731                 0.6395
 IR Inten    --   116.8470                 3.9532                24.8532
 Raman Activ --     1.3529                 0.5861                 0.3069

                    49                     50                     51
                     A                      A                      A
 Frequencies --   877.3688               932.1618               942.6464
 Red. masses --     1.2440                 5.7849                 6.7989
 Frc consts  --     0.5642                 2.9616                 3.5595
 IR Inten    --    61.0618               137.9009               133.5672
 Raman Activ --     0.7238                 2.5310                 1.3104

                    52                     53                     54
                     A                      A                      A
 Frequencies --   978.4460               984.2857               985.1546
 Red. masses --     4.8243                 4.2329                 7.5494
 Frc consts  --     2.7212                 2.4162                 4.3169
 IR Inten    --    26.5741                43.4421               142.3973
 Raman Activ --     1.9784                 1.4959                 1.2614

                    55                     56                     57
                     A                      A                      A
 Frequencies --  1002.7149              1006.7483              1019.0452
 Red. masses --     6.8344                 6.5998                 6.9277
 Frc consts  --     4.0486                 3.9412                 4.2386
 IR Inten    --   337.9640                44.5914               227.4699
 Raman Activ --     1.3108                 2.3481                 1.7005

                    58                     59                     60
                     A                      A                      A
 Frequencies --  1020.8478              1045.0974              1062.0589
 Red. masses --     4.7301                 4.6540                 4.7527
 Frc consts  --     2.9043                 2.9950                 3.1585
 IR Inten    --   183.7937               149.8632                 3.4133
 Raman Activ --     2.5002                 3.7671                 7.2786

                    61                     62                     63
                     A                      A                      A
 Frequencies --  1064.8876              1071.3377              1076.0081
 Red. masses --     3.4823                 2.8117                 4.8265
 Frc consts  --     2.3266                 1.9014                 3.2924
 IR Inten    --    15.5830                 1.4058               110.7833
 Raman Activ --     2.4952                 1.9916                 9.2857

                    64                     65                     66
                     A                      A                      A
 Frequencies --  1098.2984              1105.6929              1111.5008
 Red. masses --     2.7019                 2.6994                 2.8751
 Frc consts  --     1.9203                 1.9444                 2.0928
 IR Inten    --    14.6639                16.4589                60.6586
 Raman Activ --     2.9549                10.4031                15.6609

                    67                     68                     69
                     A                      A                      A
 Frequencies --  1117.5864              1127.0807              1136.4658
 Red. masses --     2.4679                 2.6836                 2.2949
 Frc consts  --     1.8161                 2.0085                 1.7463
 IR Inten    --    66.6828                43.4617                19.2880
 Raman Activ --    12.7006                 1.6977                 9.1843

                    70                     71                     72
                     A                      A                      A
 Frequencies --  1142.3705              1147.6298              1150.9331
 Red. masses --     2.0635                 3.1624                 2.4150
 Frc consts  --     1.5866                 2.4539                 1.8848
 IR Inten    --    21.7480                47.5243                10.2280
 Raman Activ --     1.7609                 3.1783                 3.4437

                    73                     74                     75
                     A                      A                      A
 Frequencies --  1163.5350              1169.1189              1180.3064
 Red. masses --     1.8201                 1.8539                 2.1412
 Frc consts  --     1.4518                 1.4930                 1.7575
 IR Inten    --    32.4855                10.8513                 7.4183
 Raman Activ --     1.3403                 1.7829                 3.3064

                    76                     77                     78
                     A                      A                      A
 Frequencies --  1217.9053              1223.7481              1233.6046
 Red. masses --     1.3217                 1.5616                 1.3767
 Frc consts  --     1.1551                 1.3779                 1.2343
 IR Inten    --    13.4961                11.4296                 1.0254
 Raman Activ --     1.9264                 2.0364                 0.8986

                    79                     80                     81
                     A                      A                      A
 Frequencies --  1255.0025              1260.3275              1266.2407
 Red. masses --     1.2089                 1.2918                 1.1912
 Frc consts  --     1.1218                 1.2089                 1.1253
 IR Inten    --    11.0814                 9.8957                43.9045
 Raman Activ --     0.3869                 3.9804                 0.6779

                    82                     83                     84
                     A                      A                      A
 Frequencies --  1273.2621              1287.6187              1294.0182
 Red. masses --     1.2557                 1.3245                 1.3010
 Frc consts  --     1.1994                 1.2939                 1.2835
 IR Inten    --    15.4392                14.6591                34.9945
 Raman Activ --     3.6033                 1.9086                 1.0365

                    85                     86                     87
                     A                      A                      A
 Frequencies --  1298.0932              1310.1228              1318.0368
 Red. masses --     1.2065                 1.2152                 1.4399
 Frc consts  --     1.1978                 1.2289                 1.4738
 IR Inten    --    35.5432                21.6294                 7.9709
 Raman Activ --     6.4947                 5.8862                 3.3468

                    88                     89                     90
                     A                      A                      A
 Frequencies --  1320.3098              1323.7446              1325.1816
 Red. masses --     1.2970                 1.2176                 1.2254
 Frc consts  --     1.3321                 1.2570                 1.2679
 IR Inten    --    19.2594                13.3326                 3.9684
 Raman Activ --     2.6555                10.5846                 5.9524

                    91                     92                     93
                     A                      A                      A
 Frequencies --  1338.7784              1360.3854              1372.6271
 Red. masses --     1.2235                 1.3687                 1.2837
 Frc consts  --     1.2921                 1.4924                 1.4250
 IR Inten    --    39.6230                 2.2885                 4.4830
 Raman Activ --     5.1822                 8.2636                 6.9505

                    94                     95                     96
                     A                      A                      A
 Frequencies --  1376.6400              1380.8016              1387.3008
 Red. masses --     1.2174                 1.1997                 1.2421
 Frc consts  --     1.3593                 1.3477                 1.4085
 IR Inten    --    20.8113                37.1682                29.9670
 Raman Activ --     3.9762                 2.2416                 3.3183

                    97                     98                     99
                     A                      A                      A
 Frequencies --  1392.8968              1401.6977              1406.0538
 Red. masses --     1.2181                 1.4646                 1.4241
 Frc consts  --     1.3924                 1.6954                 1.6588
 IR Inten    --     8.9158                16.5703                 2.4398
 Raman Activ --     0.6594                 2.6451                 4.3379

                   100                    101                    102
                     A                      A                      A
 Frequencies --  1411.7378              1416.5222              1455.4035
 Red. masses --     1.5444                 1.4966                 1.3070
 Frc consts  --     1.8135                 1.7693                 1.6311
 IR Inten    --    31.4497                19.3953                 9.8268
 Raman Activ --     2.4371                 2.1425                 2.9181

                   103                    104                    105
                     A                      A                      A
 Frequencies --  1474.0754              1474.5052              1479.4589
 Red. masses --     1.3180                 1.0795                 1.1203
 Frc consts  --     1.6873                 1.3828                 1.4448
 IR Inten    --    40.1703                 3.8752                 1.3129
 Raman Activ --     2.1280                 4.6056                 2.6935

                   106                    107                    108
                     A                      A                      A
 Frequencies --  1488.1507              1506.0020              3250.3896
 Red. masses --     1.3044                 1.3247                 1.0728
 Frc consts  --     1.7020                 1.7702                 6.6778
 IR Inten    --    64.3234                19.8632                 9.3804
 Raman Activ --     1.5308                 0.9659                 7.2539

                   109                    110                    111
                     A                      A                      A
 Frequencies --  3251.5451              3254.1889              3257.6659
 Red. masses --     1.0598                 1.0678                 1.0796
 Frc consts  --     6.6015                 6.6623                 6.7501
 IR Inten    --    28.5245               119.7684                19.7719
 Raman Activ --    58.4249               114.4159               113.4788

                   112                    113                    114
                     A                      A                      A
 Frequencies --  3272.5730              3273.9768              3276.3817
 Red. masses --     1.0812                 1.0837                 1.0822
 Frc consts  --     6.8226                 6.8437                 6.8443
 IR Inten    --    24.3940                 0.4414                21.1310
 Raman Activ --    46.9197                 4.5606               216.6921

                   115                    116                    117
                     A                      A                      A
 Frequencies --  3281.9106              3285.5599              3286.7960
 Red. masses --     1.0829                 1.0774                 1.0818
 Frc consts  --     6.8719                 6.8525                 6.8857
 IR Inten    --   131.6483                69.5099                38.9269
 Raman Activ --   111.4756               117.3412               182.1367

                   118                    119                    120
                     A                      A                      A
 Frequencies --  3291.3761              3297.7354              3300.1092
 Red. masses --     1.0857                 1.0844                 1.0820
 Frc consts  --     6.9298                 6.9481                 6.9427
 IR Inten    --    48.4409               374.4891               409.7819
 Raman Activ --    11.7036                13.1240                61.1240

                   121                    122                    123
                     A                      A                      A
 Frequencies --  3300.5722              3304.1311              3308.5861
 Red. masses --     1.0957                 1.0959                 1.0889
 Frc consts  --     7.0326                 7.0489                 7.0227
 IR Inten    --   254.7554                96.6968               116.0533
 Raman Activ --    26.8579                49.1633                31.4111

                   124                    125                    126
                     A                      A                      A
 Frequencies --  3362.0414              3366.9878              3367.0235
 Red. masses --     1.0658                 1.0677                 1.0664
 Frc consts  --     7.0978                 7.1317                 7.1230
 IR Inten    --    38.4087                88.4453                42.1045
 Raman Activ --   104.4137               104.6559               189.4036

                   127                    128                    129
                     A                      A                      A
 Frequencies --  3376.8753              3886.1640              3890.0320
 Red. masses --     1.0667                 1.0678                 1.0675
 Frc consts  --     7.1666                 9.5009                 9.5171
 IR Inten    --    36.6784                83.1884                78.8419
 Raman Activ --   160.6417                88.8825               120.7828

 - Thermochemistry -
 -------------------
 Temperature   298.150 Kelvin.  Pressure   1.00000 Atm.
 Atom     1 has atomic number  8 and mass  15.99491

 Molecular mass:   342.11621 amu.
 Principal axes and moments of inertia in atomic units:
                           1         2         3
     Eigenvalues --  4445.54603********************
           X            0.99997   0.00779   0.00052
           Y           -0.00780   0.99996   0.00336
           Z           -0.00049  -0.00336   0.99999
 This molecule is an asymmetric top.
 Rotational symmetry number  1.
 Warning -- assumption of classical behavior for rotation
           may cause significant error
 Rotational temperatures (Kelvin)      0.01948     0.00696     0.00527
 Rotational constants (GHZ):           0.40597     0.14504     0.10987
    6 imaginary frequencies ignored.
 Zero-point vibrational energy     975145.2 (Joules/Mol)
                                  233.06530 (Kcal/Mol)
 Warning -- explicit consideration of  33 degrees of freedom as
           vibrations may cause significant error
 Vibrational temperatures:     60.75    74.32   113.59   130.57   134.34
          (Kelvin)            169.55   216.64   262.78   282.30   294.89
                              337.52   390.08   399.78   429.21   440.19
                              453.06   465.14   471.13   486.28   522.68
                              549.98   584.06   608.07   618.68   638.47
                              688.86   695.92   735.13   758.12   813.25
                              851.89   860.60   887.10   903.58   926.50
                              974.71   997.46  1008.76  1029.21  1080.36
                             1223.11  1234.94  1262.34  1341.17  1356.26
                             1407.76  1416.17  1417.42  1442.68  1448.48
                             1466.18  1468.77  1503.66  1528.06  1532.13
                             1541.41  1548.13  1580.20  1590.84  1599.20
                             1607.96  1621.62  1635.12  1643.61  1651.18
                             1655.93  1674.07  1682.10  1698.20  1752.29
                             1760.70  1774.88  1805.67  1813.33  1821.84
                             1831.94  1852.59  1861.80  1867.66  1884.97
                             1896.36  1899.63  1904.57  1906.64  1926.20
                             1957.29  1974.90  1980.68  1986.66  1996.01
                             2004.07  2016.73  2023.00  2031.17  2038.06
                             2094.00  2120.86  2121.48  2128.61  2141.11
                             2166.80  4676.58  4678.24  4682.05  4687.05
                             4708.50  4710.52  4713.98  4721.93  4727.18
                             4728.96  4735.55  4744.70  4748.12  4748.78
                             4753.90  4760.31  4837.22  4844.34  4844.39
                             4858.56  5591.32  5596.88

 Zero-point correction=                           0.371413 (Hartree/Particle)
 Thermal correction to Energy=                    0.390509
 Thermal correction to Enthalpy=                  0.391453
 Thermal correction to Gibbs Free Energy=         0.324742
 Sum of electronic and zero-point Energies=          -1297.599494
 Sum of electronic and thermal Energies=             -1297.580398
 Sum of electronic and thermal Enthalpies=           -1297.579454
 Sum of electronic and thermal Free Energies=        -1297.646165

                     E (Thermal)             CV                S
                      KCal/Mol        Cal/Mol-Kelvin    Cal/Mol-Kelvin
 Total                  245.048             77.989            140.404
 Electronic               0.000              0.000              0.000
 Translational            0.889              2.981             43.384
 Rotational               0.889              2.981             35.162
 Vibrational            243.270             72.027             61.858
 Vibration     1          0.595              1.980              5.152
 Vibration     2          0.596              1.977              4.753
 Vibration     3          0.600              1.963              3.917
 Vibration     4          0.602              1.956              3.644
 Vibration     5          0.602              1.954              3.588
 Vibration     6          0.608              1.935              3.135
 Vibration     7          0.618              1.902              2.665
 Vibration     8          0.630              1.863              2.301
 Vibration     9          0.636              1.845              2.168
 Vibration    10          0.640              1.833              2.088
 Vibration    11          0.654              1.788              1.844
 Vibration    12          0.675              1.726              1.589
 Vibration    13          0.679              1.714              1.547
 Vibration    14          0.691              1.677              1.426
 Vibration    15          0.696              1.662              1.384
 Vibration    16          0.702              1.645              1.337
 Vibration    17          0.708              1.629              1.293
 Vibration    18          0.711              1.621              1.273
 Vibration    19          0.718              1.600              1.222
 Vibration    20          0.737              1.548              1.108
 Vibration    21          0.752              1.508              1.030
 Vibration    22          0.771              1.457              0.941
 Vibration    23          0.785              1.421              0.883
 Vibration    24          0.791              1.405              0.859
 Vibration    25          0.803              1.375              0.815
 Vibration    26          0.835              1.297              0.713
 Vibration    27          0.840              1.286              0.700
 Vibration    28          0.866              1.226              0.631
 Vibration    29          0.882              1.190              0.594
 Vibration    30          0.921              1.106              0.513
 Vibration    31          0.950              1.049              0.463
 Vibration    32          0.956              1.036              0.453
 Vibration    33          0.976              0.997              0.422

 Normal termination of Gaussian 09 at Sun Mar 27 04:32:53 2016.
