 Gaussian 09, Revision B.01,
 Gaussian 09:  EM64L-G09RevB.01 12-Aug-2010

 ------------------------------------------------
 # freq=raman b3lyp/6-31+g(d,p) geom=connectivity
 ------------------------------------------------

 -------------
 400 10000.com
 -------------
 Symbolic Z-matrix:
 Charge =  0 Multiplicity = 1

                         Standard orientation:
 ---------------------------------------------------------------------
 Center     Atomic      Atomic             Coordinates (Angstroms)
 Number     Number       Type             X           Y           Z
 ---------------------------------------------------------------------
      1          8           0        5.009939   -0.329468   -0.395386
      2          6           0        3.759207   -0.015744    0.234741
      3          6           0        3.220958    1.334022   -0.209317
      4          8           0        4.023966    2.396803    0.325796
      5          1           0        4.962064    2.195262    0.042940
      6          6           0        1.766298    1.543274    0.178406
      7          8           0        1.137727    2.615513   -0.539055
      8          1           0        0.248679    2.959031   -0.236064
      9          6           0        3.233542   -2.447418   -0.035959
     10          8           0        4.484193   -3.084529   -0.334028
     11          1           0        4.406225   -4.058478   -0.547170
     12          6           0        2.745288   -1.027741   -0.272413
     13          8           0        1.463251   -0.857329    0.350243
     14          6           0        0.848924    0.361336   -0.091517
     15          8           0       -0.337823    0.611268    0.676053
     16          6           0       -1.572169    0.175982    0.088136
     17          6           0       -2.037830   -1.184494    0.580273
     18          8           0       -1.067865   -2.215392    0.343820
     19          1           0       -0.169492   -1.980824    0.713308
     20          6           0       -3.316373   -1.578085   -0.141738
     21          8           0       -3.589046   -2.967546    0.092348
     22          1           0       -4.505833   -3.111733   -0.280911
     23          6           0       -2.292524    2.541286   -0.329280
     24          8           0       -1.316925    3.330346    0.367281
     25          1           0       -1.429615    4.266945    0.033933
     26          6           0       -2.704389    1.181633    0.210515
     27          8           0       -3.900346    0.726683   -0.438946
     28          6           0       -4.350532   -0.502911    0.149521
     29          8           0       -5.545428   -0.525862   -0.644977
     30          1           0        5.690710   -0.425189    0.274680
     31          1           0        3.113651   -2.591057    1.017556
     32          1           0        2.627757   -0.884586   -1.326260
     33          1           0        3.844172   -0.062475    1.300338
     34          1           0        3.285782    1.377994   -1.276446
     35          1           0        1.727472    1.768190    1.223779
     36          1           0        0.612859    0.303703   -1.133559
     37          1           0       -3.180952    3.132854   -0.404402
     38          1           0       -1.923303    2.387694   -1.321744
     39          1           0       -6.312240   -0.454726   -0.071793
     40          1           0       -4.556508   -0.395212    1.193971
     41          1           0       -3.104982   -1.499209   -1.187679
     42          1           0       -2.234620   -1.125933    1.630390
     43          1           0       -1.380311    0.066627   -0.958828
     44          1           0       -2.924066    1.297938    1.251243
     45          1           0        2.507004   -3.057563   -0.530696
 ---------------------------------------------------------------------

 SCF Done:  E(RB3LYP) =  -1297.91423620     A.U. after   14 cycles

 The electronic state is 1-A.
 Alpha  occ. eigenvalues --  -19.20278 -19.19228 -19.19080 -19.19077 -19.18745
 Alpha  occ. eigenvalues --  -19.17477 -19.17381 -19.16409 -19.15933 -19.14933
 Alpha  occ. eigenvalues --  -19.13323 -10.31835 -10.30616 -10.26386 -10.25877
 Alpha  occ. eigenvalues --  -10.25809 -10.25611 -10.25400 -10.25044 -10.24918
 Alpha  occ. eigenvalues --  -10.24390 -10.24289 -10.24064  -1.10411  -1.09437
 Alpha  occ. eigenvalues --   -1.06145  -1.05150  -1.04090  -1.03509  -1.02632
 Alpha  occ. eigenvalues --   -1.02057  -1.01697  -1.00538  -0.99434  -0.82298
 Alpha  occ. eigenvalues --   -0.80426  -0.80054  -0.78016  -0.72000  -0.70039
 Alpha  occ. eigenvalues --   -0.67363  -0.64983  -0.63408  -0.62361  -0.61845
 Alpha  occ. eigenvalues --   -0.60261  -0.56941  -0.55765  -0.54976  -0.54937
 Alpha  occ. eigenvalues --   -0.53759  -0.53653  -0.52920  -0.51846  -0.51532
 Alpha  occ. eigenvalues --   -0.50843  -0.49958  -0.48940  -0.48652  -0.46361
 Alpha  occ. eigenvalues --   -0.46238  -0.45092  -0.44247  -0.43587  -0.43388
 Alpha  occ. eigenvalues --   -0.42279  -0.41780  -0.41257  -0.40200  -0.39574
 Alpha  occ. eigenvalues --   -0.38826  -0.38270  -0.37611  -0.36186  -0.35804
 Alpha  occ. eigenvalues --   -0.35161  -0.35020  -0.33607  -0.33480  -0.32932
 Alpha  occ. eigenvalues --   -0.32439  -0.31456  -0.30981  -0.30123  -0.29618
 Alpha  occ. eigenvalues --   -0.29500  -0.28559  -0.27932  -0.27248  -0.26931
 Alpha  occ. eigenvalues --   -0.25852
 Alpha virt. eigenvalues --   -0.02204  -0.02146  -0.01780  -0.00258   0.00098
 Alpha virt. eigenvalues --    0.00862   0.01989   0.02227   0.03101   0.03458
 Alpha virt. eigenvalues --    0.03790   0.04350   0.04715   0.05538   0.05707

 Mulliken atomic charges:
              1
     1  O   -0.528272
     2  C   -0.120190
     3  C    0.059094
     4  O   -0.508641
     5  H    0.346746
     6  C   -0.048404
     7  O   -0.598042
     8  H    0.463220
     9  C   -0.243801
    10  O   -0.561715
    11  H    0.371233
    12  C    0.468836
    13  O   -0.420654
    14  C    0.171372
    15  O   -0.316788
    16  C    0.067947
    17  C   -0.093855
    18  O   -0.494691
    19  H    0.401797
    20  C   -0.072080
    21  O   -0.474667
    22  H    0.348536
    23  C    0.023312
    24  O   -0.618468
    25  H    0.385075
    26  C   -0.148556
    27  O   -0.287702
    28  C    0.322109
    29  O   -0.526642
    30  H    0.368912
    31  H    0.135525
    32  H    0.132446
    33  H    0.145484
    34  H    0.145510
    35  H    0.152196
    36  H    0.126982
    37  H    0.140429
    38  H    0.147809
    39  H    0.349607
    40  H    0.126333
    41  H    0.149231
    42  H    0.134172
    43  H    0.113310
    44  H    0.136534
    45  H    0.129412
 Sum of Mulliken atomic charges =   0.00000

 Dipole moment (field-independent basis, Debye):
    X=             -2.8729    Y=              0.5687    Z=              1.2410  Tot=              3.1807
 Quadrupole moment (field-independent basis, Debye-Ang):
   XX=           -115.1277   YY=           -137.1644   ZZ=           -140.2384
   XY=            -15.2343   XZ=             -3.0976   YZ=              0.1057

  Exact polarizability: 230.016  -1.587 193.115   1.204   0.007 141.364
 Approx polarizability: 267.524  -4.862 248.024   2.148   1.199 232.014

 ******    7 imaginary frequencies (negative Signs) ******

                     1                      2                      3
                     A                      A                      A
 Frequencies --  -384.0740              -348.6343              -309.9506
 Red. masses --     1.5829                 1.1326                 1.1531
 Frc consts  --     0.1376                 0.0811                 0.0653
 IR Inten    --     6.0694                93.3132               120.0095
 Raman Activ --     0.1029                 1.0686                 1.0294

                     4                      5                      6
                     A                      A                      A
 Frequencies --  -273.2427               -90.0406               -54.6752
 Red. masses --     1.7316                 6.3097                 6.7990
 Frc consts  --     0.0762                 0.0301                 0.0120
 IR Inten    --     5.7723                 0.2898                 3.5995
 Raman Activ --     0.0347                 0.0250                 0.0931

                     7                      8                      9
                     A                      A                      A
 Frequencies --   -50.6403                55.8370                62.5588
 Red. masses --     6.9032                 6.6701                 5.9191
 Frc consts  --     0.0104                 0.0123                 0.0136
 IR Inten    --     2.7577                 0.6526                 2.9939
 Raman Activ --     0.0315                 0.0754                 0.0936

                    10                     11                     12
                     A                      A                      A
 Frequencies --    74.1531                85.3442               102.4943
 Red. masses --     6.5967                 6.6206                 6.0610
 Frc consts  --     0.0214                 0.0284                 0.0375
 IR Inten    --     1.8465                 0.7723                 2.4505
 Raman Activ --     0.0334                 0.1299                 0.3604

                    13                     14                     15
                     A                      A                      A
 Frequencies --   158.2661               171.9445               186.8951
 Red. masses --     6.4727                 6.5317                 6.7991
 Frc consts  --     0.0955                 0.1138                 0.1399
 IR Inten    --     3.6309                 1.9226                 0.2996
 Raman Activ --     0.3805                 0.6351                 0.4096

                    16                     17                     18
                     A                      A                      A
 Frequencies --   206.1728               222.4278               258.0345
 Red. masses --     6.8864                 6.3277                 5.5095
 Frc consts  --     0.1725                 0.1844                 0.2161
 IR Inten    --     0.2283                 4.3420                 1.9692
 Raman Activ --     1.7069                 1.2972                 0.5964

                    19                     20                     21
                     A                      A                      A
 Frequencies --   262.8517               275.4181               290.2004
 Red. masses --     5.0946                 4.8109                 5.3661
 Frc consts  --     0.2074                 0.2150                 0.2663
 IR Inten    --    11.2226                11.3025                 6.3449
 Raman Activ --     0.3194                 0.3369                 0.2143

                    22                     23                     24
                     A                      A                      A
 Frequencies --   311.5638               312.8587               326.0974
 Red. masses --     4.9089                 6.4679                 5.7148
 Frc consts  --     0.2808                 0.3730                 0.3580
 IR Inten    --     2.8604                 5.5147                 3.2633
 Raman Activ --     1.8863                 5.1924                 1.3102

                    25                     26                     27
                     A                      A                      A
 Frequencies --   333.5951               366.6514               380.9909
 Red. masses --     6.3247                 4.5650                 6.1216
 Frc consts  --     0.4147                 0.3616                 0.5235
 IR Inten    --     8.8799                 4.8709                 1.1143
 Raman Activ --     3.9065                 0.6392                 0.3971

                    28                     29                     30
                     A                      A                      A
 Frequencies --   409.4007               412.8364               432.8824
 Red. masses --     5.6675                 5.7743                 4.6267
 Frc consts  --     0.5597                 0.5798                 0.5108
 IR Inten    --     9.5866                 8.9958                 4.4692
 Raman Activ --     3.9635                 1.9877                 2.5085

                    31                     32                     33
                     A                      A                      A
 Frequencies --   438.1614               480.9599               487.8407
 Red. masses --     5.1341                 4.0757                 4.7446
 Frc consts  --     0.5807                 0.5555                 0.6653
 IR Inten    --     6.5722                 7.5941                13.3068
 Raman Activ --     5.1268                 2.4366                 0.2321

                    34                     35                     36
                     A                      A                      A
 Frequencies --   508.3233               527.2841               560.0320
 Red. masses --     3.5146                 3.0283                 4.3124
 Frc consts  --     0.5351                 0.4961                 0.7969
 IR Inten    --    12.2605                21.8791                 9.7622
 Raman Activ --     2.6031                 5.0048                 1.8912

                    37                     38                     39
                     A                      A                      A
 Frequencies --   578.4773               589.5224               597.4956
 Red. masses --     1.6586                 1.8328                 4.3449
 Frc consts  --     0.3270                 0.3753                 0.9139
 IR Inten    --    78.0609                55.7720                17.8869
 Raman Activ --     0.8569                 1.0242                 0.5232

                    40                     41                     42
                     A                      A                      A
 Frequencies --   630.9344               638.8368               704.9950
 Red. masses --     3.9142                 4.7991                 5.0654
 Frc consts  --     0.9180                 1.1539                 1.4833
 IR Inten    --     3.1729                47.0468                26.1718
 Raman Activ --     0.0865                 1.9976                 1.9655

                    43                     44                     45
                     A                      A                      A
 Frequencies --   720.9484               726.5424               744.0885
 Red. masses --     1.1049                 1.0724                 1.0745
 Frc consts  --     0.3383                 0.3335                 0.3505
 IR Inten    --    96.7270               183.1780                90.7365
 Raman Activ --     1.9176                 5.3269                 1.7254

                    46                     47                     48
                     A                      A                      A
 Frequencies --   757.8836               827.4770               837.7624
 Red. masses --     1.0860                 1.2025                 1.7110
 Frc consts  --     0.3675                 0.4851                 0.7075
 IR Inten    --   147.4320                39.1018                20.6131
 Raman Activ --     2.2570                 0.4175                 1.2045

                    49                     50                     51
                     A                      A                      A
 Frequencies --   871.8363               947.1674               954.1169
 Red. masses --     1.4956                 5.8947                 5.6132
 Frc consts  --     0.6698                 3.1158                 3.0107
 IR Inten    --    22.5553               230.5659                29.4131
 Raman Activ --     0.5745                 3.0669                 1.3939

                    52                     53                     54
                     A                      A                      A
 Frequencies --   985.3784               990.8127               995.4134
 Red. masses --     4.5352                 7.0899                 4.9704
 Frc consts  --     2.5945                 4.1008                 2.9016
 IR Inten    --    44.0461                52.1995                75.2067
 Raman Activ --     0.9154                 2.2199                 4.5492

                    55                     56                     57
                     A                      A                      A
 Frequencies --  1006.7079              1023.5956              1034.6574
 Red. masses --     6.0973                 6.1196                 3.8740
 Frc consts  --     3.6408                 3.7777                 2.4434
 IR Inten    --   212.8466                33.0028               257.2220
 Raman Activ --     0.9563                 1.3030                 3.1927

                    58                     59                     60
                     A                      A                      A
 Frequencies --  1038.0107              1060.5640              1060.7989
 Red. masses --     6.7046                 3.3994                 2.3430
 Frc consts  --     4.2563                 2.2528                 1.5534
 IR Inten    --   240.4968                76.6497               145.7851
 Raman Activ --     2.9515                 0.7818                10.0369

                    61                     62                     63
                     A                      A                      A
 Frequencies --  1075.7757              1086.4686              1091.6804
 Red. masses --     5.8620                 3.7433                 3.6534
 Frc consts  --     3.9970                 2.6034                 2.5653
 IR Inten    --    23.8781               127.6206                 3.3602
 Raman Activ --     0.8492                 2.2426                 9.1398

                    64                     65                     66
                     A                      A                      A
 Frequencies --  1099.2645              1103.0139              1112.4354
 Red. masses --     2.6491                 2.3963                 2.6941
 Frc consts  --     1.8861                 1.7177                 1.9643
 IR Inten    --   160.1237                 2.0429                 3.4638
 Raman Activ --     3.9041                 7.9893                 2.0467

                    67                     68                     69
                     A                      A                      A
 Frequencies --  1115.5326              1134.1889              1140.2396
 Red. masses --     3.3672                 2.4108                 2.6191
 Frc consts  --     2.4688                 1.8272                 2.0063
 IR Inten    --    14.3395                46.4419                19.2902
 Raman Activ --    13.7097                 6.3167                 2.3108

                    70                     71                     72
                     A                      A                      A
 Frequencies --  1147.1318              1157.1439              1161.4534
 Red. masses --     2.0821                 1.9421                 2.2046
 Frc consts  --     1.6142                 1.5321                 1.7522
 IR Inten    --    14.1461                16.3922                42.7949
 Raman Activ --    14.0376                 0.8561                 5.2820

                    73                     74                     75
                     A                      A                      A
 Frequencies --  1171.4820              1183.4324              1190.0200
 Red. masses --     2.3792                 2.1845                 1.5911
 Frc consts  --     1.9238                 1.8026                 1.3275
 IR Inten    --    13.0310                16.1045                 5.1451
 Raman Activ --     5.2562                 1.6288                 1.5720

                    76                     77                     78
                     A                      A                      A
 Frequencies --  1191.6496              1207.6261              1220.3092
 Red. masses --     1.5109                 1.4346                 1.3535
 Frc consts  --     1.2641                 1.2326                 1.1875
 IR Inten    --     4.9792                29.2164                 3.4689
 Raman Activ --     1.7540                 3.3567                 0.7825

                    79                     80                     81
                     A                      A                      A
 Frequencies --  1229.8283              1252.2234              1257.2811
 Red. masses --     1.4302                 1.2270                 1.3062
 Frc consts  --     1.2745                 1.1336                 1.2165
 IR Inten    --     2.1685                18.0020                12.5855
 Raman Activ --     1.6796                 0.5787                 2.0521

                    82                     83                     84
                     A                      A                      A
 Frequencies --  1273.8260              1293.7910              1299.0848
 Red. masses --     1.1991                 1.2865                 1.2346
 Frc consts  --     1.1464                 1.2688                 1.2276
 IR Inten    --    12.3599                17.3243                76.0954
 Raman Activ --     1.3471                 3.4922                 2.4226

                    85                     86                     87
                     A                      A                      A
 Frequencies --  1299.8756              1304.5276              1315.3219
 Red. masses --     1.2712                 1.1926                 1.2484
 Frc consts  --     1.2655                 1.1958                 1.2726
 IR Inten    --    13.0126                18.2906                 6.1474
 Raman Activ --     3.5333                 9.2167                 7.8255

                    88                     89                     90
                     A                      A                      A
 Frequencies --  1319.5711              1326.7627              1334.5237
 Red. masses --     1.3095                 1.2937                 1.3056
 Frc consts  --     1.3435                 1.3418                 1.3700
 IR Inten    --     1.7365                13.1887                30.6068
 Raman Activ --     5.9127                 4.7131                 4.6349

                    91                     92                     93
                     A                      A                      A
 Frequencies --  1342.0728              1352.1185              1362.1377
 Red. masses --     1.3065                 1.2600                 1.2623
 Frc consts  --     1.3865                 1.3572                 1.3799
 IR Inten    --    38.2253                24.7966                36.2038
 Raman Activ --     1.0075                 4.9629                 1.1897

                    94                     95                     96
                     A                      A                      A
 Frequencies --  1367.6090              1374.0597              1377.2868
 Red. masses --     1.3393                 1.6223                 1.1511
 Frc consts  --     1.4759                 1.8047                 1.2865
 IR Inten    --    33.2659                 7.1101                11.0365
 Raman Activ --     5.2925                 7.1762                 8.5112

                    97                     98                     99
                     A                      A                      A
 Frequencies --  1380.4725              1392.8256              1399.9225
 Red. masses --     1.3278                 1.4298                 1.6488
 Frc consts  --     1.4909                 1.6343                 1.9039
 IR Inten    --     3.8429                19.7437                 7.0576
 Raman Activ --     5.5106                 2.4686                 2.6837

                   100                    101                    102
                     A                      A                      A
 Frequencies --  1411.5795              1427.1126              1442.9933
 Red. masses --     1.3537                 1.3567                 1.4201
 Frc consts  --     1.5892                 1.6280                 1.7422
 IR Inten    --    12.3034                22.9455                31.7214
 Raman Activ --    10.0347                 1.9850                 1.0954

                   103                    104                    105
                     A                      A                      A
 Frequencies --  1449.8095              1457.2209              1465.3305
 Red. masses --     1.2374                 1.5027                 1.1720
 Frc consts  --     1.5325                 1.8801                 1.4827
 IR Inten    --     2.9623                37.6610                 2.5456
 Raman Activ --     4.5499                 1.6491                 2.1795

                   106                    107                    108
                     A                      A                      A
 Frequencies --  1475.1369              1482.9410              3254.8779
 Red. masses --     1.3578                 1.0901                 1.0614
 Frc consts  --     1.7408                 1.4124                 6.6252
 IR Inten    --    14.9009                 6.5635               186.0863
 Raman Activ --     2.1758                 4.4896               118.9043

                   109                    110                    111
                     A                      A                      A
 Frequencies --  3255.7024              3275.4143              3276.5796
 Red. masses --     1.0647                 1.0660                 1.0801
 Frc consts  --     6.6494                 6.7381                 6.8324
 IR Inten    --   662.3011               171.9331                32.4998
 Raman Activ --    44.7961               271.6269                24.4084

                   112                    113                    114
                     A                      A                      A
 Frequencies --  3282.5363              3282.7736              3288.1824
 Red. masses --     1.0832                 1.0830                 1.0833
 Frc consts  --     6.8766                 6.8762                 6.9008
 IR Inten    --     9.7189                 7.6730                17.0841
 Raman Activ --    13.3732                99.9238                87.2919

                   115                    116                    117
                     A                      A                      A
 Frequencies --  3294.6269              3296.8638              3302.8821
 Red. masses --     1.0838                 1.0859                 1.0849
 Frc consts  --     6.9312                 6.9540                 6.9733
 IR Inten    --     6.1446                13.0616                 5.6698
 Raman Activ --   140.2644                 9.0905                58.4547

                   118                    119                    120
                     A                      A                      A
 Frequencies --  3309.3362              3311.3181              3312.7775
 Red. masses --     1.0891                 1.0880                 1.0967
 Frc consts  --     7.0276                 7.0290                 7.0915
 IR Inten    --     3.0876                89.5018                 8.4621
 Raman Activ --    43.9998                36.2748                21.8674

                   121                    122                    123
                     A                      A                      A
 Frequencies --  3320.3134              3325.4176              3376.0453
 Red. masses --     1.0898                 1.1058                 1.0677
 Frc consts  --     7.0789                 7.2049                 7.1696
 IR Inten    --    99.0994                58.2647               310.4770
 Raman Activ --     8.8732                42.7651               169.2852

                   124                    125                    126
                     A                      A                      A
 Frequencies --  3384.0370              3385.4053              3389.9321
 Red. masses --     1.0657                 1.0695                 1.0666
 Frc consts  --     7.1907                 7.2222                 7.2216
 IR Inten    --    21.8135                51.6606                81.2604
 Raman Activ --   102.2868               188.9157                83.2672

                   127                    128                    129
                     A                      A                      A
 Frequencies --  3390.2647              3920.4082              3921.3045
 Red. masses --     1.0659                 1.0677                 1.0676
 Frc consts  --     7.2184                 9.6688                 9.6723
 IR Inten    --    10.6261                77.6794                59.0927
 Raman Activ --   180.5602                91.5413               144.8243

 - Thermochemistry -
 -------------------
 Temperature   298.150 Kelvin.  Pressure   1.00000 Atm.
 Atom     1 has atomic number  8 and mass  15.99491

 Molecular mass:   342.11621 amu.
 Principal axes and moments of inertia in atomic units:
                           1         2         3
     Eigenvalues --  4399.29411********************
           X            0.99997  -0.00771  -0.00072
           Y            0.00771   0.99997  -0.00188
           Z            0.00073   0.00187   1.00000
 This molecule is an asymmetric top.
 Rotational symmetry number  1.
 Warning -- assumption of classical behavior for rotation
           may cause significant error
 Rotational temperatures (Kelvin)      0.01969     0.00696     0.00528
 Rotational constants (GHZ):           0.41023     0.14493     0.11004
    7 imaginary frequencies ignored.
 Zero-point vibrational energy     976387.2 (Joules/Mol)
                                  233.36214 (Kcal/Mol)
 Warning -- explicit consideration of  32 degrees of freedom as
           vibrations may cause significant error
 Vibrational temperatures:     80.34    90.01   106.69   122.79   147.47
          (Kelvin)            227.71   247.39   268.90   296.64   320.02
                              371.25   378.18   396.26   417.53   448.27
                              450.13   469.18   479.97   527.53   548.16
                              589.04   593.98   622.82   630.42   691.99
                              701.89   731.36   758.64   805.76   832.30
                              848.19   859.66   907.77   919.14  1014.33
                             1037.28  1045.33  1070.58  1090.42  1190.55
                             1205.35  1254.38  1362.76  1372.76  1417.74
                             1425.56  1432.18  1448.43  1472.72  1488.64
                             1493.46  1525.91  1526.25  1547.80  1563.18
                             1570.68  1581.59  1586.99  1600.54  1605.00
                             1631.84  1640.55  1650.46  1664.87  1671.07
                             1685.50  1702.69  1712.17  1714.52  1737.50
                             1755.75  1769.45  1801.67  1808.94  1832.75
                             1861.47  1869.09  1870.23  1876.92  1892.45
                             1898.57  1908.91  1920.08  1930.94  1945.39
                             1959.81  1967.68  1976.96  1981.61  1986.19
                             2003.96  2014.17  2030.95  2053.29  2076.14
                             2085.95  2096.61  2108.28  2122.39  2133.62
                             4683.04  4684.22  4712.58  4714.26  4722.83
                             4723.17  4730.96  4740.23  4743.45  4752.10
                             4761.39  4764.24  4766.34  4777.18  4784.53
                             4857.37  4868.87  4870.84  4877.35  4877.83
                             5640.59  5641.88

 Zero-point correction=                           0.371886 (Hartree/Particle)
 Thermal correction to Energy=                    0.390358
 Thermal correction to Enthalpy=                  0.391302
 Thermal correction to Gibbs Free Energy=         0.326191
 Sum of electronic and zero-point Energies=          -1297.542350
 Sum of electronic and thermal Energies=             -1297.523878
 Sum of electronic and thermal Enthalpies=           -1297.522934
 Sum of electronic and thermal Free Energies=        -1297.588045

                     E (Thermal)             CV                S
                      KCal/Mol        Cal/Mol-Kelvin    Cal/Mol-Kelvin
 Total                  244.953             76.093            137.037
 Electronic               0.000              0.000              0.000
 Translational            0.889              2.981             43.384
 Rotational               0.889              2.981             35.151
 Vibrational            243.176             70.131             58.502
 Vibration     1          0.596              1.975              4.599
 Vibration     2          0.597              1.972              4.375
 Vibration     3          0.599              1.966              4.040
 Vibration     4          0.601              1.959              3.764
 Vibration     5          0.605              1.947              3.406
 Vibration     6          0.621              1.893              2.570
 Vibration     7          0.626              1.877              2.414
 Vibration     8          0.632              1.858              2.258
 Vibration     9          0.641              1.831              2.077
 Vibration    10          0.648              1.807              1.939
 Vibration    11          0.667              1.749              1.675
 Vibration    12          0.670              1.741              1.643
 Vibration    13          0.677              1.719              1.562
 Vibration    14          0.686              1.692              1.473
 Vibration    15          0.700              1.652              1.354
 Vibration    16          0.701              1.649              1.347
 Vibration    17          0.710              1.623              1.279
 Vibration    18          0.715              1.608              1.243
 Vibration    19          0.740              1.541              1.094
 Vibration    20          0.751              1.511              1.035
 Vibration    21          0.774              1.450              0.929
 Vibration    22          0.777              1.442              0.917
 Vibration    23          0.794              1.399              0.849
 Vibration    24          0.798              1.387              0.832
 Vibration    25          0.837              1.292              0.707
 Vibration    26          0.844              1.277              0.689
 Vibration    27          0.863              1.232              0.638
 Vibration    28          0.882              1.190              0.593
 Vibration    29          0.916              1.118              0.524
 Vibration    30          0.935              1.078              0.488
 Vibration    31          0.947              1.054              0.468
 Vibration    32          0.955              1.037              0.454

 Normal termination of Gaussian 09 at Tue Mar  1 16:43:06 2016.
